AutoDock-GPU version: v1.6

**********************************************************
**    AutoDock-GPU AUTODOCKTOOLS-COMPATIBLE DLG FILE    **
**********************************************************


    DOCKING PARAMETERS
    ________________________


Ligand file:                               /home/a/REINVENT4/ReinventStudies/pleaseWork/DH_paper_finaltest_rnv_als_qed_tani/graph-dock/graph-DockGPU/node-autodockgpu/inputs/WRBPVZICHJPYKP-WNVVCBFQNA-M.pdbqt
Grid fld file:                             /home/a/REINVENT4/ReinventStudies/mols/Rad51/maps/rad51_receptor.maps.fld

Random seed:                               42
Number of runs:                            20
Number of energy evaluations:              1132076
Number of generations:                     42000
Size of population:                        150
Rate of crossover:                         80.000000%
Tournament selection probability limit:    60.000000%
Rate of mutation:                          2.000000%
Maximal allowed delta movement:            +/- 6.000000A
Maximal allowed delta angle:               +/- 90.000000

Rate of local search:                      100.000000%
Maximal number of local search iterations: 300
Rho lower bound:                           0.010000
Spread of local search delta movement:     2.000000A
Spread of local search delta angle:        74.999999
Limit of consecutive successes/failures:   4

Handle symmetry during clustering:         YES
RMSD tolerance:                            2.000000A

Program call in command line was:          /home/a/REINVENT4/ReinventStudies/adgpu-v1.6_linux_x64_cuda12_128wi --filelist batch.txt --heuristics 1 --nrun 20 --psize 150 --lsit 300 --seed 42 --heurmax 12000000 


    GRID PARAMETERS
    ________________________


Receptor name:                             rad51_receptor
Number of grid points (x, y, z):           53, 53, 53
Grid center (x, y, z):                     139.950000, 75.640000, 221.970000A
Grid size (x, y, z):                       19.500000, 19.500000, 19.500000A
Grid spacing:                              0.375000A


    LIGAND PARAMETERS
    ________________________


Ligand name:                               /home/a/REINVENT4/ReinventStudies/pleaseWork/DH_paper_finaltest_rnv_als_qed_tani/graph-dock/graph-DockGPU/node-autodockgpu/inputs/WRBPVZICHJPYKP-WNVVCBFQNA-M
Number of atoms:                           23
Number of rotatable bonds:                 6
Number of atom types:                      5


    DUMMY DATA (only for ADT-compatibility)
    ________________________


DPF> outlev 1
DPF> ga_run 20
DPF> fld /home/a/REINVENT4/ReinventStudies/mols/Rad51/maps/rad51_receptor.maps.fld
DPF> move /home/a/REINVENT4/ReinventStudies/pleaseWork/DH_paper_finaltest_rnv_als_qed_tani/graph-dock/graph-DockGPU/node-autodockgpu/inputs/WRBPVZICHJPYKP-WNVVCBFQNA-M.pdbqt


    COUNTER STATES
    ________________________


Number of energy evaluations performed:    646270
Number of generations used:                35


    INPUT LIGAND PDBQT FILE:
    ________________________


INPUT-LIGAND-PDBQT: REMARK SMILES O=C([N-]CCOc1ccc2ccc(Cl)cc2c1)c1ccccn1
INPUT-LIGAND-PDBQT: REMARK SMILES IDX 4 1 3 2 2 3 1 4 18 5 19 6 23 7 20 8 22 9 21 10 5 11 6 12
INPUT-LIGAND-PDBQT: REMARK SMILES IDX 7 13 8 14 17 15 9 16 16 17 10 18 15 19 11 20 13 21 12 22
INPUT-LIGAND-PDBQT: REMARK SMILES IDX 14 23
INPUT-LIGAND-PDBQT: REMARK H PARENT
INPUT-LIGAND-PDBQT: ROOT
INPUT-LIGAND-PDBQT: ATOM      1  C   UNL     1       2.861  -2.140   0.693  1.00  0.00    -0.075 C 
INPUT-LIGAND-PDBQT: ENDROOT
INPUT-LIGAND-PDBQT: BRANCH   1   2
INPUT-LIGAND-PDBQT: ATOM      2  N   UNL     1       4.135  -1.460   0.923  1.00  0.00    -0.645 NA
INPUT-LIGAND-PDBQT: BRANCH   2   3
INPUT-LIGAND-PDBQT: ATOM      3  C   UNL     1       4.358  -0.375   1.836  1.00  0.00     0.101 C 
INPUT-LIGAND-PDBQT: ATOM      4  O   UNL     1       5.389   0.333   1.692  1.00  0.00    -0.313 OA
INPUT-LIGAND-PDBQT: BRANCH   3   5
INPUT-LIGAND-PDBQT: ATOM      5  C   UNL     1       3.413  -0.041   2.916  1.00  0.00     0.088 A 
INPUT-LIGAND-PDBQT: ATOM      6  C   UNL     1       2.948  -1.023   3.804  1.00  0.00     0.030 A 
INPUT-LIGAND-PDBQT: ATOM      7  N   UNL     1       3.030   1.254   3.088  1.00  0.00    -0.255 NA
INPUT-LIGAND-PDBQT: ATOM      8  C   UNL     1       2.065  -0.662   4.823  1.00  0.00     0.004 A 
INPUT-LIGAND-PDBQT: ATOM      9  C   UNL     1       2.173   1.626   4.076  1.00  0.00     0.112 A 
INPUT-LIGAND-PDBQT: ATOM     10  C   UNL     1       1.669   0.669   4.960  1.00  0.00     0.020 A 
INPUT-LIGAND-PDBQT: ENDBRANCH   3   5
INPUT-LIGAND-PDBQT: ENDBRANCH   2   3
INPUT-LIGAND-PDBQT: ENDBRANCH   1   2
INPUT-LIGAND-PDBQT: BRANCH   1  11
INPUT-LIGAND-PDBQT: ATOM     11  C   UNL     1       1.838  -1.187   0.082  1.00  0.00     0.210 C 
INPUT-LIGAND-PDBQT: BRANCH  11  12
INPUT-LIGAND-PDBQT: ATOM     12  O   UNL     1       0.621  -1.890  -0.153  1.00  0.00    -0.495 OA
INPUT-LIGAND-PDBQT: BRANCH  12  13
INPUT-LIGAND-PDBQT: ATOM     13  C   UNL     1      -0.554  -1.302  -0.643  1.00  0.00     0.119 A 
INPUT-LIGAND-PDBQT: ATOM     14  C   UNL     1      -1.696  -2.102  -0.761  1.00  0.00     0.047 A 
INPUT-LIGAND-PDBQT: ATOM     15  C   UNL     1      -0.620   0.055  -1.016  1.00  0.00     0.055 A 
INPUT-LIGAND-PDBQT: ATOM     16  C   UNL     1      -2.897  -1.569  -1.235  1.00  0.00     0.012 A 
INPUT-LIGAND-PDBQT: ATOM     17  C   UNL     1      -1.821   0.601  -1.495  1.00  0.00    -0.013 A 
INPUT-LIGAND-PDBQT: ATOM     18  C   UNL     1      -2.970  -0.218  -1.604  1.00  0.00    -0.018 A 
INPUT-LIGAND-PDBQT: ATOM     19  C   UNL     1      -1.895   1.952  -1.870  1.00  0.00     0.029 A 
INPUT-LIGAND-PDBQT: ATOM     20  C   UNL     1      -4.172   0.329  -2.078  1.00  0.00     0.010 A 
INPUT-LIGAND-PDBQT: ATOM     21  C   UNL     1      -3.099   2.486  -2.342  1.00  0.00     0.041 A 
INPUT-LIGAND-PDBQT: ATOM     22  C   UNL     1      -4.234   1.676  -2.444  1.00  0.00     0.021 A 
INPUT-LIGAND-PDBQT: ATOM     23  Cl  UNL     1      -3.184   4.175  -2.809  1.00  0.00    -0.084 Cl
INPUT-LIGAND-PDBQT: ENDBRANCH  12  13
INPUT-LIGAND-PDBQT: ENDBRANCH  11  12
INPUT-LIGAND-PDBQT: ENDBRANCH   1  11
INPUT-LIGAND-PDBQT: TORSDOF 6


    FINAL DOCKED STATE:
    ________________________


Run:   1 / 20
Time taken for this run:   0.020s

DOCKED: MODEL        1
DOCKED: USER    Run = 1
DOCKED: USER
DOCKED: USER    Estimated Free Energy of Binding    =  -7.28 kcal/mol  [=(1)+(2)+(3)-(4)]
DOCKED: USER
DOCKED: USER    (1) Final Intermolecular Energy     =  -9.07 kcal/mol
DOCKED: USER        vdW + Hbond + desolv Energy     =  -9.17 kcal/mol
DOCKED: USER        Electrostatic Energy            =  +0.10 kcal/mol
DOCKED: USER        Moving Ligand-Fixed Receptor    =  -9.07 kcal/mol
DOCKED: USER        Moving Ligand-Moving Receptor   =  +0.00 kcal/mol
DOCKED: USER    (2) Final Total Internal Energy     =  -0.53 kcal/mol
DOCKED: USER    (3) Torsional Free Energy           =  +1.79 kcal/mol
DOCKED: USER    (4) Unbound System's Energy         =  -0.53 kcal/mol
DOCKED: USER
DOCKED: USER
DOCKED: REMARK SMILES O=C([N-]CCOc1ccc2ccc(Cl)cc2c1)c1ccccn1
DOCKED: REMARK SMILES IDX 4 1 3 2 2 3 1 4 18 5 19 6 23 7 20 8 22 9 21 10 5 11 6 12
DOCKED: REMARK SMILES IDX 7 13 8 14 17 15 9 16 16 17 10 18 15 19 11 20 13 21 12 22
DOCKED: REMARK SMILES IDX 14 23
DOCKED: REMARK H PARENT
DOCKED: USER                              x       y       z     vdW  Elec       q    Type
DOCKED: USER                           _______ _______ _______ _____ _____    ______ ____
DOCKED: ROOT
DOCKED: ATOM      1  C   UNL     1     140.705  71.854 222.541 -0.28 +0.01    -0.075 C  
DOCKED: ENDROOT
DOCKED: BRANCH   1   2
DOCKED: ATOM      2  N   UNL     1     139.524  71.588 223.361 -0.04 +0.14    -0.645 NA 
DOCKED: BRANCH   2   3
DOCKED: ATOM      3  C   UNL     1     139.427  70.608 224.405 -0.35 -0.02    +0.101 C  
DOCKED: ATOM      4  O   UNL     1     138.869  69.508 224.151 -0.17 +0.05    -0.313 OA 
DOCKED: BRANCH   3   5
DOCKED: ATOM      5  C   UNL     1     139.980  70.828 225.753 -0.46 -0.01    +0.088 A  
DOCKED: ATOM      6  C   UNL     1     139.785  69.892 226.780 -0.50 -0.00    +0.030 A  
DOCKED: ATOM      7  N   UNL     1     140.741  71.932 225.987 -0.33 +0.04    -0.255 NA 
DOCKED: ATOM      8  C   UNL     1     140.338  70.132 228.039 -0.63 -0.00    +0.004 A  
DOCKED: ATOM      9  C   UNL     1     141.291  72.182 227.205 -0.70 -0.02    +0.112 A  
DOCKED: ATOM     10  C   UNL     1     141.093  71.285 228.258 -0.70 -0.00    +0.020 A  
DOCKED: ENDBRANCH   3   5
DOCKED: ENDBRANCH   2   3
DOCKED: ENDBRANCH   1   2
DOCKED: BRANCH   1  11
DOCKED: ATOM     11  C   UNL     1     140.418  72.941 221.509 -0.20 -0.03    +0.210 C  
DOCKED: BRANCH  11  12
DOCKED: ATOM     12  O   UNL     1     140.091  74.154 222.181 -0.74 +0.02    -0.495 OA 
DOCKED: BRANCH  12  13
DOCKED: ATOM     13  C   UNL     1     140.529  75.425 221.782 -0.29 -0.02    +0.119 A  
DOCKED: ATOM     14  C   UNL     1     140.721  75.662 220.416 -0.19 -0.01    +0.047 A  
DOCKED: ATOM     15  C   UNL     1     140.778  76.462 222.704 -0.20 -0.01    +0.055 A  
DOCKED: ATOM     16  C   UNL     1     141.147  76.911 219.959 -0.21 -0.01    +0.012 A  
DOCKED: ATOM     17  C   UNL     1     141.208  77.720 222.256 -0.38 +0.01    -0.013 A  
DOCKED: ATOM     18  C   UNL     1     141.393  77.947 220.871 -0.31 +0.01    -0.018 A  
DOCKED: ATOM     19  C   UNL     1     141.459  78.758 223.168 -0.55 -0.01    +0.029 A  
DOCKED: ATOM     20  C   UNL     1     141.818  79.207 220.424 -0.30 -0.01    +0.010 A  
DOCKED: ATOM     21  C   UNL     1     141.884  80.010 222.709 -0.54 -0.01    +0.041 A  
DOCKED: ATOM     22  C   UNL     1     142.061  80.233 221.341 -0.40 -0.01    +0.021 A  
DOCKED: ATOM     23  Cl  UNL     1     142.196  81.302 223.855 -0.73 +0.01    -0.084 Cl 
DOCKED: ENDBRANCH  12  13
DOCKED: ENDBRANCH  11  12
DOCKED: ENDBRANCH   1  11
DOCKED: TORSDOF 6
DOCKED: TER
DOCKED: ENDMDL
________________________________________________________________________________


    FINAL DOCKED STATE:
    ________________________


Run:   2 / 20
Time taken for this run:   0.020s

DOCKED: MODEL        2
DOCKED: USER    Run = 2
DOCKED: USER
DOCKED: USER    Estimated Free Energy of Binding    =  -7.22 kcal/mol  [=(1)+(2)+(3)-(4)]
DOCKED: USER
DOCKED: USER    (1) Final Intermolecular Energy     =  -9.01 kcal/mol
DOCKED: USER        vdW + Hbond + desolv Energy     =  -9.12 kcal/mol
DOCKED: USER        Electrostatic Energy            =  +0.12 kcal/mol
DOCKED: USER        Moving Ligand-Fixed Receptor    =  -9.01 kcal/mol
DOCKED: USER        Moving Ligand-Moving Receptor   =  +0.00 kcal/mol
DOCKED: USER    (2) Final Total Internal Energy     =  -0.58 kcal/mol
DOCKED: USER    (3) Torsional Free Energy           =  +1.79 kcal/mol
DOCKED: USER    (4) Unbound System's Energy         =  -0.58 kcal/mol
DOCKED: USER
DOCKED: USER
DOCKED: REMARK SMILES O=C([N-]CCOc1ccc2ccc(Cl)cc2c1)c1ccccn1
DOCKED: REMARK SMILES IDX 4 1 3 2 2 3 1 4 18 5 19 6 23 7 20 8 22 9 21 10 5 11 6 12
DOCKED: REMARK SMILES IDX 7 13 8 14 17 15 9 16 16 17 10 18 15 19 11 20 13 21 12 22
DOCKED: REMARK SMILES IDX 14 23
DOCKED: REMARK H PARENT
DOCKED: USER                              x       y       z     vdW  Elec       q    Type
DOCKED: USER                           _______ _______ _______ _____ _____    ______ ____
DOCKED: ROOT
DOCKED: ATOM      1  C   UNL     1     139.273  71.924 222.010 -0.20 +0.01    -0.075 C  
DOCKED: ENDROOT
DOCKED: BRANCH   1   2
DOCKED: ATOM      2  N   UNL     1     139.980  71.894 223.289 -0.08 +0.11    -0.645 NA 
DOCKED: BRANCH   2   3
DOCKED: ATOM      3  C   UNL     1     139.981  70.806 224.226 -0.37 -0.02    +0.101 C  
DOCKED: ATOM      4  O   UNL     1     139.686  69.654 223.813 -0.14 +0.06    -0.313 OA 
DOCKED: BRANCH   3   5
DOCKED: ATOM      5  C   UNL     1     140.342  70.981 225.644 -0.50 -0.01    +0.088 A  
DOCKED: ATOM      6  C   UNL     1     141.126  72.065 226.065 -0.41 -0.00    +0.030 A  
DOCKED: ATOM      7  N   UNL     1     139.857  70.105 226.566 -0.26 +0.04    -0.255 NA 
DOCKED: ATOM      8  C   UNL     1     141.432  72.203 227.420 -0.81 -0.00    +0.004 A  
DOCKED: ATOM      9  C   UNL     1     140.142  70.223 227.890 -0.54 -0.02    +0.112 A  
DOCKED: ATOM     10  C   UNL     1     140.943  71.275 228.341 -0.69 -0.00    +0.020 A  
DOCKED: ENDBRANCH   3   5
DOCKED: ENDBRANCH   2   3
DOCKED: ENDBRANCH   1   2
DOCKED: BRANCH   1  11
DOCKED: ATOM     11  C   UNL     1     138.877  73.351 221.641 -0.15 -0.05    +0.210 C  
DOCKED: BRANCH  11  12
DOCKED: ATOM     12  O   UNL     1     139.953  74.233 221.949 -0.71 +0.05    -0.495 OA 
DOCKED: BRANCH  12  13
DOCKED: ATOM     13  C   UNL     1     139.801  75.590 222.269 -0.24 -0.02    +0.119 A  
DOCKED: ATOM     14  C   UNL     1     138.508  76.125 222.288 -0.29 -0.01    +0.047 A  
DOCKED: ATOM     15  C   UNL     1     140.898  76.422 222.568 -0.23 -0.02    +0.055 A  
DOCKED: ATOM     16  C   UNL     1     138.295  77.468 222.608 -0.28 -0.00    +0.012 A  
DOCKED: ATOM     17  C   UNL     1     140.695  77.773 222.889 -0.37 +0.00    -0.013 A  
DOCKED: ATOM     18  C   UNL     1     139.382  78.300 222.911 -0.31 +0.00    -0.018 A  
DOCKED: ATOM     19  C   UNL     1     141.782  78.610 223.187 -0.54 -0.01    +0.029 A  
DOCKED: ATOM     20  C   UNL     1     139.179  79.650 223.237 -0.37 -0.00    +0.010 A  
DOCKED: ATOM     21  C   UNL     1     141.568  79.954 223.510 -0.55 -0.01    +0.041 A  
DOCKED: ATOM     22  C   UNL     1     140.269  80.471 223.536 -0.44 -0.00    +0.021 A  
DOCKED: ATOM     23  Cl  UNL     1     142.931  80.994 223.882 -0.65 +0.01    -0.084 Cl 
DOCKED: ENDBRANCH  12  13
DOCKED: ENDBRANCH  11  12
DOCKED: ENDBRANCH   1  11
DOCKED: TORSDOF 6
DOCKED: TER
DOCKED: ENDMDL
________________________________________________________________________________


    FINAL DOCKED STATE:
    ________________________


Run:   3 / 20
Time taken for this run:   0.020s

DOCKED: MODEL        3
DOCKED: USER    Run = 3
DOCKED: USER
DOCKED: USER    Estimated Free Energy of Binding    =  -7.10 kcal/mol  [=(1)+(2)+(3)-(4)]
DOCKED: USER
DOCKED: USER    (1) Final Intermolecular Energy     =  -8.89 kcal/mol
DOCKED: USER        vdW + Hbond + desolv Energy     =  -9.01 kcal/mol
DOCKED: USER        Electrostatic Energy            =  +0.12 kcal/mol
DOCKED: USER        Moving Ligand-Fixed Receptor    =  -8.89 kcal/mol
DOCKED: USER        Moving Ligand-Moving Receptor   =  +0.00 kcal/mol
DOCKED: USER    (2) Final Total Internal Energy     =  -0.51 kcal/mol
DOCKED: USER    (3) Torsional Free Energy           =  +1.79 kcal/mol
DOCKED: USER    (4) Unbound System's Energy         =  -0.51 kcal/mol
DOCKED: USER
DOCKED: USER
DOCKED: REMARK SMILES O=C([N-]CCOc1ccc2ccc(Cl)cc2c1)c1ccccn1
DOCKED: REMARK SMILES IDX 4 1 3 2 2 3 1 4 18 5 19 6 23 7 20 8 22 9 21 10 5 11 6 12
DOCKED: REMARK SMILES IDX 7 13 8 14 17 15 9 16 16 17 10 18 15 19 11 20 13 21 12 22
DOCKED: REMARK SMILES IDX 14 23
DOCKED: REMARK H PARENT
DOCKED: USER                              x       y       z     vdW  Elec       q    Type
DOCKED: USER                           _______ _______ _______ _____ _____    ______ ____
DOCKED: ROOT
DOCKED: ATOM      1  C   UNL     1     139.951  72.404 221.987 -0.26 +0.01    -0.075 C  
DOCKED: ENDROOT
DOCKED: BRANCH   1   2
DOCKED: ATOM      2  N   UNL     1     140.404  72.272 223.372 -0.13 +0.06    -0.645 NA 
DOCKED: BRANCH   2   3
DOCKED: ATOM      3  C   UNL     1     140.262  71.107 224.197 -0.38 -0.02    +0.101 C  
DOCKED: ATOM      4  O   UNL     1     139.939  70.018 223.654 -0.14 +0.05    -0.313 OA 
DOCKED: BRANCH   3   5
DOCKED: ATOM      5  C   UNL     1     140.507  71.130 225.650 -0.52 -0.01    +0.088 A  
DOCKED: ATOM      6  C   UNL     1     140.108  70.064 226.471 -0.51 -0.00    +0.030 A  
DOCKED: ATOM      7  N   UNL     1     141.182  72.179 226.194 -0.31 +0.04    -0.255 NA 
DOCKED: ATOM      8  C   UNL     1     140.372  70.118 227.841 -0.63 -0.00    +0.004 A  
DOCKED: ATOM      9  C   UNL     1     141.452  72.249 227.525 -0.70 -0.02    +0.112 A  
DOCKED: ATOM     10  C   UNL     1     141.044  71.219 228.375 -0.64 -0.00    +0.020 A  
DOCKED: ENDBRANCH   3   5
DOCKED: ENDBRANCH   2   3
DOCKED: ENDBRANCH   1   2
DOCKED: BRANCH   1  11
DOCKED: ATOM     11  C   UNL     1     140.438  73.715 221.378 -0.21 -0.03    +0.210 C  
DOCKED: BRANCH  11  12
DOCKED: ATOM     12  O   UNL     1     139.346  74.625 221.283 -0.12 +0.10    -0.495 OA 
DOCKED: BRANCH  12  13
DOCKED: ATOM     13  C   UNL     1     139.336  75.914 221.835 -0.26 -0.03    +0.119 A  
DOCKED: ATOM     14  C   UNL     1     138.099  76.503 222.122 -0.25 -0.01    +0.047 A  
DOCKED: ATOM     15  C   UNL     1     140.520  76.628 222.105 -0.37 -0.02    +0.055 A  
DOCKED: ATOM     16  C   UNL     1     138.028  77.781 222.680 -0.26 -0.00    +0.012 A  
DOCKED: ATOM     17  C   UNL     1     140.460  77.914 222.665 -0.42 +0.00    -0.013 A  
DOCKED: ATOM     18  C   UNL     1     139.203  78.495 222.956 -0.32 +0.00    -0.018 A  
DOCKED: ATOM     19  C   UNL     1     141.635  78.633 222.936 -0.52 -0.01    +0.029 A  
DOCKED: ATOM     20  C   UNL     1     139.143  79.779 223.519 -0.40 -0.00    +0.010 A  
DOCKED: ATOM     21  C   UNL     1     141.563  79.913 223.498 -0.55 -0.01    +0.041 A  
DOCKED: ATOM     22  C   UNL     1     140.320  80.482 223.789 -0.41 -0.00    +0.021 A  
DOCKED: ATOM     23  Cl  UNL     1     143.036  80.805 223.835 -0.71 +0.02    -0.084 Cl 
DOCKED: ENDBRANCH  12  13
DOCKED: ENDBRANCH  11  12
DOCKED: ENDBRANCH   1  11
DOCKED: TORSDOF 6
DOCKED: TER
DOCKED: ENDMDL
________________________________________________________________________________


    FINAL DOCKED STATE:
    ________________________


Run:   4 / 20
Time taken for this run:   0.020s

DOCKED: MODEL        4
DOCKED: USER    Run = 4
DOCKED: USER
DOCKED: USER    Estimated Free Energy of Binding    =  -7.10 kcal/mol  [=(1)+(2)+(3)-(4)]
DOCKED: USER
DOCKED: USER    (1) Final Intermolecular Energy     =  -8.89 kcal/mol
DOCKED: USER        vdW + Hbond + desolv Energy     =  -9.01 kcal/mol
DOCKED: USER        Electrostatic Energy            =  +0.12 kcal/mol
DOCKED: USER        Moving Ligand-Fixed Receptor    =  -8.89 kcal/mol
DOCKED: USER        Moving Ligand-Moving Receptor   =  +0.00 kcal/mol
DOCKED: USER    (2) Final Total Internal Energy     =  -0.57 kcal/mol
DOCKED: USER    (3) Torsional Free Energy           =  +1.79 kcal/mol
DOCKED: USER    (4) Unbound System's Energy         =  -0.57 kcal/mol
DOCKED: USER
DOCKED: USER
DOCKED: REMARK SMILES O=C([N-]CCOc1ccc2ccc(Cl)cc2c1)c1ccccn1
DOCKED: REMARK SMILES IDX 4 1 3 2 2 3 1 4 18 5 19 6 23 7 20 8 22 9 21 10 5 11 6 12
DOCKED: REMARK SMILES IDX 7 13 8 14 17 15 9 16 16 17 10 18 15 19 11 20 13 21 12 22
DOCKED: REMARK SMILES IDX 14 23
DOCKED: REMARK H PARENT
DOCKED: USER                              x       y       z     vdW  Elec       q    Type
DOCKED: USER                           _______ _______ _______ _____ _____    ______ ____
DOCKED: ROOT
DOCKED: ATOM      1  C   UNL     1     140.803  72.033 222.399 -0.25 +0.01    -0.075 C  
DOCKED: ENDROOT
DOCKED: BRANCH   1   2
DOCKED: ATOM      2  N   UNL     1     140.274  70.893 223.147 +0.04 +0.09    -0.645 NA 
DOCKED: BRANCH   2   3
DOCKED: ATOM      3  C   UNL     1     139.492  70.964 224.349 -0.36 -0.02    +0.101 C  
DOCKED: ATOM      4  O   UNL     1     138.265  71.228 224.256 -0.17 +0.08    -0.313 OA 
DOCKED: BRANCH   3   5
DOCKED: ATOM      5  C   UNL     1     140.065  70.711 225.683 -0.46 -0.01    +0.088 A  
DOCKED: ATOM      6  C   UNL     1     140.623  71.751 226.443 -0.60 -0.01    +0.030 A  
DOCKED: ATOM      7  N   UNL     1     139.999  69.457 226.208 -0.25 +0.04    -0.255 NA 
DOCKED: ATOM      8  C   UNL     1     141.141  71.472 227.708 -0.76 -0.00    +0.004 A  
DOCKED: ATOM      9  C   UNL     1     140.495  69.166 227.440 -0.52 -0.02    +0.112 A  
DOCKED: ATOM     10  C   UNL     1     141.083  70.171 228.212 -0.56 -0.00    +0.020 A  
DOCKED: ENDBRANCH   3   5
DOCKED: ENDBRANCH   2   3
DOCKED: ENDBRANCH   1   2
DOCKED: BRANCH   1  11
DOCKED: ATOM     11  C   UNL     1     139.745  73.122 222.245 -0.17 -0.03    +0.210 C  
DOCKED: BRANCH  11  12
DOCKED: ATOM     12  O   UNL     1     140.341  74.280 221.667 -0.50 +0.06    -0.495 OA 
DOCKED: BRANCH  12  13
DOCKED: ATOM     13  C   UNL     1     140.046  75.597 222.044 -0.27 -0.02    +0.119 A  
DOCKED: ATOM     14  C   UNL     1     138.702  75.983 222.108 -0.28 -0.01    +0.047 A  
DOCKED: ATOM     15  C   UNL     1     141.049  76.536 222.358 -0.33 -0.02    +0.055 A  
DOCKED: ATOM     16  C   UNL     1     138.347  77.280 222.485 -0.28 -0.00    +0.012 A  
DOCKED: ATOM     17  C   UNL     1     140.704  77.842 222.737 -0.44 +0.00    -0.013 A  
DOCKED: ATOM     18  C   UNL     1     139.340  78.217 222.803 -0.31 +0.00    -0.018 A  
DOCKED: ATOM     19  C   UNL     1     141.697  78.784 223.050 -0.54 -0.01    +0.029 A  
DOCKED: ATOM     20  C   UNL     1     138.995  79.522 223.187 -0.35 -0.00    +0.010 A  
DOCKED: ATOM     21  C   UNL     1     141.340  80.082 223.431 -0.52 -0.01    +0.041 A  
DOCKED: ATOM     22  C   UNL     1     139.993  80.448 223.500 -0.43 -0.00    +0.021 A  
DOCKED: ATOM     23  Cl  UNL     1     142.587  81.253 223.821 -0.68 +0.01    -0.084 Cl 
DOCKED: ENDBRANCH  12  13
DOCKED: ENDBRANCH  11  12
DOCKED: ENDBRANCH   1  11
DOCKED: TORSDOF 6
DOCKED: TER
DOCKED: ENDMDL
________________________________________________________________________________


    FINAL DOCKED STATE:
    ________________________


Run:   5 / 20
Time taken for this run:   0.020s

DOCKED: MODEL        5
DOCKED: USER    Run = 5
DOCKED: USER
DOCKED: USER    Estimated Free Energy of Binding    =  -7.23 kcal/mol  [=(1)+(2)+(3)-(4)]
DOCKED: USER
DOCKED: USER    (1) Final Intermolecular Energy     =  -9.02 kcal/mol
DOCKED: USER        vdW + Hbond + desolv Energy     =  -9.14 kcal/mol
DOCKED: USER        Electrostatic Energy            =  +0.12 kcal/mol
DOCKED: USER        Moving Ligand-Fixed Receptor    =  -9.02 kcal/mol
DOCKED: USER        Moving Ligand-Moving Receptor   =  +0.00 kcal/mol
DOCKED: USER    (2) Final Total Internal Energy     =  -0.51 kcal/mol
DOCKED: USER    (3) Torsional Free Energy           =  +1.79 kcal/mol
DOCKED: USER    (4) Unbound System's Energy         =  -0.51 kcal/mol
DOCKED: USER
DOCKED: USER
DOCKED: REMARK SMILES O=C([N-]CCOc1ccc2ccc(Cl)cc2c1)c1ccccn1
DOCKED: REMARK SMILES IDX 4 1 3 2 2 3 1 4 18 5 19 6 23 7 20 8 22 9 21 10 5 11 6 12
DOCKED: REMARK SMILES IDX 7 13 8 14 17 15 9 16 16 17 10 18 15 19 11 20 13 21 12 22
DOCKED: REMARK SMILES IDX 14 23
DOCKED: REMARK H PARENT
DOCKED: USER                              x       y       z     vdW  Elec       q    Type
DOCKED: USER                           _______ _______ _______ _____ _____    ______ ____
DOCKED: ROOT
DOCKED: ATOM      1  C   UNL     1     140.309  72.223 221.989 -0.27 +0.01    -0.075 C  
DOCKED: ENDROOT
DOCKED: BRANCH   1   2
DOCKED: ATOM      2  N   UNL     1     140.714  71.773 223.320 -0.02 +0.05    -0.645 NA 
DOCKED: BRANCH   2   3
DOCKED: ATOM      3  C   UNL     1     139.918  70.992 224.223 -0.38 -0.02    +0.101 C  
DOCKED: ATOM      4  O   UNL     1     138.885  70.425 223.782 -0.16 +0.06    -0.313 OA 
DOCKED: BRANCH   3   5
DOCKED: ATOM      5  C   UNL     1     140.279  70.806 225.640 -0.49 -0.01    +0.088 A  
DOCKED: ATOM      6  C   UNL     1     140.768  71.872 226.411 -0.63 -0.00    +0.030 A  
DOCKED: ATOM      7  N   UNL     1     140.080  69.593 226.223 -0.26 +0.04    -0.255 NA 
DOCKED: ATOM      8  C   UNL     1     141.084  71.658 227.753 -0.82 -0.00    +0.004 A  
DOCKED: ATOM      9  C   UNL     1     140.380  69.365 227.530 -0.52 -0.02    +0.112 A  
DOCKED: ATOM     10  C   UNL     1     140.895  70.396 228.319 -0.55 -0.00    +0.020 A  
DOCKED: ENDBRANCH   3   5
DOCKED: ENDBRANCH   2   3
DOCKED: ENDBRANCH   1   2
DOCKED: BRANCH   1  11
DOCKED: ATOM     11  C   UNL     1     140.680  73.687 221.773 -0.17 -0.01    +0.210 C  
DOCKED: BRANCH  11  12
DOCKED: ATOM     12  O   UNL     1     139.505  74.488 221.859 -0.45 +0.09    -0.495 OA 
DOCKED: BRANCH  12  13
DOCKED: ATOM     13  C   UNL     1     139.491  75.841 222.228 -0.29 -0.02    +0.119 A  
DOCKED: ATOM     14  C   UNL     1     138.254  76.486 222.336 -0.28 -0.01    +0.047 A  
DOCKED: ATOM     15  C   UNL     1     140.672  76.563 222.492 -0.33 -0.02    +0.055 A  
DOCKED: ATOM     16  C   UNL     1     138.179  77.830 222.709 -0.27 -0.00    +0.012 A  
DOCKED: ATOM     17  C   UNL     1     140.608  77.915 222.865 -0.39 +0.00    -0.013 A  
DOCKED: ATOM     18  C   UNL     1     139.350  78.553 222.976 -0.33 +0.00    -0.018 A  
DOCKED: ATOM     19  C   UNL     1     141.780  78.642 223.128 -0.55 -0.01    +0.029 A  
DOCKED: ATOM     20  C   UNL     1     139.286  79.903 223.355 -0.39 -0.00    +0.010 A  
DOCKED: ATOM     21  C   UNL     1     141.703  79.988 223.504 -0.57 -0.01    +0.041 A  
DOCKED: ATOM     22  C   UNL     1     140.459  80.615 223.618 -0.43 -0.00    +0.021 A  
DOCKED: ATOM     23  Cl  UNL     1     143.172  80.890 223.831 -0.62 +0.02    -0.084 Cl 
DOCKED: ENDBRANCH  12  13
DOCKED: ENDBRANCH  11  12
DOCKED: ENDBRANCH   1  11
DOCKED: TORSDOF 6
DOCKED: TER
DOCKED: ENDMDL
________________________________________________________________________________


    FINAL DOCKED STATE:
    ________________________


Run:   6 / 20
Time taken for this run:   0.020s

DOCKED: MODEL        6
DOCKED: USER    Run = 6
DOCKED: USER
DOCKED: USER    Estimated Free Energy of Binding    =  -7.46 kcal/mol  [=(1)+(2)+(3)-(4)]
DOCKED: USER
DOCKED: USER    (1) Final Intermolecular Energy     =  -9.25 kcal/mol
DOCKED: USER        vdW + Hbond + desolv Energy     =  -9.27 kcal/mol
DOCKED: USER        Electrostatic Energy            =  +0.02 kcal/mol
DOCKED: USER        Moving Ligand-Fixed Receptor    =  -9.25 kcal/mol
DOCKED: USER        Moving Ligand-Moving Receptor   =  +0.00 kcal/mol
DOCKED: USER    (2) Final Total Internal Energy     =  -0.51 kcal/mol
DOCKED: USER    (3) Torsional Free Energy           =  +1.79 kcal/mol
DOCKED: USER    (4) Unbound System's Energy         =  -0.51 kcal/mol
DOCKED: USER
DOCKED: USER
DOCKED: REMARK SMILES O=C([N-]CCOc1ccc2ccc(Cl)cc2c1)c1ccccn1
DOCKED: REMARK SMILES IDX 4 1 3 2 2 3 1 4 18 5 19 6 23 7 20 8 22 9 21 10 5 11 6 12
DOCKED: REMARK SMILES IDX 7 13 8 14 17 15 9 16 16 17 10 18 15 19 11 20 13 21 12 22
DOCKED: REMARK SMILES IDX 14 23
DOCKED: REMARK H PARENT
DOCKED: USER                              x       y       z     vdW  Elec       q    Type
DOCKED: USER                           _______ _______ _______ _____ _____    ______ ____
DOCKED: ROOT
DOCKED: ATOM      1  C   UNL     1     140.484  72.131 221.894 -0.26 +0.01    -0.075 C  
DOCKED: ENDROOT
DOCKED: BRANCH   1   2
DOCKED: ATOM      2  N   UNL     1     140.137  72.179 223.314 -0.12 +0.10    -0.645 NA 
DOCKED: BRANCH   2   3
DOCKED: ATOM      3  C   UNL     1     140.016  71.049 224.190 -0.38 -0.02    +0.101 C  
DOCKED: ATOM      4  O   UNL     1     139.645  69.947 223.707 -0.15 +0.06    -0.313 OA 
DOCKED: BRANCH   3   5
DOCKED: ATOM      5  C   UNL     1     140.337  71.122 225.627 -0.50 -0.01    +0.088 A  
DOCKED: ATOM      6  C   UNL     1     139.949  70.104 226.511 -0.50 -0.00    +0.030 A  
DOCKED: ATOM      7  N   UNL     1     141.072  72.170 226.092 -0.28 +0.04    -0.255 NA 
DOCKED: ATOM      8  C   UNL     1     140.286  70.205 227.861 -0.64 -0.00    +0.004 A  
DOCKED: ATOM      9  C   UNL     1     141.412  72.284 227.403 -0.70 -0.02    +0.112 A  
DOCKED: ATOM     10  C   UNL     1     141.018  71.302 228.315 -0.70 -0.00    +0.020 A  
DOCKED: ENDBRANCH   3   5
DOCKED: ENDBRANCH   2   3
DOCKED: ENDBRANCH   1   2
DOCKED: BRANCH   1  11
DOCKED: ATOM     11  C   UNL     1     140.190  73.466 221.216 -0.18 -0.03    +0.210 C  
DOCKED: BRANCH  11  12
DOCKED: ATOM     12  O   UNL     1     140.377  74.522 222.154 -0.66 -0.00    -0.495 OA 
DOCKED: BRANCH  12  13
DOCKED: ATOM     13  C   UNL     1     140.746  75.831 221.813 -0.31 -0.03    +0.119 A  
DOCKED: ATOM     14  C   UNL     1     140.863  76.155 220.457 -0.21 -0.02    +0.047 A  
DOCKED: ATOM     15  C   UNL     1     140.999  76.821 222.783 -0.24 -0.02    +0.055 A  
DOCKED: ATOM     16  C   UNL     1     141.219  77.445 220.057 -0.23 -0.01    +0.012 A  
DOCKED: ATOM     17  C   UNL     1     141.358  78.121 222.393 -0.43 +0.01    -0.013 A  
DOCKED: ATOM     18  C   UNL     1     141.468  78.435 221.018 -0.33 +0.01    -0.018 A  
DOCKED: ATOM     19  C   UNL     1     141.613  79.113 223.354 -0.57 -0.01    +0.029 A  
DOCKED: ATOM     20  C   UNL     1     141.823  79.736 220.628 -0.34 -0.01    +0.010 A  
DOCKED: ATOM     21  C   UNL     1     141.967  80.405 222.953 -0.56 -0.01    +0.041 A  
DOCKED: ATOM     22  C   UNL     1     142.070  80.715 221.593 -0.42 -0.01    +0.021 A  
DOCKED: ATOM     23  Cl  UNL     1     142.284  81.640 224.158 -0.54 +0.01    -0.084 Cl 
DOCKED: ENDBRANCH  12  13
DOCKED: ENDBRANCH  11  12
DOCKED: ENDBRANCH   1  11
DOCKED: TORSDOF 6
DOCKED: TER
DOCKED: ENDMDL
________________________________________________________________________________


    FINAL DOCKED STATE:
    ________________________


Run:   7 / 20
Time taken for this run:   0.020s

DOCKED: MODEL        7
DOCKED: USER    Run = 7
DOCKED: USER
DOCKED: USER    Estimated Free Energy of Binding    =  -7.36 kcal/mol  [=(1)+(2)+(3)-(4)]
DOCKED: USER
DOCKED: USER    (1) Final Intermolecular Energy     =  -9.15 kcal/mol
DOCKED: USER        vdW + Hbond + desolv Energy     =  -9.26 kcal/mol
DOCKED: USER        Electrostatic Energy            =  +0.11 kcal/mol
DOCKED: USER        Moving Ligand-Fixed Receptor    =  -9.15 kcal/mol
DOCKED: USER        Moving Ligand-Moving Receptor   =  +0.00 kcal/mol
DOCKED: USER    (2) Final Total Internal Energy     =  -0.56 kcal/mol
DOCKED: USER    (3) Torsional Free Energy           =  +1.79 kcal/mol
DOCKED: USER    (4) Unbound System's Energy         =  -0.56 kcal/mol
DOCKED: USER
DOCKED: USER
DOCKED: REMARK SMILES O=C([N-]CCOc1ccc2ccc(Cl)cc2c1)c1ccccn1
DOCKED: REMARK SMILES IDX 4 1 3 2 2 3 1 4 18 5 19 6 23 7 20 8 22 9 21 10 5 11 6 12
DOCKED: REMARK SMILES IDX 7 13 8 14 17 15 9 16 16 17 10 18 15 19 11 20 13 21 12 22
DOCKED: REMARK SMILES IDX 14 23
DOCKED: REMARK H PARENT
DOCKED: USER                              x       y       z     vdW  Elec       q    Type
DOCKED: USER                           _______ _______ _______ _____ _____    ______ ____
DOCKED: ROOT
DOCKED: ATOM      1  C   UNL     1     140.674  72.215 222.150 -0.28 +0.01    -0.075 C  
DOCKED: ENDROOT
DOCKED: BRANCH   1   2
DOCKED: ATOM      2  N   UNL     1     140.526  72.242 223.604 -0.04 +0.06    -0.645 NA 
DOCKED: BRANCH   2   3
DOCKED: ATOM      3  C   UNL     1     139.843  71.262 224.400 -0.37 -0.02    +0.101 C  
DOCKED: ATOM      4  O   UNL     1     138.845  70.673 223.907 -0.18 +0.06    -0.313 OA 
DOCKED: BRANCH   3   5
DOCKED: ATOM      5  C   UNL     1     140.281  70.899 225.759 -0.50 -0.01    +0.088 A  
DOCKED: ATOM      6  C   UNL     1     140.707  71.877 226.671 -0.66 -0.01    +0.030 A  
DOCKED: ATOM      7  N   UNL     1     140.216  69.598 226.154 -0.26 +0.04    -0.255 NA 
DOCKED: ATOM      8  C   UNL     1     141.099  71.493 227.954 -0.80 -0.00    +0.004 A  
DOCKED: ATOM      9  C   UNL     1     140.591  69.204 227.400 -0.52 -0.02    +0.112 A  
DOCKED: ATOM     10  C   UNL     1     141.047  70.149 228.323 -0.55 -0.00    +0.020 A  
DOCKED: ENDBRANCH   3   5
DOCKED: ENDBRANCH   2   3
DOCKED: ENDBRANCH   1   2
DOCKED: BRANCH   1  11
DOCKED: ATOM     11  C   UNL     1     140.869  73.623 221.596 -0.21 -0.02    +0.210 C  
DOCKED: BRANCH  11  12
DOCKED: ATOM     12  O   UNL     1     139.651  74.352 221.723 -0.40 +0.08    -0.495 OA 
DOCKED: BRANCH  12  13
DOCKED: ATOM     13  C   UNL     1     139.564  75.689 222.135 -0.28 -0.02    +0.119 A  
DOCKED: ATOM     14  C   UNL     1     138.294  76.256 222.284 -0.27 -0.01    +0.047 A  
DOCKED: ATOM     15  C   UNL     1     140.705  76.472 222.403 -0.36 -0.02    +0.055 A  
DOCKED: ATOM     16  C   UNL     1     138.146  77.581 222.701 -0.28 -0.00    +0.012 A  
DOCKED: ATOM     17  C   UNL     1     140.568  77.804 222.821 -0.38 +0.00    -0.013 A  
DOCKED: ATOM     18  C   UNL     1     139.277  78.364 222.972 -0.31 +0.00    -0.018 A  
DOCKED: ATOM     19  C   UNL     1     141.700  78.592 223.088 -0.53 -0.01    +0.029 A  
DOCKED: ATOM     20  C   UNL     1     139.140  79.694 223.395 -0.38 -0.00    +0.010 A  
DOCKED: ATOM     21  C   UNL     1     141.551  79.918 223.508 -0.55 -0.01    +0.041 A  
DOCKED: ATOM     22  C   UNL     1     140.274  80.466 223.662 -0.42 -0.00    +0.021 A  
DOCKED: ATOM     23  Cl  UNL     1     142.969  80.895 223.840 -0.73 +0.02    -0.084 Cl 
DOCKED: ENDBRANCH  12  13
DOCKED: ENDBRANCH  11  12
DOCKED: ENDBRANCH   1  11
DOCKED: TORSDOF 6
DOCKED: TER
DOCKED: ENDMDL
________________________________________________________________________________


    FINAL DOCKED STATE:
    ________________________


Run:   8 / 20
Time taken for this run:   0.020s

DOCKED: MODEL        8
DOCKED: USER    Run = 8
DOCKED: USER
DOCKED: USER    Estimated Free Energy of Binding    =  -6.60 kcal/mol  [=(1)+(2)+(3)-(4)]
DOCKED: USER
DOCKED: USER    (1) Final Intermolecular Energy     =  -8.39 kcal/mol
DOCKED: USER        vdW + Hbond + desolv Energy     =  -8.45 kcal/mol
DOCKED: USER        Electrostatic Energy            =  +0.06 kcal/mol
DOCKED: USER        Moving Ligand-Fixed Receptor    =  -8.39 kcal/mol
DOCKED: USER        Moving Ligand-Moving Receptor   =  +0.00 kcal/mol
DOCKED: USER    (2) Final Total Internal Energy     =  -0.93 kcal/mol
DOCKED: USER    (3) Torsional Free Energy           =  +1.79 kcal/mol
DOCKED: USER    (4) Unbound System's Energy         =  -0.93 kcal/mol
DOCKED: USER
DOCKED: USER
DOCKED: REMARK SMILES O=C([N-]CCOc1ccc2ccc(Cl)cc2c1)c1ccccn1
DOCKED: REMARK SMILES IDX 4 1 3 2 2 3 1 4 18 5 19 6 23 7 20 8 22 9 21 10 5 11 6 12
DOCKED: REMARK SMILES IDX 7 13 8 14 17 15 9 16 16 17 10 18 15 19 11 20 13 21 12 22
DOCKED: REMARK SMILES IDX 14 23
DOCKED: REMARK H PARENT
DOCKED: USER                              x       y       z     vdW  Elec       q    Type
DOCKED: USER                           _______ _______ _______ _____ _____    ______ ____
DOCKED: ROOT
DOCKED: ATOM      1  C   UNL     1     139.163  69.137 222.802 -0.17 +0.01    -0.075 C  
DOCKED: ENDROOT
DOCKED: BRANCH   1   2
DOCKED: ATOM      2  N   UNL     1     138.549  68.612 224.021 -0.05 +0.06    -0.645 NA 
DOCKED: BRANCH   2   3
DOCKED: ATOM      3  C   UNL     1     139.183  68.502 225.304 -0.40 -0.01    +0.101 C  
DOCKED: ATOM      4  O   UNL     1     139.225  67.374 225.862 -0.89 -0.00    -0.313 OA 
DOCKED: BRANCH   3   5
DOCKED: ATOM      5  C   UNL     1     139.811  69.651 225.979 -0.41 -0.01    +0.088 A  
DOCKED: ATOM      6  C   UNL     1     139.768  69.787 227.375 -0.55 -0.00    +0.030 A  
DOCKED: ATOM      7  N   UNL     1     140.493  70.567 225.237 -0.28 +0.04    -0.255 NA 
DOCKED: ATOM      8  C   UNL     1     140.388  70.883 227.976 -0.71 -0.00    +0.004 A  
DOCKED: ATOM      9  C   UNL     1     141.106  71.640 225.804 -0.50 -0.01    +0.112 A  
DOCKED: ATOM     10  C   UNL     1     141.058  71.820 227.189 -0.79 -0.00    +0.020 A  
DOCKED: ENDBRANCH   3   5
DOCKED: ENDBRANCH   2   3
DOCKED: ENDBRANCH   1   2
DOCKED: BRANCH   1  11
DOCKED: ATOM     11  C   UNL     1     138.405  70.360 222.295 -0.11 -0.04    +0.210 C  
DOCKED: BRANCH  11  12
DOCKED: ATOM     12  O   UNL     1     138.954  71.534 222.886 -0.09 +0.12    -0.495 OA 
DOCKED: BRANCH  12  13
DOCKED: ATOM     13  C   UNL     1     139.839  72.410 222.240 -0.25 -0.02    +0.119 A  
DOCKED: ATOM     14  C   UNL     1     139.404  73.713 221.973 -0.25 -0.01    +0.047 A  
DOCKED: ATOM     15  C   UNL     1     141.138  72.023 221.857 -0.24 -0.00    +0.055 A  
DOCKED: ATOM     16  C   UNL     1     140.244  74.632 221.340 -0.28 -0.00    +0.012 A  
DOCKED: ATOM     17  C   UNL     1     141.990  72.938 221.218 -0.24 +0.00    -0.013 A  
DOCKED: ATOM     18  C   UNL     1     141.540  74.254 220.959 -0.28 +0.00    -0.018 A  
DOCKED: ATOM     19  C   UNL     1     143.286  72.560 220.831 -0.29 -0.00    +0.029 A  
DOCKED: ATOM     20  C   UNL     1     142.393  75.169 220.325 -0.30 -0.00    +0.010 A  
DOCKED: ATOM     21  C   UNL     1     144.128  73.482 220.200 -0.38 -0.01    +0.041 A  
DOCKED: ATOM     22  C   UNL     1     143.682  74.783 219.949 -0.40 -0.01    +0.021 A  
DOCKED: ATOM     23  Cl  UNL     1     145.746  73.003 219.719 -0.59 -0.02    -0.084 Cl 
DOCKED: ENDBRANCH  12  13
DOCKED: ENDBRANCH  11  12
DOCKED: ENDBRANCH   1  11
DOCKED: TORSDOF 6
DOCKED: TER
DOCKED: ENDMDL
________________________________________________________________________________


    FINAL DOCKED STATE:
    ________________________


Run:   9 / 20
Time taken for this run:   0.020s

DOCKED: MODEL        9
DOCKED: USER    Run = 9
DOCKED: USER
DOCKED: USER    Estimated Free Energy of Binding    =  -7.52 kcal/mol  [=(1)+(2)+(3)-(4)]
DOCKED: USER
DOCKED: USER    (1) Final Intermolecular Energy     =  -9.31 kcal/mol
DOCKED: USER        vdW + Hbond + desolv Energy     =  -9.34 kcal/mol
DOCKED: USER        Electrostatic Energy            =  +0.03 kcal/mol
DOCKED: USER        Moving Ligand-Fixed Receptor    =  -9.31 kcal/mol
DOCKED: USER        Moving Ligand-Moving Receptor   =  +0.00 kcal/mol
DOCKED: USER    (2) Final Total Internal Energy     =  -0.50 kcal/mol
DOCKED: USER    (3) Torsional Free Energy           =  +1.79 kcal/mol
DOCKED: USER    (4) Unbound System's Energy         =  -0.50 kcal/mol
DOCKED: USER
DOCKED: USER
DOCKED: REMARK SMILES O=C([N-]CCOc1ccc2ccc(Cl)cc2c1)c1ccccn1
DOCKED: REMARK SMILES IDX 4 1 3 2 2 3 1 4 18 5 19 6 23 7 20 8 22 9 21 10 5 11 6 12
DOCKED: REMARK SMILES IDX 7 13 8 14 17 15 9 16 16 17 10 18 15 19 11 20 13 21 12 22
DOCKED: REMARK SMILES IDX 14 23
DOCKED: REMARK H PARENT
DOCKED: USER                              x       y       z     vdW  Elec       q    Type
DOCKED: USER                           _______ _______ _______ _____ _____    ______ ____
DOCKED: ROOT
DOCKED: ATOM      1  C   UNL     1     140.389  72.107 221.922 -0.26 +0.01    -0.075 C  
DOCKED: ENDROOT
DOCKED: BRANCH   1   2
DOCKED: ATOM      2  N   UNL     1     140.281  72.220 223.376 -0.14 +0.08    -0.645 NA 
DOCKED: BRANCH   2   3
DOCKED: ATOM      3  C   UNL     1     139.916  71.165 224.278 -0.39 -0.02    +0.101 C  
DOCKED: ATOM      4  O   UNL     1     139.259  70.189 223.831 -0.16 +0.06    -0.313 OA 
DOCKED: BRANCH   3   5
DOCKED: ATOM      5  C   UNL     1     140.305  71.168 225.699 -0.50 -0.01    +0.088 A  
DOCKED: ATOM      6  C   UNL     1     140.007  70.082 226.536 -0.51 -0.00    +0.030 A  
DOCKED: ATOM      7  N   UNL     1     141.017  72.218 226.192 -0.28 +0.04    -0.255 NA 
DOCKED: ATOM      8  C   UNL     1     140.406  70.117 227.873 -0.63 -0.00    +0.004 A  
DOCKED: ATOM      9  C   UNL     1     141.417  72.270 227.491 -0.71 -0.02    +0.112 A  
DOCKED: ATOM     10  C   UNL     1     141.112  71.219 228.358 -0.65 -0.00    +0.020 A  
DOCKED: ENDBRANCH   3   5
DOCKED: ENDBRANCH   2   3
DOCKED: ENDBRANCH   1   2
DOCKED: BRANCH   1  11
DOCKED: ATOM     11  C   UNL     1     141.000  73.370 221.322 -0.20 -0.03    +0.210 C  
DOCKED: BRANCH  11  12
DOCKED: ATOM     12  O   UNL     1     140.480  74.511 221.998 -0.67 +0.02    -0.495 OA 
DOCKED: BRANCH  12  13
DOCKED: ATOM     13  C   UNL     1     140.824  75.837 221.698 -0.31 -0.03    +0.119 A  
DOCKED: ATOM     14  C   UNL     1     140.929  76.207 220.352 -0.20 -0.02    +0.047 A  
DOCKED: ATOM     15  C   UNL     1     141.065  76.799 222.699 -0.31 -0.02    +0.055 A  
DOCKED: ATOM     16  C   UNL     1     141.260  77.515 219.993 -0.23 -0.01    +0.012 A  
DOCKED: ATOM     17  C   UNL     1     141.400  78.117 222.350 -0.42 +0.01    -0.013 A  
DOCKED: ATOM     18  C   UNL     1     141.497  78.478 220.985 -0.33 +0.01    -0.018 A  
DOCKED: ATOM     19  C   UNL     1     141.643  79.081 223.341 -0.57 -0.01    +0.029 A  
DOCKED: ATOM     20  C   UNL     1     141.827  79.797 220.636 -0.34 -0.01    +0.010 A  
DOCKED: ATOM     21  C   UNL     1     141.972  80.393 222.981 -0.56 -0.01    +0.041 A  
DOCKED: ATOM     22  C   UNL     1     142.062  80.748 221.632 -0.43 -0.01    +0.021 A  
DOCKED: ATOM     23  Cl  UNL     1     142.274  81.592 224.225 -0.54 +0.01    -0.084 Cl 
DOCKED: ENDBRANCH  12  13
DOCKED: ENDBRANCH  11  12
DOCKED: ENDBRANCH   1  11
DOCKED: TORSDOF 6
DOCKED: TER
DOCKED: ENDMDL
________________________________________________________________________________


    FINAL DOCKED STATE:
    ________________________


Run:   10 / 20
Time taken for this run:   0.020s

DOCKED: MODEL        10
DOCKED: USER    Run = 10
DOCKED: USER
DOCKED: USER    Estimated Free Energy of Binding    =  -7.28 kcal/mol  [=(1)+(2)+(3)-(4)]
DOCKED: USER
DOCKED: USER    (1) Final Intermolecular Energy     =  -9.07 kcal/mol
DOCKED: USER        vdW + Hbond + desolv Energy     =  -9.18 kcal/mol
DOCKED: USER        Electrostatic Energy            =  +0.11 kcal/mol
DOCKED: USER        Moving Ligand-Fixed Receptor    =  -9.07 kcal/mol
DOCKED: USER        Moving Ligand-Moving Receptor   =  +0.00 kcal/mol
DOCKED: USER    (2) Final Total Internal Energy     =  -0.46 kcal/mol
DOCKED: USER    (3) Torsional Free Energy           =  +1.79 kcal/mol
DOCKED: USER    (4) Unbound System's Energy         =  -0.46 kcal/mol
DOCKED: USER
DOCKED: USER
DOCKED: REMARK SMILES O=C([N-]CCOc1ccc2ccc(Cl)cc2c1)c1ccccn1
DOCKED: REMARK SMILES IDX 4 1 3 2 2 3 1 4 18 5 19 6 23 7 20 8 22 9 21 10 5 11 6 12
DOCKED: REMARK SMILES IDX 7 13 8 14 17 15 9 16 16 17 10 18 15 19 11 20 13 21 12 22
DOCKED: REMARK SMILES IDX 14 23
DOCKED: REMARK H PARENT
DOCKED: USER                              x       y       z     vdW  Elec       q    Type
DOCKED: USER                           _______ _______ _______ _____ _____    ______ ____
DOCKED: ROOT
DOCKED: ATOM      1  C   UNL     1     140.714  72.253 222.860 -0.22 +0.00    -0.075 C  
DOCKED: ENDROOT
DOCKED: BRANCH   1   2
DOCKED: ATOM      2  N   UNL     1     139.687  71.259 223.166 -0.02 +0.12    -0.645 NA 
DOCKED: BRANCH   2   3
DOCKED: ATOM      3  C   UNL     1     139.700  70.347 224.275 -0.33 -0.02    +0.101 C  
DOCKED: ATOM      4  O   UNL     1     139.343  69.156 224.081 -0.17 +0.05    -0.313 OA 
DOCKED: BRANCH   3   5
DOCKED: ATOM      5  C   UNL     1     140.142  70.746 225.623 -0.47 -0.01    +0.088 A  
DOCKED: ATOM      6  C   UNL     1     139.805  69.985 226.753 -0.49 -0.00    +0.030 A  
DOCKED: ATOM      7  N   UNL     1     140.939  71.840 225.765 -0.35 +0.03    -0.255 NA 
DOCKED: ATOM      8  C   UNL     1     140.256  70.389 228.010 -0.65 -0.00    +0.004 A  
DOCKED: ATOM      9  C   UNL     1     141.391  72.248 226.981 -0.66 -0.02    +0.112 A  
DOCKED: ATOM     10  C   UNL     1     141.051  71.529 228.130 -0.77 -0.00    +0.020 A  
DOCKED: ENDBRANCH   3   5
DOCKED: ENDBRANCH   2   3
DOCKED: ENDBRANCH   1   2
DOCKED: BRANCH   1  11
DOCKED: ATOM     11  C   UNL     1     140.300  73.115 221.671 -0.21 -0.03    +0.210 C  
DOCKED: BRANCH  11  12
DOCKED: ATOM     12  O   UNL     1     139.802  74.363 222.145 -0.68 +0.05    -0.495 OA 
DOCKED: BRANCH  12  13
DOCKED: ATOM     13  C   UNL     1     140.316  75.615 221.776 -0.30 -0.02    +0.119 A  
DOCKED: ATOM     14  C   UNL     1     140.485  75.886 220.413 -0.18 -0.01    +0.047 A  
DOCKED: ATOM     15  C   UNL     1     140.663  76.597 222.724 -0.25 -0.01    +0.055 A  
DOCKED: ATOM     16  C   UNL     1     140.984  77.119 219.986 -0.20 -0.00    +0.012 A  
DOCKED: ATOM     17  C   UNL     1     141.167  77.839 222.306 -0.42 +0.01    -0.013 A  
DOCKED: ATOM     18  C   UNL     1     141.327  78.102 220.925 -0.31 +0.01    -0.018 A  
DOCKED: ATOM     19  C   UNL     1     141.516  78.823 223.245 -0.56 -0.01    +0.029 A  
DOCKED: ATOM     20  C   UNL     1     141.826  79.345 220.507 -0.31 -0.01    +0.010 A  
DOCKED: ATOM     21  C   UNL     1     142.014  80.059 222.816 -0.56 -0.01    +0.041 A  
DOCKED: ATOM     22  C   UNL     1     142.167  80.318 221.451 -0.41 -0.01    +0.021 A  
DOCKED: ATOM     23  Cl  UNL     1     142.448  81.284 223.994 -0.67 +0.01    -0.084 Cl 
DOCKED: ENDBRANCH  12  13
DOCKED: ENDBRANCH  11  12
DOCKED: ENDBRANCH   1  11
DOCKED: TORSDOF 6
DOCKED: TER
DOCKED: ENDMDL
________________________________________________________________________________


    FINAL DOCKED STATE:
    ________________________


Run:   11 / 20
Time taken for this run:   0.020s

DOCKED: MODEL        11
DOCKED: USER    Run = 11
DOCKED: USER
DOCKED: USER    Estimated Free Energy of Binding    =  -7.51 kcal/mol  [=(1)+(2)+(3)-(4)]
DOCKED: USER
DOCKED: USER    (1) Final Intermolecular Energy     =  -9.30 kcal/mol
DOCKED: USER        vdW + Hbond + desolv Energy     =  -9.32 kcal/mol
DOCKED: USER        Electrostatic Energy            =  +0.02 kcal/mol
DOCKED: USER        Moving Ligand-Fixed Receptor    =  -9.30 kcal/mol
DOCKED: USER        Moving Ligand-Moving Receptor   =  +0.00 kcal/mol
DOCKED: USER    (2) Final Total Internal Energy     =  -0.47 kcal/mol
DOCKED: USER    (3) Torsional Free Energy           =  +1.79 kcal/mol
DOCKED: USER    (4) Unbound System's Energy         =  -0.47 kcal/mol
DOCKED: USER
DOCKED: USER
DOCKED: REMARK SMILES O=C([N-]CCOc1ccc2ccc(Cl)cc2c1)c1ccccn1
DOCKED: REMARK SMILES IDX 4 1 3 2 2 3 1 4 18 5 19 6 23 7 20 8 22 9 21 10 5 11 6 12
DOCKED: REMARK SMILES IDX 7 13 8 14 17 15 9 16 16 17 10 18 15 19 11 20 13 21 12 22
DOCKED: REMARK SMILES IDX 14 23
DOCKED: REMARK H PARENT
DOCKED: USER                              x       y       z     vdW  Elec       q    Type
DOCKED: USER                           _______ _______ _______ _____ _____    ______ ____
DOCKED: ROOT
DOCKED: ATOM      1  C   UNL     1     140.123  72.123 221.939 -0.25 +0.01    -0.075 C  
DOCKED: ENDROOT
DOCKED: BRANCH   1   2
DOCKED: ATOM      2  N   UNL     1     140.681  71.729 223.233 -0.03 +0.06    -0.645 NA 
DOCKED: BRANCH   2   3
DOCKED: ATOM      3  C   UNL     1     140.011  70.956 224.239 -0.38 -0.02    +0.101 C  
DOCKED: ATOM      4  O   UNL     1     139.125  70.136 223.880 -0.16 +0.06    -0.313 OA 
DOCKED: BRANCH   3   5
DOCKED: ATOM      5  C   UNL     1     140.340  71.064 225.671 -0.50 -0.01    +0.088 A  
DOCKED: ATOM      6  C   UNL     1     139.952  70.070 226.583 -0.51 -0.00    +0.030 A  
DOCKED: ATOM      7  N   UNL     1     141.083  72.119 226.106 -0.31 +0.04    -0.255 NA 
DOCKED: ATOM      8  C   UNL     1     140.297  70.203 227.929 -0.64 -0.00    +0.004 A  
DOCKED: ATOM      9  C   UNL     1     141.431  72.265 227.412 -0.71 -0.02    +0.112 A  
DOCKED: ATOM     10  C   UNL     1     141.036  71.308 228.351 -0.69 -0.00    +0.020 A  
DOCKED: ENDBRANCH   3   5
DOCKED: ENDBRANCH   2   3
DOCKED: ENDBRANCH   1   2
DOCKED: BRANCH   1  11
DOCKED: ATOM     11  C   UNL     1     140.836  73.355 221.391 -0.20 -0.02    +0.210 C  
DOCKED: BRANCH  11  12
DOCKED: ATOM     12  O   UNL     1     140.310  74.522 222.018 -0.69 +0.03    -0.495 OA 
DOCKED: BRANCH  12  13
DOCKED: ATOM     13  C   UNL     1     140.701  75.833 221.712 -0.31 -0.03    +0.119 A  
DOCKED: ATOM     14  C   UNL     1     140.837  76.187 220.365 -0.20 -0.02    +0.047 A  
DOCKED: ATOM     15  C   UNL     1     140.958  76.796 222.708 -0.32 -0.02    +0.055 A  
DOCKED: ATOM     16  C   UNL     1     141.216  77.481 220.000 -0.23 -0.01    +0.012 A  
DOCKED: ATOM     17  C   UNL     1     141.341  78.099 222.353 -0.42 +0.01    -0.013 A  
DOCKED: ATOM     18  C   UNL     1     141.469  78.445 220.987 -0.33 +0.01    -0.018 A  
DOCKED: ATOM     19  C   UNL     1     141.600  79.064 223.340 -0.57 -0.01    +0.029 A  
DOCKED: ATOM     20  C   UNL     1     141.847  79.748 220.632 -0.33 -0.01    +0.010 A  
DOCKED: ATOM     21  C   UNL     1     141.977  80.360 222.973 -0.56 -0.01    +0.041 A  
DOCKED: ATOM     22  C   UNL     1     142.098  80.701 221.623 -0.43 -0.01    +0.021 A  
DOCKED: ATOM     23  Cl  UNL     1     142.300  81.561 224.211 -0.55 +0.01    -0.084 Cl 
DOCKED: ENDBRANCH  12  13
DOCKED: ENDBRANCH  11  12
DOCKED: ENDBRANCH   1  11
DOCKED: TORSDOF 6
DOCKED: TER
DOCKED: ENDMDL
________________________________________________________________________________


    FINAL DOCKED STATE:
    ________________________


Run:   12 / 20
Time taken for this run:   0.020s

DOCKED: MODEL        12
DOCKED: USER    Run = 12
DOCKED: USER
DOCKED: USER    Estimated Free Energy of Binding    =  -7.36 kcal/mol  [=(1)+(2)+(3)-(4)]
DOCKED: USER
DOCKED: USER    (1) Final Intermolecular Energy     =  -9.15 kcal/mol
DOCKED: USER        vdW + Hbond + desolv Energy     =  -9.32 kcal/mol
DOCKED: USER        Electrostatic Energy            =  +0.16 kcal/mol
DOCKED: USER        Moving Ligand-Fixed Receptor    =  -9.15 kcal/mol
DOCKED: USER        Moving Ligand-Moving Receptor   =  +0.00 kcal/mol
DOCKED: USER    (2) Final Total Internal Energy     =  -0.49 kcal/mol
DOCKED: USER    (3) Torsional Free Energy           =  +1.79 kcal/mol
DOCKED: USER    (4) Unbound System's Energy         =  -0.49 kcal/mol
DOCKED: USER
DOCKED: USER
DOCKED: REMARK SMILES O=C([N-]CCOc1ccc2ccc(Cl)cc2c1)c1ccccn1
DOCKED: REMARK SMILES IDX 4 1 3 2 2 3 1 4 18 5 19 6 23 7 20 8 22 9 21 10 5 11 6 12
DOCKED: REMARK SMILES IDX 7 13 8 14 17 15 9 16 16 17 10 18 15 19 11 20 13 21 12 22
DOCKED: REMARK SMILES IDX 14 23
DOCKED: REMARK H PARENT
DOCKED: USER                              x       y       z     vdW  Elec       q    Type
DOCKED: USER                           _______ _______ _______ _____ _____    ______ ____
DOCKED: ROOT
DOCKED: ATOM      1  C   UNL     1     140.598  74.477 220.997 -0.24 +0.01    -0.075 C  
DOCKED: ENDROOT
DOCKED: BRANCH   1   2
DOCKED: ATOM      2  N   UNL     1     141.121  75.485 221.917 -0.18 +0.15    -0.645 NA 
DOCKED: BRANCH   2   3
DOCKED: ATOM      3  C   UNL     1     140.446  76.685 222.325 -0.35 -0.03    +0.101 C  
DOCKED: ATOM      4  O   UNL     1     139.223  76.621 222.614 -0.24 +0.06    -0.313 OA 
DOCKED: BRANCH   3   5
DOCKED: ATOM      5  C   UNL     1     141.137  77.981 222.444 -0.40 -0.04    +0.088 A  
DOCKED: ATOM      6  C   UNL     1     141.389  78.777 221.315 -0.34 -0.01    +0.030 A  
DOCKED: ATOM      7  N   UNL     1     141.485  78.439 223.678 -0.34 +0.08    -0.255 NA 
DOCKED: ATOM      8  C   UNL     1     142.033  80.005 221.473 -0.42 -0.00    +0.004 A  
DOCKED: ATOM      9  C   UNL     1     142.111  79.633 223.852 -0.52 -0.03    +0.112 A  
DOCKED: ATOM     10  C   UNL     1     142.402  80.437 222.748 -0.60 -0.01    +0.020 A  
DOCKED: ENDBRANCH   3   5
DOCKED: ENDBRANCH   2   3
DOCKED: ENDBRANCH   1   2
DOCKED: BRANCH   1  11
DOCKED: ATOM     11  C   UNL     1     140.787  73.073 221.563 -0.21 -0.02    +0.210 C  
DOCKED: BRANCH  11  12
DOCKED: ATOM     12  O   UNL     1     140.157  72.990 222.838 -0.53 +0.03    -0.495 OA 
DOCKED: BRANCH  12  13
DOCKED: ATOM     13  C   UNL     1     139.901  71.793 223.522 -0.31 -0.02    +0.119 A  
DOCKED: ATOM     14  C   UNL     1     138.971  70.902 222.974 -0.24 -0.01    +0.047 A  
DOCKED: ATOM     15  C   UNL     1     140.545  71.461 224.730 -0.46 -0.01    +0.055 A  
DOCKED: ATOM     16  C   UNL     1     138.682  69.690 223.606 -0.27 -0.00    +0.012 A  
DOCKED: ATOM     17  C   UNL     1     140.262  70.247 225.375 -0.48 +0.00    -0.013 A  
DOCKED: ATOM     18  C   UNL     1     139.323  69.353 224.807 -0.37 +0.00    -0.018 A  
DOCKED: ATOM     19  C   UNL     1     140.899  69.910 226.580 -0.54 -0.01    +0.029 A  
DOCKED: ATOM     20  C   UNL     1     139.044  68.137 225.449 -0.46 -0.00    +0.010 A  
DOCKED: ATOM     21  C   UNL     1     140.611  68.695 227.212 -0.61 -0.01    +0.041 A  
DOCKED: ATOM     22  C   UNL     1     139.687  67.811 226.646 -0.64 -0.00    +0.021 A  
DOCKED: ATOM     23  Cl  UNL     1     141.410  68.280 228.717 -0.58 +0.02    -0.084 Cl 
DOCKED: ENDBRANCH  12  13
DOCKED: ENDBRANCH  11  12
DOCKED: ENDBRANCH   1  11
DOCKED: TORSDOF 6
DOCKED: TER
DOCKED: ENDMDL
________________________________________________________________________________


    FINAL DOCKED STATE:
    ________________________


Run:   13 / 20
Time taken for this run:   0.020s

DOCKED: MODEL        13
DOCKED: USER    Run = 13
DOCKED: USER
DOCKED: USER    Estimated Free Energy of Binding    =  -7.31 kcal/mol  [=(1)+(2)+(3)-(4)]
DOCKED: USER
DOCKED: USER    (1) Final Intermolecular Energy     =  -9.10 kcal/mol
DOCKED: USER        vdW + Hbond + desolv Energy     =  -9.22 kcal/mol
DOCKED: USER        Electrostatic Energy            =  +0.11 kcal/mol
DOCKED: USER        Moving Ligand-Fixed Receptor    =  -9.10 kcal/mol
DOCKED: USER        Moving Ligand-Moving Receptor   =  +0.00 kcal/mol
DOCKED: USER    (2) Final Total Internal Energy     =  -0.56 kcal/mol
DOCKED: USER    (3) Torsional Free Energy           =  +1.79 kcal/mol
DOCKED: USER    (4) Unbound System's Energy         =  -0.56 kcal/mol
DOCKED: USER
DOCKED: USER
DOCKED: REMARK SMILES O=C([N-]CCOc1ccc2ccc(Cl)cc2c1)c1ccccn1
DOCKED: REMARK SMILES IDX 4 1 3 2 2 3 1 4 18 5 19 6 23 7 20 8 22 9 21 10 5 11 6 12
DOCKED: REMARK SMILES IDX 7 13 8 14 17 15 9 16 16 17 10 18 15 19 11 20 13 21 12 22
DOCKED: REMARK SMILES IDX 14 23
DOCKED: REMARK H PARENT
DOCKED: USER                              x       y       z     vdW  Elec       q    Type
DOCKED: USER                           _______ _______ _______ _____ _____    ______ ____
DOCKED: ROOT
DOCKED: ATOM      1  C   UNL     1     140.799  72.201 222.118 -0.26 +0.01    -0.075 C  
DOCKED: ENDROOT
DOCKED: BRANCH   1   2
DOCKED: ATOM      2  N   UNL     1     140.412  72.273 223.526 -0.10 +0.07    -0.645 NA 
DOCKED: BRANCH   2   3
DOCKED: ATOM      3  C   UNL     1     139.868  71.198 224.306 -0.38 -0.02    +0.101 C  
DOCKED: ATOM      4  O   UNL     1     139.033  70.424 223.769 -0.17 +0.06    -0.313 OA 
DOCKED: BRANCH   3   5
DOCKED: ATOM      5  C   UNL     1     140.270  70.950 225.702 -0.49 -0.01    +0.088 A  
DOCKED: ATOM      6  C   UNL     1     140.241  69.657 226.247 -0.49 -0.01    +0.030 A  
DOCKED: ATOM      7  N   UNL     1     140.732  71.985 226.456 -0.37 +0.04    -0.255 NA 
DOCKED: ATOM      8  C   UNL     1     140.645  69.462 227.569 -0.61 -0.00    +0.004 A  
DOCKED: ATOM      9  C   UNL     1     141.132  71.815 227.744 -0.71 -0.02    +0.112 A  
DOCKED: ATOM     10  C   UNL     1     141.089  70.546 228.327 -0.56 -0.00    +0.020 A  
DOCKED: ENDBRANCH   3   5
DOCKED: ENDBRANCH   2   3
DOCKED: ENDBRANCH   1   2
DOCKED: BRANCH   1  11
DOCKED: ATOM     11  C   UNL     1     141.008  73.597 221.538 -0.20 -0.02    +0.210 C  
DOCKED: BRANCH  11  12
DOCKED: ATOM     12  O   UNL     1     139.784  74.323 221.607 -0.34 +0.08    -0.495 OA 
DOCKED: BRANCH  12  13
DOCKED: ATOM     13  C   UNL     1     139.670  75.647 222.054 -0.28 -0.02    +0.119 A  
DOCKED: ATOM     14  C   UNL     1     138.388  76.178 222.236 -0.28 -0.01    +0.047 A  
DOCKED: ATOM     15  C   UNL     1     140.795  76.452 222.323 -0.37 -0.02    +0.055 A  
DOCKED: ATOM     16  C   UNL     1     138.213  77.488 222.686 -0.29 -0.00    +0.012 A  
DOCKED: ATOM     17  C   UNL     1     140.631  77.771 222.775 -0.41 +0.00    -0.013 A  
DOCKED: ATOM     18  C   UNL     1     139.329  78.293 222.960 -0.30 +0.00    -0.018 A  
DOCKED: ATOM     19  C   UNL     1     141.747  78.580 223.044 -0.52 -0.01    +0.029 A  
DOCKED: ATOM     20  C   UNL     1     139.165  79.610 223.416 -0.39 -0.00    +0.010 A  
DOCKED: ATOM     21  C   UNL     1     141.571  79.892 223.498 -0.55 -0.01    +0.041 A  
DOCKED: ATOM     22  C   UNL     1     140.283  80.403 223.685 -0.42 -0.00    +0.021 A  
DOCKED: ATOM     23  Cl  UNL     1     142.969  80.897 223.832 -0.73 +0.02    -0.084 Cl 
DOCKED: ENDBRANCH  12  13
DOCKED: ENDBRANCH  11  12
DOCKED: ENDBRANCH   1  11
DOCKED: TORSDOF 6
DOCKED: TER
DOCKED: ENDMDL
________________________________________________________________________________


    FINAL DOCKED STATE:
    ________________________


Run:   14 / 20
Time taken for this run:   0.020s

DOCKED: MODEL        14
DOCKED: USER    Run = 14
DOCKED: USER
DOCKED: USER    Estimated Free Energy of Binding    =  -6.36 kcal/mol  [=(1)+(2)+(3)-(4)]
DOCKED: USER
DOCKED: USER    (1) Final Intermolecular Energy     =  -8.15 kcal/mol
DOCKED: USER        vdW + Hbond + desolv Energy     =  -8.11 kcal/mol
DOCKED: USER        Electrostatic Energy            =  -0.04 kcal/mol
DOCKED: USER        Moving Ligand-Fixed Receptor    =  -8.15 kcal/mol
DOCKED: USER        Moving Ligand-Moving Receptor   =  +0.00 kcal/mol
DOCKED: USER    (2) Final Total Internal Energy     =  -1.23 kcal/mol
DOCKED: USER    (3) Torsional Free Energy           =  +1.79 kcal/mol
DOCKED: USER    (4) Unbound System's Energy         =  -1.23 kcal/mol
DOCKED: USER
DOCKED: USER
DOCKED: REMARK SMILES O=C([N-]CCOc1ccc2ccc(Cl)cc2c1)c1ccccn1
DOCKED: REMARK SMILES IDX 4 1 3 2 2 3 1 4 18 5 19 6 23 7 20 8 22 9 21 10 5 11 6 12
DOCKED: REMARK SMILES IDX 7 13 8 14 17 15 9 16 16 17 10 18 15 19 11 20 13 21 12 22
DOCKED: REMARK SMILES IDX 14 23
DOCKED: REMARK H PARENT
DOCKED: USER                              x       y       z     vdW  Elec       q    Type
DOCKED: USER                           _______ _______ _______ _____ _____    ______ ____
DOCKED: ROOT
DOCKED: ATOM      1  C   UNL     1     134.691  68.452 223.084 -0.11 +0.01    -0.075 C  
DOCKED: ENDROOT
DOCKED: BRANCH   1   2
DOCKED: ATOM      2  N   UNL     1     134.965  68.151 224.489 -0.41 -0.07    -0.645 NA 
DOCKED: BRANCH   2   3
DOCKED: ATOM      3  C   UNL     1     134.281  68.711 225.620 -0.24 -0.00    +0.101 C  
DOCKED: ATOM      4  O   UNL     1     133.750  67.929 226.452 -0.76 +0.01    -0.313 OA 
DOCKED: BRANCH   3   5
DOCKED: ATOM      5  C   UNL     1     134.199  70.163 225.858 -0.26 -0.00    +0.088 A  
DOCKED: ATOM      6  C   UNL     1     134.751  71.080 224.951 -0.19 -0.00    +0.030 A  
DOCKED: ATOM      7  N   UNL     1     133.528  70.621 226.950 -0.33 +0.01    -0.255 NA 
DOCKED: ATOM      8  C   UNL     1     134.640  72.448 225.207 -0.23 -0.00    +0.004 A  
DOCKED: ATOM      9  C   UNL     1     133.406  71.949 227.215 -0.40 -0.01    +0.112 A  
DOCKED: ATOM     10  C   UNL     1     133.968  72.888 226.347 -0.32 +0.00    +0.020 A  
DOCKED: ENDBRANCH   3   5
DOCKED: ENDBRANCH   2   3
DOCKED: ENDBRANCH   1   2
DOCKED: BRANCH   1  11
DOCKED: ATOM     11  C   UNL     1     135.983  68.496 222.275 -0.08 -0.03    +0.210 C  
DOCKED: BRANCH  11  12
DOCKED: ATOM     12  O   UNL     1     136.570  69.789 222.393 +0.00 +0.07    -0.495 OA 
DOCKED: BRANCH  12  13
DOCKED: ATOM     13  C   UNL     1     137.637  70.102 223.247 -0.16 -0.02    +0.119 A  
DOCKED: ATOM     14  C   UNL     1     138.464  71.179 222.907 -0.21 -0.01    +0.047 A  
DOCKED: ATOM     15  C   UNL     1     137.900  69.374 224.424 -0.29 -0.01    +0.055 A  
DOCKED: ATOM     16  C   UNL     1     139.537  71.542 223.725 -0.35 -0.00    +0.012 A  
DOCKED: ATOM     17  C   UNL     1     138.976  69.730 225.252 -0.39 +0.00    -0.013 A  
DOCKED: ATOM     18  C   UNL     1     139.801  70.824 224.900 -0.45 +0.00    -0.018 A  
DOCKED: ATOM     19  C   UNL     1     139.246  69.009 226.427 -0.48 -0.00    +0.029 A  
DOCKED: ATOM     20  C   UNL     1     140.874  71.183 225.730 -0.61 -0.00    +0.010 A  
DOCKED: ATOM     21  C   UNL     1     140.319  69.375 227.246 -0.57 -0.01    +0.041 A  
DOCKED: ATOM     22  C   UNL     1     141.129  70.460 226.898 -0.57 -0.00    +0.021 A  
DOCKED: ATOM     23  Cl  UNL     1     140.650  68.470 228.712 -0.70 +0.02    -0.084 Cl 
DOCKED: ENDBRANCH  12  13
DOCKED: ENDBRANCH  11  12
DOCKED: ENDBRANCH   1  11
DOCKED: TORSDOF 6
DOCKED: TER
DOCKED: ENDMDL
________________________________________________________________________________


    FINAL DOCKED STATE:
    ________________________


Run:   15 / 20
Time taken for this run:   0.020s

DOCKED: MODEL        15
DOCKED: USER    Run = 15
DOCKED: USER
DOCKED: USER    Estimated Free Energy of Binding    =  -7.11 kcal/mol  [=(1)+(2)+(3)-(4)]
DOCKED: USER
DOCKED: USER    (1) Final Intermolecular Energy     =  -8.90 kcal/mol
DOCKED: USER        vdW + Hbond + desolv Energy     =  -9.04 kcal/mol
DOCKED: USER        Electrostatic Energy            =  +0.15 kcal/mol
DOCKED: USER        Moving Ligand-Fixed Receptor    =  -8.90 kcal/mol
DOCKED: USER        Moving Ligand-Moving Receptor   =  +0.00 kcal/mol
DOCKED: USER    (2) Final Total Internal Energy     =  -0.56 kcal/mol
DOCKED: USER    (3) Torsional Free Energy           =  +1.79 kcal/mol
DOCKED: USER    (4) Unbound System's Energy         =  -0.56 kcal/mol
DOCKED: USER
DOCKED: USER
DOCKED: REMARK SMILES O=C([N-]CCOc1ccc2ccc(Cl)cc2c1)c1ccccn1
DOCKED: REMARK SMILES IDX 4 1 3 2 2 3 1 4 18 5 19 6 23 7 20 8 22 9 21 10 5 11 6 12
DOCKED: REMARK SMILES IDX 7 13 8 14 17 15 9 16 16 17 10 18 15 19 11 20 13 21 12 22
DOCKED: REMARK SMILES IDX 14 23
DOCKED: REMARK H PARENT
DOCKED: USER                              x       y       z     vdW  Elec       q    Type
DOCKED: USER                           _______ _______ _______ _____ _____    ______ ____
DOCKED: ROOT
DOCKED: ATOM      1  C   UNL     1     139.498  71.962 222.564 -0.26 +0.02    -0.075 C  
DOCKED: ENDROOT
DOCKED: BRANCH   1   2
DOCKED: ATOM      2  N   UNL     1     140.112  70.782 223.172 +0.04 +0.10    -0.645 NA 
DOCKED: BRANCH   2   3
DOCKED: ATOM      3  C   UNL     1     139.716  70.169 224.408 -0.32 -0.02    +0.101 C  
DOCKED: ATOM      4  O   UNL     1     138.977  69.150 224.367 -0.20 +0.04    -0.313 OA 
DOCKED: BRANCH   3   5
DOCKED: ATOM      5  C   UNL     1     140.163  70.669 225.720 -0.47 -0.01    +0.088 A  
DOCKED: ATOM      6  C   UNL     1     139.836  69.992 226.905 -0.51 -0.00    +0.030 A  
DOCKED: ATOM      7  N   UNL     1     140.956  71.774 225.776 -0.36 +0.03    -0.255 NA 
DOCKED: ATOM      8  C   UNL     1     140.293  70.491 228.126 -0.64 -0.00    +0.004 A  
DOCKED: ATOM      9  C   UNL     1     141.413  72.273 226.955 -0.65 -0.02    +0.112 A  
DOCKED: ATOM     10  C   UNL     1     141.083  71.641 228.156 -0.77 -0.00    +0.020 A  
DOCKED: ENDBRANCH   3   5
DOCKED: ENDBRANCH   2   3
DOCKED: ENDBRANCH   1   2
DOCKED: BRANCH   1  11
DOCKED: ATOM     11  C   UNL     1     140.532  73.062 222.345 -0.11 -0.01    +0.210 C  
DOCKED: BRANCH  11  12
DOCKED: ATOM     12  O   UNL     1     139.959  74.096 221.549 -0.34 +0.08    -0.495 OA 
DOCKED: BRANCH  12  13
DOCKED: ATOM     13  C   UNL     1     139.785  75.421 221.973 -0.28 -0.02    +0.119 A  
DOCKED: ATOM     14  C   UNL     1     138.481  75.912 222.093 -0.27 -0.01    +0.047 A  
DOCKED: ATOM     15  C   UNL     1     140.872  76.265 222.278 -0.33 -0.02    +0.055 A  
DOCKED: ATOM     16  C   UNL     1     138.246  77.222 222.519 -0.28 -0.00    +0.012 A  
DOCKED: ATOM     17  C   UNL     1     140.648  77.583 222.705 -0.42 +0.00    -0.013 A  
DOCKED: ATOM     18  C   UNL     1     139.323  78.065 222.828 -0.29 +0.00    -0.018 A  
DOCKED: ATOM     19  C   UNL     1     141.725  78.430 223.010 -0.47 -0.01    +0.029 A  
DOCKED: ATOM     20  C   UNL     1     139.099  79.381 223.261 -0.36 -0.00    +0.010 A  
DOCKED: ATOM     21  C   UNL     1     141.489  79.741 223.439 -0.54 -0.01    +0.041 A  
DOCKED: ATOM     22  C   UNL     1     140.179  80.213 223.565 -0.43 -0.00    +0.021 A  
DOCKED: ATOM     23  Cl  UNL     1     142.839  80.794 223.819 -0.77 +0.02    -0.084 Cl 
DOCKED: ENDBRANCH  12  13
DOCKED: ENDBRANCH  11  12
DOCKED: ENDBRANCH   1  11
DOCKED: TORSDOF 6
DOCKED: TER
DOCKED: ENDMDL
________________________________________________________________________________


    FINAL DOCKED STATE:
    ________________________


Run:   16 / 20
Time taken for this run:   0.020s

DOCKED: MODEL        16
DOCKED: USER    Run = 16
DOCKED: USER
DOCKED: USER    Estimated Free Energy of Binding    =  -7.12 kcal/mol  [=(1)+(2)+(3)-(4)]
DOCKED: USER
DOCKED: USER    (1) Final Intermolecular Energy     =  -8.91 kcal/mol
DOCKED: USER        vdW + Hbond + desolv Energy     =  -8.99 kcal/mol
DOCKED: USER        Electrostatic Energy            =  +0.08 kcal/mol
DOCKED: USER        Moving Ligand-Fixed Receptor    =  -8.91 kcal/mol
DOCKED: USER        Moving Ligand-Moving Receptor   =  +0.00 kcal/mol
DOCKED: USER    (2) Final Total Internal Energy     =  -0.56 kcal/mol
DOCKED: USER    (3) Torsional Free Energy           =  +1.79 kcal/mol
DOCKED: USER    (4) Unbound System's Energy         =  -0.56 kcal/mol
DOCKED: USER
DOCKED: USER
DOCKED: REMARK SMILES O=C([N-]CCOc1ccc2ccc(Cl)cc2c1)c1ccccn1
DOCKED: REMARK SMILES IDX 4 1 3 2 2 3 1 4 18 5 19 6 23 7 20 8 22 9 21 10 5 11 6 12
DOCKED: REMARK SMILES IDX 7 13 8 14 17 15 9 16 16 17 10 18 15 19 11 20 13 21 12 22
DOCKED: REMARK SMILES IDX 14 23
DOCKED: REMARK H PARENT
DOCKED: USER                              x       y       z     vdW  Elec       q    Type
DOCKED: USER                           _______ _______ _______ _____ _____    ______ ____
DOCKED: ROOT
DOCKED: ATOM      1  C   UNL     1     140.537  72.261 222.084 -0.27 +0.01    -0.075 C  
DOCKED: ENDROOT
DOCKED: BRANCH   1   2
DOCKED: ATOM      2  N   UNL     1     140.645  72.094 223.533 -0.03 +0.05    -0.645 NA 
DOCKED: BRANCH   2   3
DOCKED: ATOM      3  C   UNL     1     139.945  71.121 224.324 -0.39 -0.02    +0.101 C  
DOCKED: ATOM      4  O   UNL     1     138.979  70.503 223.805 -0.17 +0.06    -0.313 OA 
DOCKED: BRANCH   3   5
DOCKED: ATOM      5  C   UNL     1     140.332  70.799 225.708 -0.50 -0.01    +0.088 A  
DOCKED: ATOM      6  C   UNL     1     140.746  71.800 226.599 -0.66 -0.01    +0.030 A  
DOCKED: ATOM      7  N   UNL     1     140.231  69.513 226.145 -0.26 +0.04    -0.255 NA 
DOCKED: ATOM      8  C   UNL     1     141.090  71.455 227.907 -0.79 -0.00    +0.004 A  
DOCKED: ATOM      9  C   UNL     1     140.559  69.157 227.416 -0.52 -0.02    +0.112 A  
DOCKED: ATOM     10  C   UNL     1     141.002  70.125 228.320 -0.55 -0.00    +0.020 A  
DOCKED: ENDBRANCH   3   5
DOCKED: ENDBRANCH   2   3
DOCKED: ENDBRANCH   1   2
DOCKED: BRANCH   1  11
DOCKED: ATOM     11  C   UNL     1     139.413  73.230 221.730 -0.18 -0.04    +0.210 C  
DOCKED: BRANCH  11  12
DOCKED: ATOM     12  O   UNL     1     139.973  74.427 221.198 -0.15 +0.09    -0.495 OA 
DOCKED: BRANCH  12  13
DOCKED: ATOM     13  C   UNL     1     139.819  75.699 221.768 -0.28 -0.02    +0.119 A  
DOCKED: ATOM     14  C   UNL     1     138.522  76.153 222.033 -0.26 -0.01    +0.047 A  
DOCKED: ATOM     15  C   UNL     1     140.917  76.524 222.079 -0.36 -0.02    +0.055 A  
DOCKED: ATOM     16  C   UNL     1     138.308  77.408 222.608 -0.29 -0.00    +0.012 A  
DOCKED: ATOM     17  C   UNL     1     140.713  77.788 222.655 -0.44 +0.00    -0.013 A  
DOCKED: ATOM     18  C   UNL     1     139.397  78.233 222.924 -0.30 +0.00    -0.018 A  
DOCKED: ATOM     19  C   UNL     1     141.802  78.617 222.967 -0.51 -0.01    +0.029 A  
DOCKED: ATOM     20  C   UNL     1     139.193  79.493 223.505 -0.39 -0.00    +0.010 A  
DOCKED: ATOM     21  C   UNL     1     141.587  79.873 223.546 -0.55 -0.01    +0.041 A  
DOCKED: ATOM     22  C   UNL     1     140.285  80.308 223.815 -0.41 -0.00    +0.021 A  
DOCKED: ATOM     23  Cl  UNL     1     142.952  80.905 223.933 -0.71 +0.01    -0.084 Cl 
DOCKED: ENDBRANCH  12  13
DOCKED: ENDBRANCH  11  12
DOCKED: ENDBRANCH   1  11
DOCKED: TORSDOF 6
DOCKED: TER
DOCKED: ENDMDL
________________________________________________________________________________


    FINAL DOCKED STATE:
    ________________________


Run:   17 / 20
Time taken for this run:   0.020s

DOCKED: MODEL        17
DOCKED: USER    Run = 17
DOCKED: USER
DOCKED: USER    Estimated Free Energy of Binding    =  -7.45 kcal/mol  [=(1)+(2)+(3)-(4)]
DOCKED: USER
DOCKED: USER    (1) Final Intermolecular Energy     =  -9.24 kcal/mol
DOCKED: USER        vdW + Hbond + desolv Energy     =  -9.39 kcal/mol
DOCKED: USER        Electrostatic Energy            =  +0.15 kcal/mol
DOCKED: USER        Moving Ligand-Fixed Receptor    =  -9.24 kcal/mol
DOCKED: USER        Moving Ligand-Moving Receptor   =  +0.00 kcal/mol
DOCKED: USER    (2) Final Total Internal Energy     =  -0.49 kcal/mol
DOCKED: USER    (3) Torsional Free Energy           =  +1.79 kcal/mol
DOCKED: USER    (4) Unbound System's Energy         =  -0.49 kcal/mol
DOCKED: USER
DOCKED: USER
DOCKED: REMARK SMILES O=C([N-]CCOc1ccc2ccc(Cl)cc2c1)c1ccccn1
DOCKED: REMARK SMILES IDX 4 1 3 2 2 3 1 4 18 5 19 6 23 7 20 8 22 9 21 10 5 11 6 12
DOCKED: REMARK SMILES IDX 7 13 8 14 17 15 9 16 16 17 10 18 15 19 11 20 13 21 12 22
DOCKED: REMARK SMILES IDX 14 23
DOCKED: REMARK H PARENT
DOCKED: USER                              x       y       z     vdW  Elec       q    Type
DOCKED: USER                           _______ _______ _______ _____ _____    ______ ____
DOCKED: ROOT
DOCKED: ATOM      1  C   UNL     1     140.569  74.635 220.936 -0.24 +0.02    -0.075 C  
DOCKED: ENDROOT
DOCKED: BRANCH   1   2
DOCKED: ATOM      2  N   UNL     1     141.078  75.563 221.946 -0.19 +0.16    -0.645 NA 
DOCKED: BRANCH   2   3
DOCKED: ATOM      3  C   UNL     1     140.448  76.784 222.360 -0.35 -0.03    +0.101 C  
DOCKED: ATOM      4  O   UNL     1     139.227  76.762 222.665 -0.24 +0.06    -0.313 OA 
DOCKED: BRANCH   3   5
DOCKED: ATOM      5  C   UNL     1     141.183  78.057 222.471 -0.40 -0.04    +0.088 A  
DOCKED: ATOM      6  C   UNL     1     141.473  78.829 221.336 -0.35 -0.01    +0.030 A  
DOCKED: ATOM      7  N   UNL     1     141.537  78.516 223.703 -0.35 +0.08    -0.255 NA 
DOCKED: ATOM      8  C   UNL     1     142.159  80.036 221.485 -0.42 -0.00    +0.004 A  
DOCKED: ATOM      9  C   UNL     1     142.202  79.690 223.869 -0.52 -0.03    +0.112 A  
DOCKED: ATOM     10  C   UNL     1     142.531  80.470 222.758 -0.60 -0.01    +0.020 A  
DOCKED: ENDBRANCH   3   5
DOCKED: ENDBRANCH   2   3
DOCKED: ENDBRANCH   1   2
DOCKED: BRANCH   1  11
DOCKED: ATOM     11  C   UNL     1     140.726  73.189 221.397 -0.20 -0.03    +0.210 C  
DOCKED: BRANCH  11  12
DOCKED: ATOM     12  O   UNL     1     140.245  73.066 222.732 -0.57 +0.02    -0.495 OA 
DOCKED: BRANCH  12  13
DOCKED: ATOM     13  C   UNL     1     139.995  71.845 223.377 -0.31 -0.02    +0.119 A  
DOCKED: ATOM     14  C   UNL     1     139.210  70.895 222.715 -0.23 -0.01    +0.047 A  
DOCKED: ATOM     15  C   UNL     1     140.505  71.550 224.656 -0.44 -0.01    +0.055 A  
DOCKED: ATOM     16  C   UNL     1     138.935  69.659 223.304 -0.24 -0.00    +0.012 A  
DOCKED: ATOM     17  C   UNL     1     140.234  70.311 225.259 -0.47 +0.00    -0.013 A  
DOCKED: ATOM     18  C   UNL     1     139.443  69.357 224.576 -0.35 +0.00    -0.018 A  
DOCKED: ATOM     19  C   UNL     1     140.737  70.009 226.534 -0.54 -0.00    +0.029 A  
DOCKED: ATOM     20  C   UNL     1     139.176  68.117 225.176 -0.45 -0.00    +0.010 A  
DOCKED: ATOM     21  C   UNL     1     140.463  68.770 227.123 -0.60 -0.01    +0.041 A  
DOCKED: ATOM     22  C   UNL     1     139.686  67.826 226.444 -0.63 -0.00    +0.021 A  
DOCKED: ATOM     23  Cl  UNL     1     141.095  68.399 228.717 -0.70 +0.02    -0.084 Cl 
DOCKED: ENDBRANCH  12  13
DOCKED: ENDBRANCH  11  12
DOCKED: ENDBRANCH   1  11
DOCKED: TORSDOF 6
DOCKED: TER
DOCKED: ENDMDL
________________________________________________________________________________


    FINAL DOCKED STATE:
    ________________________


Run:   18 / 20
Time taken for this run:   0.020s

DOCKED: MODEL        18
DOCKED: USER    Run = 18
DOCKED: USER
DOCKED: USER    Estimated Free Energy of Binding    =  -7.38 kcal/mol  [=(1)+(2)+(3)-(4)]
DOCKED: USER
DOCKED: USER    (1) Final Intermolecular Energy     =  -9.17 kcal/mol
DOCKED: USER        vdW + Hbond + desolv Energy     =  -9.23 kcal/mol
DOCKED: USER        Electrostatic Energy            =  +0.06 kcal/mol
DOCKED: USER        Moving Ligand-Fixed Receptor    =  -9.17 kcal/mol
DOCKED: USER        Moving Ligand-Moving Receptor   =  +0.00 kcal/mol
DOCKED: USER    (2) Final Total Internal Energy     =  -0.53 kcal/mol
DOCKED: USER    (3) Torsional Free Energy           =  +1.79 kcal/mol
DOCKED: USER    (4) Unbound System's Energy         =  -0.53 kcal/mol
DOCKED: USER
DOCKED: USER
DOCKED: REMARK SMILES O=C([N-]CCOc1ccc2ccc(Cl)cc2c1)c1ccccn1
DOCKED: REMARK SMILES IDX 4 1 3 2 2 3 1 4 18 5 19 6 23 7 20 8 22 9 21 10 5 11 6 12
DOCKED: REMARK SMILES IDX 7 13 8 14 17 15 9 16 16 17 10 18 15 19 11 20 13 21 12 22
DOCKED: REMARK SMILES IDX 14 23
DOCKED: REMARK H PARENT
DOCKED: USER                              x       y       z     vdW  Elec       q    Type
DOCKED: USER                           _______ _______ _______ _____ _____    ______ ____
DOCKED: ROOT
DOCKED: ATOM      1  C   UNL     1     141.018  72.412 222.230 -0.19 +0.00    -0.075 C  
DOCKED: ENDROOT
DOCKED: BRANCH   1   2
DOCKED: ATOM      2  N   UNL     1     140.382  72.264 223.538 -0.10 +0.07    -0.645 NA 
DOCKED: BRANCH   2   3
DOCKED: ATOM      3  C   UNL     1     140.116  71.024 224.211 -0.38 -0.02    +0.101 C  
DOCKED: ATOM      4  O   UNL     1     139.638  70.067 223.547 -0.14 +0.06    -0.313 OA 
DOCKED: BRANCH   3   5
DOCKED: ATOM      5  C   UNL     1     140.409  70.819 225.640 -0.50 -0.01    +0.088 A  
DOCKED: ATOM      6  C   UNL     1     140.412  69.534 226.204 -0.50 -0.01    +0.030 A  
DOCKED: ATOM      7  N   UNL     1     140.738  71.891 226.412 -0.41 +0.04    -0.255 NA 
DOCKED: ATOM      8  C   UNL     1     140.710  69.382 227.559 -0.62 -0.00    +0.004 A  
DOCKED: ATOM      9  C   UNL     1     141.033  71.763 227.733 -0.72 -0.02    +0.112 A  
DOCKED: ATOM     10  C   UNL     1     141.018  70.501 228.333 -0.56 -0.00    +0.020 A  
DOCKED: ENDBRANCH   3   5
DOCKED: ENDBRANCH   2   3
DOCKED: ENDBRANCH   1   2
DOCKED: BRANCH   1  11
DOCKED: ATOM     11  C   UNL     1     140.188  73.311 221.319 -0.19 -0.03    +0.210 C  
DOCKED: BRANCH  11  12
DOCKED: ATOM     12  O   UNL     1     139.845  74.503 222.020 -0.67 +0.06    -0.495 OA 
DOCKED: BRANCH  12  13
DOCKED: ATOM     13  C   UNL     1     140.346  75.776 221.714 -0.30 -0.03    +0.119 A  
DOCKED: ATOM     14  C   UNL     1     140.482  76.129 220.366 -0.17 -0.01    +0.047 A  
DOCKED: ATOM     15  C   UNL     1     140.714  76.703 222.710 -0.30 -0.02    +0.055 A  
DOCKED: ATOM     16  C   UNL     1     140.968  77.386 220.001 -0.20 -0.01    +0.012 A  
DOCKED: ATOM     17  C   UNL     1     141.205  77.969 222.354 -0.43 +0.01    -0.013 A  
DOCKED: ATOM     18  C   UNL     1     141.331  78.314 220.988 -0.32 +0.01    -0.018 A  
DOCKED: ATOM     19  C   UNL     1     141.574  78.897 223.341 -0.57 -0.01    +0.029 A  
DOCKED: ATOM     20  C   UNL     1     141.817  79.581 220.633 -0.33 -0.01    +0.010 A  
DOCKED: ATOM     21  C   UNL     1     142.058  80.157 222.974 -0.57 -0.01    +0.041 A  
DOCKED: ATOM     22  C   UNL     1     142.178  80.498 221.624 -0.44 -0.01    +0.021 A  
DOCKED: ATOM     23  Cl  UNL     1     142.518  81.312 224.212 -0.63 +0.01    -0.084 Cl 
DOCKED: ENDBRANCH  12  13
DOCKED: ENDBRANCH  11  12
DOCKED: ENDBRANCH   1  11
DOCKED: TORSDOF 6
DOCKED: TER
DOCKED: ENDMDL
________________________________________________________________________________


    FINAL DOCKED STATE:
    ________________________


Run:   19 / 20
Time taken for this run:   0.020s

DOCKED: MODEL        19
DOCKED: USER    Run = 19
DOCKED: USER
DOCKED: USER    Estimated Free Energy of Binding    =  -7.18 kcal/mol  [=(1)+(2)+(3)-(4)]
DOCKED: USER
DOCKED: USER    (1) Final Intermolecular Energy     =  -8.97 kcal/mol
DOCKED: USER        vdW + Hbond + desolv Energy     =  -9.09 kcal/mol
DOCKED: USER        Electrostatic Energy            =  +0.12 kcal/mol
DOCKED: USER        Moving Ligand-Fixed Receptor    =  -8.97 kcal/mol
DOCKED: USER        Moving Ligand-Moving Receptor   =  +0.00 kcal/mol
DOCKED: USER    (2) Final Total Internal Energy     =  -0.61 kcal/mol
DOCKED: USER    (3) Torsional Free Energy           =  +1.79 kcal/mol
DOCKED: USER    (4) Unbound System's Energy         =  -0.61 kcal/mol
DOCKED: USER
DOCKED: USER
DOCKED: REMARK SMILES O=C([N-]CCOc1ccc2ccc(Cl)cc2c1)c1ccccn1
DOCKED: REMARK SMILES IDX 4 1 3 2 2 3 1 4 18 5 19 6 23 7 20 8 22 9 21 10 5 11 6 12
DOCKED: REMARK SMILES IDX 7 13 8 14 17 15 9 16 16 17 10 18 15 19 11 20 13 21 12 22
DOCKED: REMARK SMILES IDX 14 23
DOCKED: REMARK H PARENT
DOCKED: USER                              x       y       z     vdW  Elec       q    Type
DOCKED: USER                           _______ _______ _______ _____ _____    ______ ____
DOCKED: ROOT
DOCKED: ATOM      1  C   UNL     1     138.896  72.352 222.327 -0.20 +0.02    -0.075 C  
DOCKED: ENDROOT
DOCKED: BRANCH   1   2
DOCKED: ATOM      2  N   UNL     1     139.911  72.043 223.333 -0.09 +0.12    -0.645 NA 
DOCKED: BRANCH   2   3
DOCKED: ATOM      3  C   UNL     1     139.950  70.869 224.158 -0.36 -0.02    +0.101 C  
DOCKED: ATOM      4  O   UNL     1     139.718  69.750 223.628 -0.13 +0.06    -0.313 OA 
DOCKED: BRANCH   3   5
DOCKED: ATOM      5  C   UNL     1     140.278  70.919 225.594 -0.49 -0.01    +0.088 A  
DOCKED: ATOM      6  C   UNL     1     141.083  71.941 226.119 -0.57 -0.00    +0.030 A  
DOCKED: ATOM      7  N   UNL     1     139.743  69.989 226.432 -0.25 +0.04    -0.255 NA 
DOCKED: ATOM      8  C   UNL     1     141.358  71.961 227.487 -0.79 -0.00    +0.004 A  
DOCKED: ATOM      9  C   UNL     1     139.996  69.994 227.768 -0.52 -0.02    +0.112 A  
DOCKED: ATOM     10  C   UNL     1     140.817  70.980 228.319 -0.63 -0.00    +0.020 A  
DOCKED: ENDBRANCH   3   5
DOCKED: ENDBRANCH   2   3
DOCKED: ENDBRANCH   1   2
DOCKED: BRANCH   1  11
DOCKED: ATOM     11  C   UNL     1     139.460  73.273 221.249 -0.15 -0.04    +0.210 C  
DOCKED: BRANCH  11  12
DOCKED: ATOM     12  O   UNL     1     140.370  74.193 221.845 -0.63 +0.04    -0.495 OA 
DOCKED: BRANCH  12  13
DOCKED: ATOM     13  C   UNL     1     140.060  75.522 222.165 -0.20 -0.02    +0.119 A  
DOCKED: ATOM     14  C   UNL     1     138.715  75.908 222.165 -0.28 -0.01    +0.047 A  
DOCKED: ATOM     15  C   UNL     1     141.051  76.473 222.483 -0.26 -0.02    +0.055 A  
DOCKED: ATOM     16  C   UNL     1     138.346  77.217 222.483 -0.29 -0.00    +0.012 A  
DOCKED: ATOM     17  C   UNL     1     140.692  77.791 222.803 -0.41 +0.00    -0.013 A  
DOCKED: ATOM     18  C   UNL     1     139.327  78.166 222.805 -0.31 +0.00    -0.018 A  
DOCKED: ATOM     19  C   UNL     1     141.672  78.744 223.120 -0.55 -0.01    +0.029 A  
DOCKED: ATOM     20  C   UNL     1     138.967  79.483 223.130 -0.34 -0.00    +0.010 A  
DOCKED: ATOM     21  C   UNL     1     141.302  80.055 223.442 -0.52 -0.01    +0.041 A  
DOCKED: ATOM     22  C   UNL     1     139.953  80.421 223.447 -0.42 -0.00    +0.021 A  
DOCKED: ATOM     23  Cl  UNL     1     142.533  81.241 223.836 -0.71 +0.01    -0.084 Cl 
DOCKED: ENDBRANCH  12  13
DOCKED: ENDBRANCH  11  12
DOCKED: ENDBRANCH   1  11
DOCKED: TORSDOF 6
DOCKED: TER
DOCKED: ENDMDL
________________________________________________________________________________


    FINAL DOCKED STATE:
    ________________________


Run:   20 / 20
Time taken for this run:   0.020s

DOCKED: MODEL        20
DOCKED: USER    Run = 20
DOCKED: USER
DOCKED: USER    Estimated Free Energy of Binding    =  -7.17 kcal/mol  [=(1)+(2)+(3)-(4)]
DOCKED: USER
DOCKED: USER    (1) Final Intermolecular Energy     =  -8.96 kcal/mol
DOCKED: USER        vdW + Hbond + desolv Energy     =  -9.06 kcal/mol
DOCKED: USER        Electrostatic Energy            =  +0.11 kcal/mol
DOCKED: USER        Moving Ligand-Fixed Receptor    =  -8.96 kcal/mol
DOCKED: USER        Moving Ligand-Moving Receptor   =  +0.00 kcal/mol
DOCKED: USER    (2) Final Total Internal Energy     =  -0.52 kcal/mol
DOCKED: USER    (3) Torsional Free Energy           =  +1.79 kcal/mol
DOCKED: USER    (4) Unbound System's Energy         =  -0.52 kcal/mol
DOCKED: USER
DOCKED: USER
DOCKED: REMARK SMILES O=C([N-]CCOc1ccc2ccc(Cl)cc2c1)c1ccccn1
DOCKED: REMARK SMILES IDX 4 1 3 2 2 3 1 4 18 5 19 6 23 7 20 8 22 9 21 10 5 11 6 12
DOCKED: REMARK SMILES IDX 7 13 8 14 17 15 9 16 16 17 10 18 15 19 11 20 13 21 12 22
DOCKED: REMARK SMILES IDX 14 23
DOCKED: REMARK H PARENT
DOCKED: USER                              x       y       z     vdW  Elec       q    Type
DOCKED: USER                           _______ _______ _______ _____ _____    ______ ____
DOCKED: ROOT
DOCKED: ATOM      1  C   UNL     1     140.257  72.273 221.920 -0.26 +0.01    -0.075 C  
DOCKED: ENDROOT
DOCKED: BRANCH   1   2
DOCKED: ATOM      2  N   UNL     1     140.795  71.850 223.213 +0.01 +0.04    -0.645 NA 
DOCKED: BRANCH   2   3
DOCKED: ATOM      3  C   UNL     1     140.220  70.863 224.083 -0.34 -0.02    +0.101 C  
DOCKED: ATOM      4  O   UNL     1     139.558  69.921 223.573 -0.14 +0.06    -0.313 OA 
DOCKED: BRANCH   3   5
DOCKED: ATOM      5  C   UNL     1     140.398  70.896 225.545 -0.49 -0.01    +0.088 A  
DOCKED: ATOM      6  C   UNL     1     141.095  71.942 226.169 -0.58 -0.00    +0.030 A  
DOCKED: ATOM      7  N   UNL     1     139.826  69.923 226.306 -0.25 +0.04    -0.255 NA 
DOCKED: ATOM      8  C   UNL     1     141.228  71.943 227.558 -0.81 -0.00    +0.004 A  
DOCKED: ATOM      9  C   UNL     1     139.942  69.908 227.661 -0.51 -0.02    +0.112 A  
DOCKED: ATOM     10  C   UNL     1     140.654  70.919 228.312 -0.62 -0.00    +0.020 A  
DOCKED: ENDBRANCH   3   5
DOCKED: ENDBRANCH   2   3
DOCKED: ENDBRANCH   1   2
DOCKED: BRANCH   1  11
DOCKED: ATOM     11  C   UNL     1     140.538  73.752 221.672 -0.20 -0.02    +0.210 C  
DOCKED: BRANCH  11  12
DOCKED: ATOM     12  O   UNL     1     139.433  74.525 222.132 -0.55 +0.09    -0.495 OA 
DOCKED: BRANCH  12  13
DOCKED: ATOM     13  C   UNL     1     139.474  75.906 222.371 -0.28 -0.02    +0.119 A  
DOCKED: ATOM     14  C   UNL     1     138.276  76.627 222.300 -0.27 -0.01    +0.047 A  
DOCKED: ATOM     15  C   UNL     1     140.670  76.583 222.677 -0.27 -0.01    +0.055 A  
DOCKED: ATOM     16  C   UNL     1     138.255  78.003 222.537 -0.26 -0.00    +0.012 A  
DOCKED: ATOM     17  C   UNL     1     140.661  77.966 222.916 -0.39 +0.00    -0.013 A  
DOCKED: ATOM     18  C   UNL     1     139.442  78.682 222.847 -0.34 +0.00    -0.018 A  
DOCKED: ATOM     19  C   UNL     1     141.849  78.649 223.220 -0.55 -0.01    +0.029 A  
DOCKED: ATOM     20  C   UNL     1     139.432  80.064 223.090 -0.36 -0.00    +0.010 A  
DOCKED: ATOM     21  C   UNL     1     141.827  80.028 223.461 -0.58 -0.01    +0.041 A  
DOCKED: ATOM     22  C   UNL     1     140.620  80.732 223.396 -0.45 -0.00    +0.021 A  
DOCKED: ATOM     23  Cl  UNL     1     143.315  80.875 223.840 -0.55 +0.02    -0.084 Cl 
DOCKED: ENDBRANCH  12  13
DOCKED: ENDBRANCH  11  12
DOCKED: ENDBRANCH   1  11
DOCKED: TORSDOF 6
DOCKED: TER
DOCKED: ENDMDL
________________________________________________________________________________


    CLUSTERING HISTOGRAM
    ____________________


________________________________________________________________________________
     |           |     |           |     |
Clus | Lowest    | Run | Mean      | Num | Histogram
-ter | Binding   |     | Binding   | in  |
Rank | Energy    |     | Energy    | Clus|    5    10   15   20   25   30   35
_____|___________|_____|___________|_____|____:____|____:____|____:____|____:___
   1 |     -7.52 |   9 |     -7.27 |  16 |################
   2 |     -7.45 |  17 |     -7.41 |   2 |##
   3 |     -6.60 |   8 |     -6.60 |   1 |#
   4 |     -6.36 |  14 |     -6.36 |   1 |#
_____|___________|_____|___________|_____|______________________________________


    RMSD TABLE
    __________


_______________________________________________________________________
     |      |      |           |         |                 |
Rank | Sub- | Run  | Binding   | Cluster | Reference       | Grep
     | Rank |      | Energy    | RMSD    | RMSD            | Pattern
_____|______|______|___________|_________|_________________|___________
   1      1      9       -7.52      0.00    270.30           RANKING
   1      2     11       -7.51      0.18    270.26           RANKING
   1      3      6       -7.46      0.22    270.26           RANKING
   1      4     18       -7.38      0.50    270.20           RANKING
   1      5      7       -7.36      1.46    270.32           RANKING
   1      6     13       -7.31      1.27    270.31           RANKING
   1      7      1       -7.28      0.57    270.08           RANKING
   1      8     10       -7.28      0.62    270.11           RANKING
   1      9      5       -7.23      1.46    270.31           RANKING
   1     10      2       -7.22      1.42    270.26           RANKING
   1     11     19       -7.18      1.41    270.18           RANKING
   1     12     20       -7.17      1.42    270.33           RANKING
   1     13     16       -7.12      1.43    270.24           RANKING
   1     14     15       -7.11      1.36    270.20           RANKING
   1     15      4       -7.10      1.47    270.22           RANKING
   1     16      3       -7.10      1.37    270.28           RANKING
   2      1     17       -7.45      0.00    269.91           RANKING
   2      2     12       -7.36      0.20    269.94           RANKING
   3      1      8       -6.60      0.00    269.11           RANKING
   4      1     14       -6.36      0.00    268.37           RANKING

Run time 0.448 sec
Idle time 0.000 sec
