AutoDock-GPU version: v1.6

**********************************************************
**    AutoDock-GPU AUTODOCKTOOLS-COMPATIBLE DLG FILE    **
**********************************************************


    DOCKING PARAMETERS
    ________________________


Ligand file:                               /home/a/REINVENT4/ReinventStudies/pleaseWork/DH_paper_finaltest_rnv_als_qed_tani/graph-dock/graph-DockGPU/node-autodockgpu/inputs/WRBPVZICHJPYKP-CPLAJNSFNA-N.pdbqt
Grid fld file:                             /home/a/REINVENT4/ReinventStudies/mols/Rad51/maps/rad51_receptor.maps.fld

Random seed:                               42
Number of runs:                            20
Number of energy evaluations:              1259779
Number of generations:                     42000
Size of population:                        150
Rate of crossover:                         80.000000%
Tournament selection probability limit:    60.000000%
Rate of mutation:                          2.000000%
Maximal allowed delta movement:            +/- 6.000000A
Maximal allowed delta angle:               +/- 90.000000

Rate of local search:                      100.000000%
Maximal number of local search iterations: 300
Rho lower bound:                           0.010000
Spread of local search delta movement:     2.000000A
Spread of local search delta angle:        74.999999
Limit of consecutive successes/failures:   4

Handle symmetry during clustering:         YES
RMSD tolerance:                            2.000000A

Program call in command line was:          /home/a/REINVENT4/ReinventStudies/adgpu-v1.6_linux_x64_cuda12_128wi --filelist batch.txt --heuristics 1 --nrun 20 --psize 150 --lsit 300 --seed 42 --heurmax 12000000 


    GRID PARAMETERS
    ________________________


Receptor name:                             rad51_receptor
Number of grid points (x, y, z):           53, 53, 53
Grid center (x, y, z):                     139.950000, 75.640000, 221.970000A
Grid size (x, y, z):                       19.500000, 19.500000, 19.500000A
Grid spacing:                              0.375000A


    LIGAND PARAMETERS
    ________________________


Ligand name:                               /home/a/REINVENT4/ReinventStudies/pleaseWork/DH_paper_finaltest_rnv_als_qed_tani/graph-dock/graph-DockGPU/node-autodockgpu/inputs/WRBPVZICHJPYKP-CPLAJNSFNA-N
Number of atoms:                           24
Number of rotatable bonds:                 7
Number of atom types:                      6


    DUMMY DATA (only for ADT-compatibility)
    ________________________


DPF> outlev 1
DPF> ga_run 20
DPF> fld /home/a/REINVENT4/ReinventStudies/mols/Rad51/maps/rad51_receptor.maps.fld
DPF> move /home/a/REINVENT4/ReinventStudies/pleaseWork/DH_paper_finaltest_rnv_als_qed_tani/graph-dock/graph-DockGPU/node-autodockgpu/inputs/WRBPVZICHJPYKP-CPLAJNSFNA-N.pdbqt


    COUNTER STATES
    ________________________


Number of energy evaluations performed:    782313
Number of generations used:                40


    INPUT LIGAND PDBQT FILE:
    ________________________


INPUT-LIGAND-PDBQT: REMARK SMILES O/C(=N/CCOc1ccc2ccc(Cl)cc2c1)c1ccccn1
INPUT-LIGAND-PDBQT: REMARK SMILES IDX 4 1 3 2 2 3 1 4 18 6 23 7 19 8 22 9 20 10 21 11 5 12 6 13
INPUT-LIGAND-PDBQT: REMARK SMILES IDX 7 14 8 15 17 16 9 17 16 18 10 19 15 20 11 21 13 22 12 23
INPUT-LIGAND-PDBQT: REMARK SMILES IDX 14 24
INPUT-LIGAND-PDBQT: REMARK H PARENT 1 5
INPUT-LIGAND-PDBQT: ROOT
INPUT-LIGAND-PDBQT: ATOM      1  C   UNL     1       1.114   1.467  -1.349  1.00  0.00     0.188 C 
INPUT-LIGAND-PDBQT: ENDROOT
INPUT-LIGAND-PDBQT: BRANCH   1   2
INPUT-LIGAND-PDBQT: ATOM      2  N   UNL     1       1.431   2.074  -0.058  1.00  0.00    -0.246 NA
INPUT-LIGAND-PDBQT: BRANCH   2   3
INPUT-LIGAND-PDBQT: ATOM      3  C   UNL     1       0.682   2.916   0.596  1.00  0.00     0.232 C 
INPUT-LIGAND-PDBQT: BRANCH   3   4
INPUT-LIGAND-PDBQT: ATOM      4  O   UNL     1       1.156   3.463   1.785  1.00  0.00    -0.492 OA
INPUT-LIGAND-PDBQT: ATOM      5  H   UNL     1       2.065   3.207   2.154  1.00  0.00     0.295 HD
INPUT-LIGAND-PDBQT: ENDBRANCH   3   4
INPUT-LIGAND-PDBQT: BRANCH   3   6
INPUT-LIGAND-PDBQT: ATOM      6  C   UNL     1      -0.640   3.352   0.110  1.00  0.00     0.124 A 
INPUT-LIGAND-PDBQT: ATOM      7  N   UNL     1      -0.875   4.681  -0.063  1.00  0.00    -0.251 NA
INPUT-LIGAND-PDBQT: ATOM      8  C   UNL     1      -1.678   2.432  -0.106  1.00  0.00     0.034 A 
INPUT-LIGAND-PDBQT: ATOM      9  C   UNL     1      -2.082   5.150  -0.479  1.00  0.00     0.112 A 
INPUT-LIGAND-PDBQT: ATOM     10  C   UNL     1      -2.923   2.894  -0.537  1.00  0.00     0.004 A 
INPUT-LIGAND-PDBQT: ATOM     11  C   UNL     1      -3.129   4.260  -0.730  1.00  0.00     0.020 A 
INPUT-LIGAND-PDBQT: ENDBRANCH   3   6
INPUT-LIGAND-PDBQT: ENDBRANCH   2   3
INPUT-LIGAND-PDBQT: ENDBRANCH   1   2
INPUT-LIGAND-PDBQT: BRANCH   1  12
INPUT-LIGAND-PDBQT: ATOM     12  C   UNL     1       2.332   0.707  -1.875  1.00  0.00     0.253 C 
INPUT-LIGAND-PDBQT: BRANCH  12  13
INPUT-LIGAND-PDBQT: ATOM     13  O   UNL     1       2.734  -0.313  -0.959  1.00  0.00    -0.492 OA
INPUT-LIGAND-PDBQT: BRANCH  13  14
INPUT-LIGAND-PDBQT: ATOM     14  C   UNL     1       2.066  -1.529  -0.743  1.00  0.00     0.120 A 
INPUT-LIGAND-PDBQT: ATOM     15  C   UNL     1       0.981  -1.953  -1.535  1.00  0.00     0.047 A 
INPUT-LIGAND-PDBQT: ATOM     16  C   UNL     1       2.513  -2.348   0.301  1.00  0.00     0.055 A 
INPUT-LIGAND-PDBQT: ATOM     17  C   UNL     1       0.348  -3.172  -1.276  1.00  0.00     0.012 A 
INPUT-LIGAND-PDBQT: ATOM     18  C   UNL     1       1.885  -3.574   0.568  1.00  0.00    -0.013 A 
INPUT-LIGAND-PDBQT: ATOM     19  C   UNL     1       0.791  -3.989  -0.227  1.00  0.00    -0.018 A 
INPUT-LIGAND-PDBQT: ATOM     20  C   UNL     1       2.331  -4.393   1.618  1.00  0.00     0.029 A 
INPUT-LIGAND-PDBQT: ATOM     21  C   UNL     1       0.163  -5.215   0.041  1.00  0.00     0.010 A 
INPUT-LIGAND-PDBQT: ATOM     22  C   UNL     1       1.697  -5.613   1.875  1.00  0.00     0.041 A 
INPUT-LIGAND-PDBQT: ATOM     23  C   UNL     1       0.615  -6.022   1.088  1.00  0.00     0.021 A 
INPUT-LIGAND-PDBQT: ATOM     24  Cl  UNL     1       2.260  -6.633   3.187  1.00  0.00    -0.084 Cl
INPUT-LIGAND-PDBQT: ENDBRANCH  13  14
INPUT-LIGAND-PDBQT: ENDBRANCH  12  13
INPUT-LIGAND-PDBQT: ENDBRANCH   1  12
INPUT-LIGAND-PDBQT: TORSDOF 7


    FINAL DOCKED STATE:
    ________________________


Run:   1 / 20
Time taken for this run:   0.027s

DOCKED: MODEL        1
DOCKED: USER    Run = 1
DOCKED: USER
DOCKED: USER    Estimated Free Energy of Binding    =  -7.37 kcal/mol  [=(1)+(2)+(3)-(4)]
DOCKED: USER
DOCKED: USER    (1) Final Intermolecular Energy     =  -9.45 kcal/mol
DOCKED: USER        vdW + Hbond + desolv Energy     =  -9.41 kcal/mol
DOCKED: USER        Electrostatic Energy            =  -0.04 kcal/mol
DOCKED: USER        Moving Ligand-Fixed Receptor    =  -9.45 kcal/mol
DOCKED: USER        Moving Ligand-Moving Receptor   =  +0.00 kcal/mol
DOCKED: USER    (2) Final Total Internal Energy     =  -1.21 kcal/mol
DOCKED: USER    (3) Torsional Free Energy           =  +2.09 kcal/mol
DOCKED: USER    (4) Unbound System's Energy         =  -1.21 kcal/mol
DOCKED: USER
DOCKED: USER
DOCKED: REMARK SMILES O/C(=N/CCOc1ccc2ccc(Cl)cc2c1)c1ccccn1
DOCKED: REMARK SMILES IDX 4 1 3 2 2 3 1 4 18 6 23 7 19 8 22 9 20 10 21 11 5 12 6 13
DOCKED: REMARK SMILES IDX 7 14 8 15 17 16 9 17 16 18 10 19 15 20 11 21 13 22 12 23
DOCKED: REMARK SMILES IDX 14 24
DOCKED: REMARK H PARENT 1 5
DOCKED: USER                              x       y       z     vdW  Elec       q    Type
DOCKED: USER                           _______ _______ _______ _____ _____    ______ ____
DOCKED: ROOT
DOCKED: ATOM      1  C   UNL     1     140.373  74.183 220.562 -0.14 -0.04    +0.188 C  
DOCKED: ENDROOT
DOCKED: BRANCH   1   2
DOCKED: ATOM      2  N   UNL     1     140.828  75.540 220.858 -0.16 +0.07    -0.246 NA 
DOCKED: BRANCH   2   3
DOCKED: ATOM      3  C   UNL     1     140.461  76.265 221.877 -0.27 -0.06    +0.232 C  
DOCKED: BRANCH   3   4
DOCKED: ATOM      4  O   UNL     1     139.494  75.770 222.747 -0.31 +0.07    -0.492 OA 
DOCKED: ATOM      5  H   UNL     1     139.533  74.815 223.086 -0.42 -0.02    +0.295 HD 
DOCKED: ENDBRANCH   3   4
DOCKED: BRANCH   3   6
DOCKED: ATOM      6  C   UNL     1     141.057  77.580 222.176 -0.35 -0.05    +0.124 A  
DOCKED: ATOM      7  N   UNL     1     141.322  77.906 223.470 -0.25 +0.08    -0.251 NA 
DOCKED: ATOM      8  C   UNL     1     141.286  78.525 221.164 -0.32 -0.02    +0.034 A  
DOCKED: ATOM      9  C   UNL     1     141.843  79.114 223.815 -0.53 -0.03    +0.112 A  
DOCKED: ATOM     10  C   UNL     1     141.824  79.769 221.498 -0.43 -0.00    +0.004 A  
DOCKED: ATOM     11  C   UNL     1     142.109  80.068 222.830 -0.58 -0.01    +0.020 A  
DOCKED: ENDBRANCH   3   6
DOCKED: ENDBRANCH   2   3
DOCKED: ENDBRANCH   1   2
DOCKED: BRANCH   1  12
DOCKED: ATOM     12  C   UNL     1     141.055  73.193 221.506 -0.18 -0.02    +0.253 C  
DOCKED: BRANCH  12  13
DOCKED: ATOM     13  O   UNL     1     140.322  73.059 222.725 -0.57 +0.01    -0.492 OA 
DOCKED: BRANCH  13  14
DOCKED: ATOM     14  C   UNL     1     139.959  71.846 223.333 -0.31 -0.02    +0.120 A  
DOCKED: ATOM     15  C   UNL     1     139.078  70.926 222.731 -0.22 -0.01    +0.047 A  
DOCKED: ATOM     16  C   UNL     1     140.510  71.548 224.585 -0.44 -0.01    +0.055 A  
DOCKED: ATOM     17  C   UNL     1     138.747  69.733 223.380 -0.25 -0.00    +0.012 A  
DOCKED: ATOM     18  C   UNL     1     140.185  70.353 225.244 -0.47 +0.00    -0.013 A  
DOCKED: ATOM     19  C   UNL     1     139.293  69.438 224.637 -0.35 +0.00    -0.018 A  
DOCKED: ATOM     20  C   UNL     1     140.735  70.057 226.502 -0.54 -0.00    +0.029 A  
DOCKED: ATOM     21  C   UNL     1     138.968  68.243 225.297 -0.43 -0.00    +0.010 A  
DOCKED: ATOM     22  C   UNL     1     140.403  68.862 227.150 -0.59 -0.01    +0.041 A  
DOCKED: ATOM     23  C   UNL     1     139.521  67.958 226.548 -0.60 -0.00    +0.021 A  
DOCKED: ATOM     24  Cl  UNL     1     141.094  68.496 228.720 -0.70 +0.02    -0.084 Cl 
DOCKED: ENDBRANCH  13  14
DOCKED: ENDBRANCH  12  13
DOCKED: ENDBRANCH   1  12
DOCKED: TORSDOF 7
DOCKED: TER
DOCKED: ENDMDL
________________________________________________________________________________


    FINAL DOCKED STATE:
    ________________________


Run:   2 / 20
Time taken for this run:   0.027s

DOCKED: MODEL        2
DOCKED: USER    Run = 2
DOCKED: USER
DOCKED: USER    Estimated Free Energy of Binding    =  -6.87 kcal/mol  [=(1)+(2)+(3)-(4)]
DOCKED: USER
DOCKED: USER    (1) Final Intermolecular Energy     =  -8.96 kcal/mol
DOCKED: USER        vdW + Hbond + desolv Energy     =  -8.85 kcal/mol
DOCKED: USER        Electrostatic Energy            =  -0.12 kcal/mol
DOCKED: USER        Moving Ligand-Fixed Receptor    =  -8.96 kcal/mol
DOCKED: USER        Moving Ligand-Moving Receptor   =  +0.00 kcal/mol
DOCKED: USER    (2) Final Total Internal Energy     =  -0.68 kcal/mol
DOCKED: USER    (3) Torsional Free Energy           =  +2.09 kcal/mol
DOCKED: USER    (4) Unbound System's Energy         =  -0.68 kcal/mol
DOCKED: USER
DOCKED: USER
DOCKED: REMARK SMILES O/C(=N/CCOc1ccc2ccc(Cl)cc2c1)c1ccccn1
DOCKED: REMARK SMILES IDX 4 1 3 2 2 3 1 4 18 6 23 7 19 8 22 9 20 10 21 11 5 12 6 13
DOCKED: REMARK SMILES IDX 7 14 8 15 17 16 9 17 16 18 10 19 15 20 11 21 13 22 12 23
DOCKED: REMARK SMILES IDX 14 24
DOCKED: REMARK H PARENT 1 5
DOCKED: USER                              x       y       z     vdW  Elec       q    Type
DOCKED: USER                           _______ _______ _______ _____ _____    ______ ____
DOCKED: ROOT
DOCKED: ATOM      1  C   UNL     1     140.406  75.150 220.603 -0.16 -0.05    +0.188 C  
DOCKED: ENDROOT
DOCKED: BRANCH   1   2
DOCKED: ATOM      2  N   UNL     1     140.368  76.611 220.601 -0.09 +0.08    -0.246 NA 
DOCKED: BRANCH   2   3
DOCKED: ATOM      3  C   UNL     1     141.399  77.403 220.685 -0.20 -0.12    +0.232 C  
DOCKED: BRANCH   3   4
DOCKED: ATOM      4  O   UNL     1     142.365  77.367 219.683 -0.12 +0.33    -0.492 OA 
DOCKED: ATOM      5  H   UNL     1     143.203  77.934 219.742 -0.35 -0.32    +0.295 HD 
DOCKED: ENDBRANCH   3   4
DOCKED: BRANCH   3   6
DOCKED: ATOM      6  C   UNL     1     141.573  78.374 221.781 -0.31 -0.06    +0.124 A  
DOCKED: ATOM      7  N   UNL     1     142.185  79.561 221.521 -0.24 +0.14    -0.251 NA 
DOCKED: ATOM      8  C   UNL     1     141.186  78.068 223.095 -0.47 -0.01    +0.034 A  
DOCKED: ATOM      9  C   UNL     1     142.403  80.487 222.493 -0.50 -0.03    +0.112 A  
DOCKED: ATOM     10  C   UNL     1     141.398  79.007 224.106 -0.56 -0.00    +0.004 A  
DOCKED: ATOM     11  C   UNL     1     142.005  80.226 223.807 -0.61 -0.00    +0.020 A  
DOCKED: ENDBRANCH   3   6
DOCKED: ENDBRANCH   2   3
DOCKED: ENDBRANCH   1   2
DOCKED: BRANCH   1  12
DOCKED: ATOM     12  C   UNL     1     139.964  74.624 221.969 -0.13 -0.03    +0.253 C  
DOCKED: BRANCH  12  13
DOCKED: ATOM     13  O   UNL     1     140.630  73.401 222.287 -0.63 -0.01    -0.492 OA 
DOCKED: BRANCH  13  14
DOCKED: ATOM     14  C   UNL     1     140.050  72.296 222.931 -0.28 -0.02    +0.120 A  
DOCKED: ATOM     15  C   UNL     1     138.911  71.636 222.432 -0.21 -0.01    +0.047 A  
DOCKED: ATOM     16  C   UNL     1     140.645  71.838 224.112 -0.32 -0.01    +0.055 A  
DOCKED: ATOM     17  C   UNL     1     138.370  70.542 223.113 -0.23 -0.00    +0.012 A  
DOCKED: ATOM     18  C   UNL     1     140.111  70.739 224.803 -0.46 +0.00    -0.013 A  
DOCKED: ATOM     19  C   UNL     1     138.962  70.086 224.300 -0.33 +0.00    -0.018 A  
DOCKED: ATOM     20  C   UNL     1     140.705  70.283 225.991 -0.53 -0.00    +0.029 A  
DOCKED: ATOM     21  C   UNL     1     138.428  68.988 224.991 -0.37 -0.00    +0.010 A  
DOCKED: ATOM     22  C   UNL     1     140.164  69.187 226.671 -0.53 -0.01    +0.041 A  
DOCKED: ATOM     23  C   UNL     1     139.027  68.542 226.172 -0.45 -0.00    +0.021 A  
DOCKED: ATOM     24  Cl  UNL     1     140.912  68.619 228.153 -0.78 +0.02    -0.084 Cl 
DOCKED: ENDBRANCH  13  14
DOCKED: ENDBRANCH  12  13
DOCKED: ENDBRANCH   1  12
DOCKED: TORSDOF 7
DOCKED: TER
DOCKED: ENDMDL
________________________________________________________________________________


    FINAL DOCKED STATE:
    ________________________


Run:   3 / 20
Time taken for this run:   0.027s

DOCKED: MODEL        3
DOCKED: USER    Run = 3
DOCKED: USER
DOCKED: USER    Estimated Free Energy of Binding    =  -7.40 kcal/mol  [=(1)+(2)+(3)-(4)]
DOCKED: USER
DOCKED: USER    (1) Final Intermolecular Energy     =  -9.48 kcal/mol
DOCKED: USER        vdW + Hbond + desolv Energy     =  -9.39 kcal/mol
DOCKED: USER        Electrostatic Energy            =  -0.09 kcal/mol
DOCKED: USER        Moving Ligand-Fixed Receptor    =  -9.48 kcal/mol
DOCKED: USER        Moving Ligand-Moving Receptor   =  +0.00 kcal/mol
DOCKED: USER    (2) Final Total Internal Energy     =  -1.20 kcal/mol
DOCKED: USER    (3) Torsional Free Energy           =  +2.09 kcal/mol
DOCKED: USER    (4) Unbound System's Energy         =  -1.20 kcal/mol
DOCKED: USER
DOCKED: USER
DOCKED: REMARK SMILES O/C(=N/CCOc1ccc2ccc(Cl)cc2c1)c1ccccn1
DOCKED: REMARK SMILES IDX 4 1 3 2 2 3 1 4 18 6 23 7 19 8 22 9 20 10 21 11 5 12 6 13
DOCKED: REMARK SMILES IDX 7 14 8 15 17 16 9 17 16 18 10 19 15 20 11 21 13 22 12 23
DOCKED: REMARK SMILES IDX 14 24
DOCKED: REMARK H PARENT 1 5
DOCKED: USER                              x       y       z     vdW  Elec       q    Type
DOCKED: USER                           _______ _______ _______ _____ _____    ______ ____
DOCKED: ROOT
DOCKED: ATOM      1  C   UNL     1     141.232  74.267 220.846 -0.21 -0.04    +0.188 C  
DOCKED: ENDROOT
DOCKED: BRANCH   1   2
DOCKED: ATOM      2  N   UNL     1     141.440  75.198 221.953 -0.30 +0.05    -0.246 NA 
DOCKED: BRANCH   2   3
DOCKED: ATOM      3  C   UNL     1     140.631  76.154 222.311 -0.19 -0.06    +0.232 C  
DOCKED: BRANCH   3   4
DOCKED: ATOM      4  O   UNL     1     139.347  75.831 222.739 -0.29 +0.08    -0.492 OA 
DOCKED: ATOM      5  H   UNL     1     139.124  74.900 223.073 -0.45 -0.09    +0.295 HD 
DOCKED: ENDBRANCH   3   4
DOCKED: BRANCH   3   6
DOCKED: ATOM      6  C   UNL     1     141.030  77.574 222.322 -0.36 -0.05    +0.124 A  
DOCKED: ATOM      7  N   UNL     1     141.058  78.261 221.148 -0.15 +0.11    -0.251 NA 
DOCKED: ATOM      8  C   UNL     1     141.449  78.205 223.503 -0.48 -0.01    +0.034 A  
DOCKED: ATOM      9  C   UNL     1     141.446  79.563 221.086 -0.29 -0.05    +0.112 A  
DOCKED: ATOM     10  C   UNL     1     141.847  79.543 223.461 -0.61 -0.00    +0.004 A  
DOCKED: ATOM     11  C   UNL     1     141.843  80.231 222.247 -0.50 -0.01    +0.020 A  
DOCKED: ENDBRANCH   3   6
DOCKED: ENDBRANCH   2   3
DOCKED: ENDBRANCH   1   2
DOCKED: BRANCH   1  12
DOCKED: ATOM     12  C   UNL     1     140.203  73.210 221.247 -0.16 -0.04    +0.253 C  
DOCKED: BRANCH  12  13
DOCKED: ATOM     13  O   UNL     1     140.176  73.032 222.664 -0.59 +0.03    -0.492 OA 
DOCKED: BRANCH  13  14
DOCKED: ATOM     14  C   UNL     1     139.837  71.846 223.335 -0.30 -0.02    +0.120 A  
DOCKED: ATOM     15  C   UNL     1     138.888  70.933 222.834 -0.22 -0.01    +0.047 A  
DOCKED: ATOM     16  C   UNL     1     140.483  71.568 224.545 -0.43 -0.01    +0.055 A  
DOCKED: ATOM     17  C   UNL     1     138.584  69.767 223.543 -0.26 -0.00    +0.012 A  
DOCKED: ATOM     18  C   UNL     1     140.186  70.399 225.263 -0.48 +0.00    -0.013 A  
DOCKED: ATOM     19  C   UNL     1     139.226  69.491 224.758 -0.36 +0.00    -0.018 A  
DOCKED: ATOM     20  C   UNL     1     140.830  70.123 226.480 -0.55 -0.00    +0.029 A  
DOCKED: ATOM     21  C   UNL     1     138.928  68.323 225.477 -0.44 -0.00    +0.010 A  
DOCKED: ATOM     22  C   UNL     1     140.526  68.955 227.187 -0.59 -0.01    +0.041 A  
DOCKED: ATOM     23  C   UNL     1     139.576  68.058 226.686 -0.61 -0.00    +0.021 A  
DOCKED: ATOM     24  Cl  UNL     1     141.336  68.614 228.705 -0.57 +0.02    -0.084 Cl 
DOCKED: ENDBRANCH  13  14
DOCKED: ENDBRANCH  12  13
DOCKED: ENDBRANCH   1  12
DOCKED: TORSDOF 7
DOCKED: TER
DOCKED: ENDMDL
________________________________________________________________________________


    FINAL DOCKED STATE:
    ________________________


Run:   4 / 20
Time taken for this run:   0.027s

DOCKED: MODEL        4
DOCKED: USER    Run = 4
DOCKED: USER
DOCKED: USER    Estimated Free Energy of Binding    =  -7.26 kcal/mol  [=(1)+(2)+(3)-(4)]
DOCKED: USER
DOCKED: USER    (1) Final Intermolecular Energy     =  -9.35 kcal/mol
DOCKED: USER        vdW + Hbond + desolv Energy     =  -9.25 kcal/mol
DOCKED: USER        Electrostatic Energy            =  -0.10 kcal/mol
DOCKED: USER        Moving Ligand-Fixed Receptor    =  -9.35 kcal/mol
DOCKED: USER        Moving Ligand-Moving Receptor   =  +0.00 kcal/mol
DOCKED: USER    (2) Final Total Internal Energy     =  -0.74 kcal/mol
DOCKED: USER    (3) Torsional Free Energy           =  +2.09 kcal/mol
DOCKED: USER    (4) Unbound System's Energy         =  -0.74 kcal/mol
DOCKED: USER
DOCKED: USER
DOCKED: REMARK SMILES O/C(=N/CCOc1ccc2ccc(Cl)cc2c1)c1ccccn1
DOCKED: REMARK SMILES IDX 4 1 3 2 2 3 1 4 18 6 23 7 19 8 22 9 20 10 21 11 5 12 6 13
DOCKED: REMARK SMILES IDX 7 14 8 15 17 16 9 17 16 18 10 19 15 20 11 21 13 22 12 23
DOCKED: REMARK SMILES IDX 14 24
DOCKED: REMARK H PARENT 1 5
DOCKED: USER                              x       y       z     vdW  Elec       q    Type
DOCKED: USER                           _______ _______ _______ _____ _____    ______ ____
DOCKED: ROOT
DOCKED: ATOM      1  C   UNL     1     140.435  74.894 221.023 -0.21 -0.04    +0.188 C  
DOCKED: ENDROOT
DOCKED: BRANCH   1   2
DOCKED: ATOM      2  N   UNL     1     140.370  76.252 221.558 -0.22 +0.07    -0.246 NA 
DOCKED: BRANCH   2   3
DOCKED: ATOM      3  C   UNL     1     141.283  77.172 221.424 -0.16 -0.12    +0.232 C  
DOCKED: BRANCH   3   4
DOCKED: ATOM      4  O   UNL     1     142.260  77.020 220.443 -0.10 +0.34    -0.492 OA 
DOCKED: ATOM      5  H   UNL     1     143.092  77.599 220.437 -0.35 -0.32    +0.295 HD 
DOCKED: ENDBRANCH   3   4
DOCKED: BRANCH   3   6
DOCKED: ATOM      6  C   UNL     1     141.307  78.398 222.242 -0.37 -0.05    +0.124 A  
DOCKED: ATOM      7  N   UNL     1     142.430  79.167 222.248 -0.29 +0.14    -0.251 NA 
DOCKED: ATOM      8  C   UNL     1     140.227  78.746 223.068 -0.40 -0.01    +0.034 A  
DOCKED: ATOM      9  C   UNL     1     142.527  80.293 223.004 -0.55 -0.03    +0.112 A  
DOCKED: ATOM     10  C   UNL     1     140.306  79.900 223.849 -0.45 -0.00    +0.004 A  
DOCKED: ATOM     11  C   UNL     1     141.460  80.683 223.817 -0.53 -0.00    +0.020 A  
DOCKED: ENDBRANCH   3   6
DOCKED: ENDBRANCH   2   3
DOCKED: ENDBRANCH   1   2
DOCKED: BRANCH   1  12
DOCKED: ATOM     12  C   UNL     1     139.611  73.953 221.902 -0.18 -0.04    +0.253 C  
DOCKED: BRANCH  12  13
DOCKED: ATOM     13  O   UNL     1     140.457  73.131 222.707 -0.55 -0.01    -0.492 OA 
DOCKED: BRANCH  13  14
DOCKED: ATOM     14  C   UNL     1     140.096  71.903 223.286 -0.31 -0.02    +0.120 A  
DOCKED: ATOM     15  C   UNL     1     139.259  70.973 222.640 -0.23 -0.01    +0.047 A  
DOCKED: ATOM     16  C   UNL     1     140.603  71.602 224.556 -0.41 -0.01    +0.055 A  
DOCKED: ATOM     17  C   UNL     1     138.927  69.766 223.262 -0.24 -0.00    +0.012 A  
DOCKED: ATOM     18  C   UNL     1     140.277  70.392 225.188 -0.48 +0.00    -0.013 A  
DOCKED: ATOM     19  C   UNL     1     139.429  69.467 224.535 -0.34 +0.00    -0.018 A  
DOCKED: ATOM     20  C   UNL     1     140.782  70.092 226.463 -0.54 -0.00    +0.029 A  
DOCKED: ATOM     21  C   UNL     1     139.103  68.257 225.168 -0.43 -0.00    +0.010 A  
DOCKED: ATOM     22  C   UNL     1     140.450  68.883 227.084 -0.59 -0.01    +0.041 A  
DOCKED: ATOM     23  C   UNL     1     139.611  67.969 226.437 -0.62 -0.00    +0.021 A  
DOCKED: ATOM     24  Cl  UNL     1     141.086  68.512 228.676 -0.71 +0.02    -0.084 Cl 
DOCKED: ENDBRANCH  13  14
DOCKED: ENDBRANCH  12  13
DOCKED: ENDBRANCH   1  12
DOCKED: TORSDOF 7
DOCKED: TER
DOCKED: ENDMDL
________________________________________________________________________________


    FINAL DOCKED STATE:
    ________________________


Run:   5 / 20
Time taken for this run:   0.027s

DOCKED: MODEL        5
DOCKED: USER    Run = 5
DOCKED: USER
DOCKED: USER    Estimated Free Energy of Binding    =  -7.30 kcal/mol  [=(1)+(2)+(3)-(4)]
DOCKED: USER
DOCKED: USER    (1) Final Intermolecular Energy     =  -9.39 kcal/mol
DOCKED: USER        vdW + Hbond + desolv Energy     =  -9.35 kcal/mol
DOCKED: USER        Electrostatic Energy            =  -0.03 kcal/mol
DOCKED: USER        Moving Ligand-Fixed Receptor    =  -9.39 kcal/mol
DOCKED: USER        Moving Ligand-Moving Receptor   =  +0.00 kcal/mol
DOCKED: USER    (2) Final Total Internal Energy     =  -1.25 kcal/mol
DOCKED: USER    (3) Torsional Free Energy           =  +2.09 kcal/mol
DOCKED: USER    (4) Unbound System's Energy         =  -1.25 kcal/mol
DOCKED: USER
DOCKED: USER
DOCKED: REMARK SMILES O/C(=N/CCOc1ccc2ccc(Cl)cc2c1)c1ccccn1
DOCKED: REMARK SMILES IDX 4 1 3 2 2 3 1 4 18 6 23 7 19 8 22 9 20 10 21 11 5 12 6 13
DOCKED: REMARK SMILES IDX 7 14 8 15 17 16 9 17 16 18 10 19 15 20 11 21 13 22 12 23
DOCKED: REMARK SMILES IDX 14 24
DOCKED: REMARK H PARENT 1 5
DOCKED: USER                              x       y       z     vdW  Elec       q    Type
DOCKED: USER                           _______ _______ _______ _____ _____    ______ ____
DOCKED: ROOT
DOCKED: ATOM      1  C   UNL     1     140.408  74.070 220.533 -0.13 -0.04    +0.188 C  
DOCKED: ENDROOT
DOCKED: BRANCH   1   2
DOCKED: ATOM      2  N   UNL     1     140.712  75.481 220.759 -0.14 +0.07    -0.246 NA 
DOCKED: BRANCH   2   3
DOCKED: ATOM      3  C   UNL     1     140.412  76.167 221.825 -0.27 -0.06    +0.232 C  
DOCKED: BRANCH   3   4
DOCKED: ATOM      4  O   UNL     1     139.480  75.653 222.722 -0.36 +0.07    -0.492 OA 
DOCKED: ATOM      5  H   UNL     1     139.555  74.703 223.069 -0.42 -0.01    +0.295 HD 
DOCKED: ENDBRANCH   3   4
DOCKED: BRANCH   3   6
DOCKED: ATOM      6  C   UNL     1     141.049  77.457 222.150 -0.34 -0.05    +0.124 A  
DOCKED: ATOM      7  N   UNL     1     141.341  77.741 223.448 -0.19 +0.09    -0.251 NA 
DOCKED: ATOM      8  C   UNL     1     141.292  78.421 221.159 -0.32 -0.02    +0.034 A  
DOCKED: ATOM      9  C   UNL     1     141.900  78.924 223.818 -0.51 -0.03    +0.112 A  
DOCKED: ATOM     10  C   UNL     1     141.869  79.640 221.518 -0.42 -0.00    +0.004 A  
DOCKED: ATOM     11  C   UNL     1     142.181  79.896 222.854 -0.59 -0.01    +0.020 A  
DOCKED: ENDBRANCH   3   6
DOCKED: ENDBRANCH   2   3
DOCKED: ENDBRANCH   1   2
DOCKED: BRANCH   1  12
DOCKED: ATOM     12  C   UNL     1     141.110  73.215 221.589 -0.18 -0.02    +0.253 C  
DOCKED: BRANCH  12  13
DOCKED: ATOM     13  O   UNL     1     140.288  73.054 222.746 -0.56 +0.01    -0.492 OA 
DOCKED: BRANCH  13  14
DOCKED: ATOM     14  C   UNL     1     139.944  71.830 223.342 -0.31 -0.02    +0.120 A  
DOCKED: ATOM     15  C   UNL     1     139.087  70.897 222.726 -0.22 -0.01    +0.047 A  
DOCKED: ATOM     16  C   UNL     1     140.489  71.533 224.597 -0.44 -0.01    +0.055 A  
DOCKED: ATOM     17  C   UNL     1     138.774  69.693 223.363 -0.25 -0.00    +0.012 A  
DOCKED: ATOM     18  C   UNL     1     140.181  70.327 225.245 -0.47 +0.00    -0.013 A  
DOCKED: ATOM     19  C   UNL     1     139.314  69.399 224.622 -0.35 +0.00    -0.018 A  
DOCKED: ATOM     20  C   UNL     1     140.725  70.033 226.505 -0.54 -0.00    +0.029 A  
DOCKED: ATOM     21  C   UNL     1     139.006  68.193 225.271 -0.43 -0.00    +0.010 A  
DOCKED: ATOM     22  C   UNL     1     140.411  68.827 227.141 -0.60 -0.01    +0.041 A  
DOCKED: ATOM     23  C   UNL     1     139.553  67.910 226.525 -0.62 -0.00    +0.021 A  
DOCKED: ATOM     24  Cl  UNL     1     141.095  68.464 228.716 -0.70 +0.02    -0.084 Cl 
DOCKED: ENDBRANCH  13  14
DOCKED: ENDBRANCH  12  13
DOCKED: ENDBRANCH   1  12
DOCKED: TORSDOF 7
DOCKED: TER
DOCKED: ENDMDL
________________________________________________________________________________


    FINAL DOCKED STATE:
    ________________________


Run:   6 / 20
Time taken for this run:   0.027s

DOCKED: MODEL        6
DOCKED: USER    Run = 6
DOCKED: USER
DOCKED: USER    Estimated Free Energy of Binding    =  -6.66 kcal/mol  [=(1)+(2)+(3)-(4)]
DOCKED: USER
DOCKED: USER    (1) Final Intermolecular Energy     =  -8.75 kcal/mol
DOCKED: USER        vdW + Hbond + desolv Energy     =  -8.73 kcal/mol
DOCKED: USER        Electrostatic Energy            =  -0.02 kcal/mol
DOCKED: USER        Moving Ligand-Fixed Receptor    =  -8.75 kcal/mol
DOCKED: USER        Moving Ligand-Moving Receptor   =  +0.00 kcal/mol
DOCKED: USER    (2) Final Total Internal Energy     =  -0.96 kcal/mol
DOCKED: USER    (3) Torsional Free Energy           =  +2.09 kcal/mol
DOCKED: USER    (4) Unbound System's Energy         =  -0.96 kcal/mol
DOCKED: USER
DOCKED: USER
DOCKED: REMARK SMILES O/C(=N/CCOc1ccc2ccc(Cl)cc2c1)c1ccccn1
DOCKED: REMARK SMILES IDX 4 1 3 2 2 3 1 4 18 6 23 7 19 8 22 9 20 10 21 11 5 12 6 13
DOCKED: REMARK SMILES IDX 7 14 8 15 17 16 9 17 16 18 10 19 15 20 11 21 13 22 12 23
DOCKED: REMARK SMILES IDX 14 24
DOCKED: REMARK H PARENT 1 5
DOCKED: USER                              x       y       z     vdW  Elec       q    Type
DOCKED: USER                           _______ _______ _______ _____ _____    ______ ____
DOCKED: ROOT
DOCKED: ATOM      1  C   UNL     1     141.100  72.986 221.764 -0.18 -0.01    +0.188 C  
DOCKED: ENDROOT
DOCKED: BRANCH   1   2
DOCKED: ATOM      2  N   UNL     1     140.665  72.633 223.113 -0.36 +0.00    -0.246 NA 
DOCKED: BRANCH   2   3
DOCKED: ATOM      3  C   UNL     1     140.328  71.442 223.521 -0.26 -0.03    +0.232 C  
DOCKED: BRANCH   3   4
DOCKED: ATOM      4  O   UNL     1     139.866  70.513 222.593 -0.05 +0.08    -0.492 OA 
DOCKED: ATOM      5  H   UNL     1     139.611  69.573 222.875 +0.09 -0.06    +0.295 HD 
DOCKED: ENDBRANCH   3   4
DOCKED: BRANCH   3   6
DOCKED: ATOM      6  C   UNL     1     140.454  71.015 224.927 -0.43 -0.02    +0.124 A  
DOCKED: ATOM      7  N   UNL     1     140.001  69.784 225.287 -0.22 +0.04    -0.251 NA 
DOCKED: ATOM      8  C   UNL     1     140.962  71.879 225.910 -0.54 -0.00    +0.034 A  
DOCKED: ATOM      9  C   UNL     1     140.059  69.342 226.572 -0.45 -0.02    +0.112 A  
DOCKED: ATOM     10  C   UNL     1     141.034  71.443 227.234 -0.76 -0.00    +0.004 A  
DOCKED: ATOM     11  C   UNL     1     140.585  70.166 227.570 -0.61 -0.00    +0.020 A  
DOCKED: ENDBRANCH   3   6
DOCKED: ENDBRANCH   2   3
DOCKED: ENDBRANCH   1   2
DOCKED: BRANCH   1  12
DOCKED: ATOM     12  C   UNL     1     140.113  73.978 221.146 -0.17 -0.04    +0.253 C  
DOCKED: BRANCH  12  13
DOCKED: ATOM     13  O   UNL     1     139.331  74.617 222.156 -0.50 +0.09    -0.492 OA 
DOCKED: BRANCH  13  14
DOCKED: ATOM     14  C   UNL     1     139.304  75.996 222.420 -0.27 -0.02    +0.120 A  
DOCKED: ATOM     15  C   UNL     1     138.112  76.746 222.432 -0.27 -0.01    +0.047 A  
DOCKED: ATOM     16  C   UNL     1     140.520  76.637 222.690 -0.27 -0.01    +0.055 A  
DOCKED: ATOM     17  C   UNL     1     138.141  78.118 222.698 -0.26 -0.00    +0.012 A  
DOCKED: ATOM     18  C   UNL     1     140.558  78.014 222.959 -0.37 +0.00    -0.013 A  
DOCKED: ATOM     19  C   UNL     1     139.358  78.761 222.962 -0.34 +0.00    -0.018 A  
DOCKED: ATOM     20  C   UNL     1     141.778  78.657 223.225 -0.56 -0.01    +0.029 A  
DOCKED: ATOM     21  C   UNL     1     139.397  80.138 223.231 -0.38 -0.00    +0.010 A  
DOCKED: ATOM     22  C   UNL     1     141.804  80.030 223.492 -0.58 -0.01    +0.041 A  
DOCKED: ATOM     23  C   UNL     1     140.616  80.768 223.494 -0.45 -0.00    +0.021 A  
DOCKED: ATOM     24  Cl  UNL     1     143.331  80.827 223.826 -0.54 +0.02    -0.084 Cl 
DOCKED: ENDBRANCH  13  14
DOCKED: ENDBRANCH  12  13
DOCKED: ENDBRANCH   1  12
DOCKED: TORSDOF 7
DOCKED: TER
DOCKED: ENDMDL
________________________________________________________________________________


    FINAL DOCKED STATE:
    ________________________


Run:   7 / 20
Time taken for this run:   0.027s

DOCKED: MODEL        7
DOCKED: USER    Run = 7
DOCKED: USER
DOCKED: USER    Estimated Free Energy of Binding    =  -6.80 kcal/mol  [=(1)+(2)+(3)-(4)]
DOCKED: USER
DOCKED: USER    (1) Final Intermolecular Energy     =  -8.89 kcal/mol
DOCKED: USER        vdW + Hbond + desolv Energy     =  -8.79 kcal/mol
DOCKED: USER        Electrostatic Energy            =  -0.10 kcal/mol
DOCKED: USER        Moving Ligand-Fixed Receptor    =  -8.89 kcal/mol
DOCKED: USER        Moving Ligand-Moving Receptor   =  +0.00 kcal/mol
DOCKED: USER    (2) Final Total Internal Energy     =  -1.25 kcal/mol
DOCKED: USER    (3) Torsional Free Energy           =  +2.09 kcal/mol
DOCKED: USER    (4) Unbound System's Energy         =  -1.25 kcal/mol
DOCKED: USER
DOCKED: USER
DOCKED: REMARK SMILES O/C(=N/CCOc1ccc2ccc(Cl)cc2c1)c1ccccn1
DOCKED: REMARK SMILES IDX 4 1 3 2 2 3 1 4 18 6 23 7 19 8 22 9 20 10 21 11 5 12 6 13
DOCKED: REMARK SMILES IDX 7 14 8 15 17 16 9 17 16 18 10 19 15 20 11 21 13 22 12 23
DOCKED: REMARK SMILES IDX 14 24
DOCKED: REMARK H PARENT 1 5
DOCKED: USER                              x       y       z     vdW  Elec       q    Type
DOCKED: USER                           _______ _______ _______ _____ _____    ______ ____
DOCKED: ROOT
DOCKED: ATOM      1  C   UNL     1     141.222  72.673 221.438 -0.19 -0.02    +0.188 C  
DOCKED: ENDROOT
DOCKED: BRANCH   1   2
DOCKED: ATOM      2  N   UNL     1     140.652  71.514 222.120 -0.16 +0.03    -0.246 NA 
DOCKED: BRANCH   2   3
DOCKED: ATOM      3  C   UNL     1     139.812  71.548 223.116 -0.24 -0.04    +0.232 C  
DOCKED: BRANCH   3   4
DOCKED: ATOM      4  O   UNL     1     138.528  72.044 222.903 -0.07 +0.16    -0.492 OA 
DOCKED: ATOM      5  H   UNL     1     138.291  73.002 223.135 -0.42 -0.18    +0.295 HD 
DOCKED: ENDBRANCH   3   4
DOCKED: BRANCH   3   6
DOCKED: ATOM      6  C   UNL     1     140.147  71.045 224.460 -0.39 -0.02    +0.124 A  
DOCKED: ATOM      7  N   UNL     1     140.765  71.877 225.342 -0.30 +0.04    -0.251 NA 
DOCKED: ATOM      8  C   UNL     1     139.908  69.709 224.820 -0.36 -0.01    +0.034 A  
DOCKED: ATOM      9  C   UNL     1     141.128  71.465 226.586 -0.61 -0.02    +0.112 A  
DOCKED: ATOM     10  C   UNL     1     140.271  69.269 226.094 -0.51 -0.00    +0.004 A  
DOCKED: ATOM     11  C   UNL     1     140.881  70.150 226.987 -0.57 -0.00    +0.020 A  
DOCKED: ENDBRANCH   3   6
DOCKED: ENDBRANCH   2   3
DOCKED: ENDBRANCH   1   2
DOCKED: BRANCH   1  12
DOCKED: ATOM     12  C   UNL     1     140.109  73.658 221.077 -0.15 -0.04    +0.253 C  
DOCKED: BRANCH  12  13
DOCKED: ATOM     13  O   UNL     1     139.645  74.353 222.235 -0.67 +0.06    -0.492 OA 
DOCKED: BRANCH  13  14
DOCKED: ATOM     14  C   UNL     1     139.538  75.747 222.366 -0.27 -0.02    +0.120 A  
DOCKED: ATOM     15  C   UNL     1     138.330  76.442 222.160 -0.26 -0.01    +0.047 A  
DOCKED: ATOM     16  C   UNL     1     140.687  76.463 222.726 -0.19 -0.01    +0.055 A  
DOCKED: ATOM     17  C   UNL     1     138.279  77.831 222.300 -0.25 -0.00    +0.012 A  
DOCKED: ATOM     18  C   UNL     1     140.645  77.858 222.870 -0.39 +0.00    -0.013 A  
DOCKED: ATOM     19  C   UNL     1     139.429  78.549 222.653 -0.32 +0.00    -0.018 A  
DOCKED: ATOM     20  C   UNL     1     141.798  78.576 223.226 -0.54 -0.01    +0.029 A  
DOCKED: ATOM     21  C   UNL     1     139.388  79.944 222.797 -0.32 -0.00    +0.010 A  
DOCKED: ATOM     22  C   UNL     1     141.744  79.966 223.367 -0.56 -0.01    +0.041 A  
DOCKED: ATOM     23  C   UNL     1     140.541  80.648 223.152 -0.43 -0.00    +0.021 A  
DOCKED: ATOM     24  Cl  UNL     1     143.188  80.858 223.814 -0.61 +0.02    -0.084 Cl 
DOCKED: ENDBRANCH  13  14
DOCKED: ENDBRANCH  12  13
DOCKED: ENDBRANCH   1  12
DOCKED: TORSDOF 7
DOCKED: TER
DOCKED: ENDMDL
________________________________________________________________________________


    FINAL DOCKED STATE:
    ________________________


Run:   8 / 20
Time taken for this run:   0.027s

DOCKED: MODEL        8
DOCKED: USER    Run = 8
DOCKED: USER
DOCKED: USER    Estimated Free Energy of Binding    =  -7.33 kcal/mol  [=(1)+(2)+(3)-(4)]
DOCKED: USER
DOCKED: USER    (1) Final Intermolecular Energy     =  -9.41 kcal/mol
DOCKED: USER        vdW + Hbond + desolv Energy     =  -9.30 kcal/mol
DOCKED: USER        Electrostatic Energy            =  -0.12 kcal/mol
DOCKED: USER        Moving Ligand-Fixed Receptor    =  -9.41 kcal/mol
DOCKED: USER        Moving Ligand-Moving Receptor   =  +0.00 kcal/mol
DOCKED: USER    (2) Final Total Internal Energy     =  -0.86 kcal/mol
DOCKED: USER    (3) Torsional Free Energy           =  +2.09 kcal/mol
DOCKED: USER    (4) Unbound System's Energy         =  -0.86 kcal/mol
DOCKED: USER
DOCKED: USER
DOCKED: REMARK SMILES O/C(=N/CCOc1ccc2ccc(Cl)cc2c1)c1ccccn1
DOCKED: REMARK SMILES IDX 4 1 3 2 2 3 1 4 18 6 23 7 19 8 22 9 20 10 21 11 5 12 6 13
DOCKED: REMARK SMILES IDX 7 14 8 15 17 16 9 17 16 18 10 19 15 20 11 21 13 22 12 23
DOCKED: REMARK SMILES IDX 14 24
DOCKED: REMARK H PARENT 1 5
DOCKED: USER                              x       y       z     vdW  Elec       q    Type
DOCKED: USER                           _______ _______ _______ _____ _____    ______ ____
DOCKED: ROOT
DOCKED: ATOM      1  C   UNL     1     138.949  75.082 221.943 -0.21 -0.04    +0.188 C  
DOCKED: ENDROOT
DOCKED: BRANCH   1   2
DOCKED: ATOM      2  N   UNL     1     139.897  75.902 222.694 -0.30 +0.03    -0.246 NA 
DOCKED: BRANCH   2   3
DOCKED: ATOM      3  C   UNL     1     140.857  76.621 222.186 -0.25 -0.08    +0.232 C  
DOCKED: BRANCH   3   4
DOCKED: ATOM      4  O   UNL     1     141.699  76.052 221.234 -0.08 +0.25    -0.492 OA 
DOCKED: ATOM      5  H   UNL     1     142.573  76.496 220.975 -0.37 -0.26    +0.295 HD 
DOCKED: ENDBRANCH   3   4
DOCKED: BRANCH   3   6
DOCKED: ATOM      6  C   UNL     1     141.072  78.035 222.545 -0.40 -0.05    +0.124 A  
DOCKED: ATOM      7  N   UNL     1     142.179  78.674 222.081 -0.23 +0.16    -0.251 NA 
DOCKED: ATOM      8  C   UNL     1     140.197  78.708 223.413 -0.33 -0.01    +0.034 A  
DOCKED: ATOM      9  C   UNL     1     142.451  79.968 222.401 -0.49 -0.05    +0.112 A  
DOCKED: ATOM     10  C   UNL     1     140.456  80.037 223.750 -0.46 -0.00    +0.004 A  
DOCKED: ATOM     11  C   UNL     1     141.587  80.676 223.240 -0.55 -0.00    +0.020 A  
DOCKED: ENDBRANCH   3   6
DOCKED: ENDBRANCH   2   3
DOCKED: ENDBRANCH   1   2
DOCKED: BRANCH   1  12
DOCKED: ATOM     12  C   UNL     1     139.595  73.744 221.582 -0.18 -0.05    +0.253 C  
DOCKED: BRANCH  12  13
DOCKED: ATOM     13  O   UNL     1     140.245  73.167 222.716 -0.59 +0.01    -0.492 OA 
DOCKED: BRANCH  13  14
DOCKED: ATOM     14  C   UNL     1     139.965  71.906 223.266 -0.30 -0.02    +0.120 A  
DOCKED: ATOM     15  C   UNL     1     139.225  70.923 222.580 -0.22 -0.01    +0.047 A  
DOCKED: ATOM     16  C   UNL     1     140.456  71.624 224.547 -0.41 -0.01    +0.055 A  
DOCKED: ATOM     17  C   UNL     1     138.971  69.684 223.174 -0.23 -0.00    +0.012 A  
DOCKED: ATOM     18  C   UNL     1     140.208  70.382 225.151 -0.47 +0.00    -0.013 A  
DOCKED: ATOM     19  C   UNL     1     139.457  69.403 224.458 -0.33 +0.00    -0.018 A  
DOCKED: ATOM     20  C   UNL     1     140.696  70.101 226.437 -0.54 -0.00    +0.029 A  
DOCKED: ATOM     21  C   UNL     1     139.208  68.161 225.063 -0.44 -0.00    +0.010 A  
DOCKED: ATOM     22  C   UNL     1     140.443  68.859 227.029 -0.59 -0.01    +0.041 A  
DOCKED: ATOM     23  C   UNL     1     139.699  67.892 226.343 -0.62 -0.00    +0.021 A  
DOCKED: ATOM     24  Cl  UNL     1     141.058  68.513 228.635 -0.72 +0.02    -0.084 Cl 
DOCKED: ENDBRANCH  13  14
DOCKED: ENDBRANCH  12  13
DOCKED: ENDBRANCH   1  12
DOCKED: TORSDOF 7
DOCKED: TER
DOCKED: ENDMDL
________________________________________________________________________________


    FINAL DOCKED STATE:
    ________________________


Run:   9 / 20
Time taken for this run:   0.027s

DOCKED: MODEL        9
DOCKED: USER    Run = 9
DOCKED: USER
DOCKED: USER    Estimated Free Energy of Binding    =  -7.29 kcal/mol  [=(1)+(2)+(3)-(4)]
DOCKED: USER
DOCKED: USER    (1) Final Intermolecular Energy     =  -9.38 kcal/mol
DOCKED: USER        vdW + Hbond + desolv Energy     =  -9.25 kcal/mol
DOCKED: USER        Electrostatic Energy            =  -0.13 kcal/mol
DOCKED: USER        Moving Ligand-Fixed Receptor    =  -9.38 kcal/mol
DOCKED: USER        Moving Ligand-Moving Receptor   =  +0.00 kcal/mol
DOCKED: USER    (2) Final Total Internal Energy     =  -0.82 kcal/mol
DOCKED: USER    (3) Torsional Free Energy           =  +2.09 kcal/mol
DOCKED: USER    (4) Unbound System's Energy         =  -0.82 kcal/mol
DOCKED: USER
DOCKED: USER
DOCKED: REMARK SMILES O/C(=N/CCOc1ccc2ccc(Cl)cc2c1)c1ccccn1
DOCKED: REMARK SMILES IDX 4 1 3 2 2 3 1 4 18 6 23 7 19 8 22 9 20 10 21 11 5 12 6 13
DOCKED: REMARK SMILES IDX 7 14 8 15 17 16 9 17 16 18 10 19 15 20 11 21 13 22 12 23
DOCKED: REMARK SMILES IDX 14 24
DOCKED: REMARK H PARENT 1 5
DOCKED: USER                              x       y       z     vdW  Elec       q    Type
DOCKED: USER                           _______ _______ _______ _____ _____    ______ ____
DOCKED: ROOT
DOCKED: ATOM      1  C   UNL     1     139.415  74.533 221.185 -0.17 -0.04    +0.188 C  
DOCKED: ENDROOT
DOCKED: BRANCH   1   2
DOCKED: ATOM      2  N   UNL     1     139.784  75.564 222.152 -0.44 +0.04    -0.246 NA 
DOCKED: BRANCH   2   3
DOCKED: ATOM      3  C   UNL     1     140.723  76.455 221.999 -0.28 -0.07    +0.232 C  
DOCKED: BRANCH   3   4
DOCKED: ATOM      4  O   UNL     1     141.822  76.152 221.201 -0.05 +0.27    -0.492 OA 
DOCKED: ATOM      5  H   UNL     1     142.652  76.733 221.209 -0.36 -0.32    +0.295 HD 
DOCKED: ENDBRANCH   3   4
DOCKED: BRANCH   3   6
DOCKED: ATOM      6  C   UNL     1     140.655  77.797 222.606 -0.36 -0.04    +0.124 A  
DOCKED: ATOM      7  N   UNL     1     141.803  78.512 222.759 -0.29 +0.12    -0.251 NA 
DOCKED: ATOM      8  C   UNL     1     139.446  78.318 223.093 -0.29 -0.01    +0.034 A  
DOCKED: ATOM      9  C   UNL     1     141.812  79.742 223.338 -0.51 -0.03    +0.112 A  
DOCKED: ATOM     10  C   UNL     1     139.435  79.581 223.687 -0.42 -0.00    +0.004 A  
DOCKED: ATOM     11  C   UNL     1     140.622  80.302 223.809 -0.44 -0.00    +0.020 A  
DOCKED: ENDBRANCH   3   6
DOCKED: ENDBRANCH   2   3
DOCKED: ENDBRANCH   1   2
DOCKED: BRANCH   1  12
DOCKED: ATOM     12  C   UNL     1     140.241  73.271 221.435 -0.18 -0.04    +0.253 C  
DOCKED: BRANCH  12  13
DOCKED: ATOM     13  O   UNL     1     140.331  72.986 222.832 -0.52 +0.01    -0.492 OA 
DOCKED: BRANCH  13  14
DOCKED: ATOM     14  C   UNL     1     139.982  71.772 223.445 -0.32 -0.02    +0.120 A  
DOCKED: ATOM     15  C   UNL     1     139.055  70.874 222.881 -0.23 -0.01    +0.047 A  
DOCKED: ATOM     16  C   UNL     1     140.596  71.448 224.661 -0.45 -0.01    +0.055 A  
DOCKED: ATOM     17  C   UNL     1     138.740  69.678 223.533 -0.26 -0.00    +0.012 A  
DOCKED: ATOM     18  C   UNL     1     140.288  70.250 225.322 -0.48 +0.00    -0.013 A  
DOCKED: ATOM     19  C   UNL     1     139.349  69.357 224.754 -0.36 +0.00    -0.018 A  
DOCKED: ATOM     20  C   UNL     1     140.901  69.928 226.544 -0.54 -0.01    +0.029 A  
DOCKED: ATOM     21  C   UNL     1     139.041  68.159 225.416 -0.45 -0.00    +0.010 A  
DOCKED: ATOM     22  C   UNL     1     140.586  68.731 227.194 -0.61 -0.01    +0.041 A  
DOCKED: ATOM     23  C   UNL     1     139.657  67.849 226.631 -0.63 -0.00    +0.021 A  
DOCKED: ATOM     24  Cl  UNL     1     141.356  68.334 228.720 -0.60 +0.02    -0.084 Cl 
DOCKED: ENDBRANCH  13  14
DOCKED: ENDBRANCH  12  13
DOCKED: ENDBRANCH   1  12
DOCKED: TORSDOF 7
DOCKED: TER
DOCKED: ENDMDL
________________________________________________________________________________


    FINAL DOCKED STATE:
    ________________________


Run:   10 / 20
Time taken for this run:   0.027s

DOCKED: MODEL        10
DOCKED: USER    Run = 10
DOCKED: USER
DOCKED: USER    Estimated Free Energy of Binding    =  -6.70 kcal/mol  [=(1)+(2)+(3)-(4)]
DOCKED: USER
DOCKED: USER    (1) Final Intermolecular Energy     =  -8.78 kcal/mol
DOCKED: USER        vdW + Hbond + desolv Energy     =  -8.75 kcal/mol
DOCKED: USER        Electrostatic Energy            =  -0.03 kcal/mol
DOCKED: USER        Moving Ligand-Fixed Receptor    =  -8.78 kcal/mol
DOCKED: USER        Moving Ligand-Moving Receptor   =  +0.00 kcal/mol
DOCKED: USER    (2) Final Total Internal Energy     =  -1.30 kcal/mol
DOCKED: USER    (3) Torsional Free Energy           =  +2.09 kcal/mol
DOCKED: USER    (4) Unbound System's Energy         =  -1.30 kcal/mol
DOCKED: USER
DOCKED: USER
DOCKED: REMARK SMILES O/C(=N/CCOc1ccc2ccc(Cl)cc2c1)c1ccccn1
DOCKED: REMARK SMILES IDX 4 1 3 2 2 3 1 4 18 6 23 7 19 8 22 9 20 10 21 11 5 12 6 13
DOCKED: REMARK SMILES IDX 7 14 8 15 17 16 9 17 16 18 10 19 15 20 11 21 13 22 12 23
DOCKED: REMARK SMILES IDX 14 24
DOCKED: REMARK H PARENT 1 5
DOCKED: USER                              x       y       z     vdW  Elec       q    Type
DOCKED: USER                           _______ _______ _______ _____ _____    ______ ____
DOCKED: ROOT
DOCKED: ATOM      1  C   UNL     1     141.103  72.914 221.967 -0.14 -0.01    +0.188 C  
DOCKED: ENDROOT
DOCKED: BRANCH   1   2
DOCKED: ATOM      2  N   UNL     1     140.590  71.657 222.509 -0.20 +0.03    -0.246 NA 
DOCKED: BRANCH   2   3
DOCKED: ATOM      3  C   UNL     1     139.720  71.538 223.471 -0.26 -0.05    +0.232 C  
DOCKED: BRANCH   3   4
DOCKED: ATOM      4  O   UNL     1     138.389  71.862 223.226 -0.07 +0.16    -0.492 OA 
DOCKED: ATOM      5  H   UNL     1     138.081  72.827 223.198 -0.40 -0.18    +0.295 HD 
DOCKED: ENDBRANCH   3   4
DOCKED: BRANCH   3   6
DOCKED: ATOM      6  C   UNL     1     140.076  71.031 224.810 -0.41 -0.02    +0.124 A  
DOCKED: ATOM      7  N   UNL     1     140.694  71.866 225.689 -0.33 +0.04    -0.251 NA 
DOCKED: ATOM      8  C   UNL     1     139.856  69.691 225.165 -0.40 -0.01    +0.034 A  
DOCKED: ATOM      9  C   UNL     1     141.075  71.451 226.927 -0.64 -0.02    +0.112 A  
DOCKED: ATOM     10  C   UNL     1     140.238  69.248 226.433 -0.54 -0.00    +0.004 A  
DOCKED: ATOM     11  C   UNL     1     140.847  70.132 227.324 -0.58 -0.00    +0.020 A  
DOCKED: ENDBRANCH   3   6
DOCKED: ENDBRANCH   2   3
DOCKED: ENDBRANCH   1   2
DOCKED: BRANCH   1  12
DOCKED: ATOM     12  C   UNL     1     139.985  73.654 221.232 -0.17 -0.04    +0.253 C  
DOCKED: BRANCH  12  13
DOCKED: ATOM     13  O   UNL     1     139.137  74.343 222.152 -0.42 +0.11    -0.492 OA 
DOCKED: BRANCH  13  14
DOCKED: ATOM     14  C   UNL     1     139.146  75.726 222.396 -0.26 -0.02    +0.120 A  
DOCKED: ATOM     15  C   UNL     1     137.968  76.494 222.472 -0.27 -0.01    +0.047 A  
DOCKED: ATOM     16  C   UNL     1     140.385  76.353 222.578 -0.23 -0.01    +0.055 A  
DOCKED: ATOM     17  C   UNL     1     138.032  77.869 222.714 -0.26 -0.00    +0.012 A  
DOCKED: ATOM     18  C   UNL     1     140.460  77.733 222.823 -0.34 +0.00    -0.013 A  
DOCKED: ATOM     19  C   UNL     1     139.272  78.498 222.890 -0.32 +0.00    -0.018 A  
DOCKED: ATOM     20  C   UNL     1     141.703  78.361 223.001 -0.45 -0.01    +0.029 A  
DOCKED: ATOM     21  C   UNL     1     139.348  79.878 223.134 -0.37 -0.00    +0.010 A  
DOCKED: ATOM     22  C   UNL     1     141.765  79.737 223.244 -0.56 -0.01    +0.041 A  
DOCKED: ATOM     23  C   UNL     1     140.589  80.493 223.310 -0.45 -0.00    +0.021 A  
DOCKED: ATOM     24  Cl  UNL     1     143.321  80.517 223.468 -0.70 +0.02    -0.084 Cl 
DOCKED: ENDBRANCH  13  14
DOCKED: ENDBRANCH  12  13
DOCKED: ENDBRANCH   1  12
DOCKED: TORSDOF 7
DOCKED: TER
DOCKED: ENDMDL
________________________________________________________________________________


    FINAL DOCKED STATE:
    ________________________


Run:   11 / 20
Time taken for this run:   0.027s

DOCKED: MODEL        11
DOCKED: USER    Run = 11
DOCKED: USER
DOCKED: USER    Estimated Free Energy of Binding    =  -7.06 kcal/mol  [=(1)+(2)+(3)-(4)]
DOCKED: USER
DOCKED: USER    (1) Final Intermolecular Energy     =  -9.15 kcal/mol
DOCKED: USER        vdW + Hbond + desolv Energy     =  -9.04 kcal/mol
DOCKED: USER        Electrostatic Energy            =  -0.10 kcal/mol
DOCKED: USER        Moving Ligand-Fixed Receptor    =  -9.15 kcal/mol
DOCKED: USER        Moving Ligand-Moving Receptor   =  +0.00 kcal/mol
DOCKED: USER    (2) Final Total Internal Energy     =  -0.83 kcal/mol
DOCKED: USER    (3) Torsional Free Energy           =  +2.09 kcal/mol
DOCKED: USER    (4) Unbound System's Energy         =  -0.83 kcal/mol
DOCKED: USER
DOCKED: USER
DOCKED: REMARK SMILES O/C(=N/CCOc1ccc2ccc(Cl)cc2c1)c1ccccn1
DOCKED: REMARK SMILES IDX 4 1 3 2 2 3 1 4 18 6 23 7 19 8 22 9 20 10 21 11 5 12 6 13
DOCKED: REMARK SMILES IDX 7 14 8 15 17 16 9 17 16 18 10 19 15 20 11 21 13 22 12 23
DOCKED: REMARK SMILES IDX 14 24
DOCKED: REMARK H PARENT 1 5
DOCKED: USER                              x       y       z     vdW  Elec       q    Type
DOCKED: USER                           _______ _______ _______ _____ _____    ______ ____
DOCKED: ROOT
DOCKED: ATOM      1  C   UNL     1     140.659  75.044 221.246 -0.24 -0.04    +0.188 C  
DOCKED: ENDROOT
DOCKED: BRANCH   1   2
DOCKED: ATOM      2  N   UNL     1     140.548  75.996 222.349 -0.37 +0.05    -0.246 NA 
DOCKED: BRANCH   2   3
DOCKED: ATOM      3  C   UNL     1     139.879  77.114 222.329 -0.26 -0.05    +0.232 C  
DOCKED: BRANCH   3   4
DOCKED: ATOM      4  O   UNL     1     138.557  77.105 221.892 -0.07 +0.10    -0.492 OA 
DOCKED: ATOM      5  H   UNL     1     138.001  77.953 221.888 +0.09 -0.06    +0.295 HD 
DOCKED: ENDBRANCH   3   4
DOCKED: BRANCH   3   6
DOCKED: ATOM      6  C   UNL     1     140.448  78.393 222.791 -0.35 -0.03    +0.124 A  
DOCKED: ATOM      7  N   UNL     1     139.643  79.487 222.863 -0.18 +0.05    -0.251 NA 
DOCKED: ATOM      8  C   UNL     1     141.815  78.519 223.085 -0.49 -0.01    +0.034 A  
DOCKED: ATOM      9  C   UNL     1     140.114  80.703 223.251 -0.35 -0.02    +0.112 A  
DOCKED: ATOM     10  C   UNL     1     142.316  79.758 223.490 -0.64 -0.00    +0.004 A  
DOCKED: ATOM     11  C   UNL     1     141.463  80.858 223.579 -0.54 -0.00    +0.020 A  
DOCKED: ENDBRANCH   3   6
DOCKED: ENDBRANCH   2   3
DOCKED: ENDBRANCH   1   2
DOCKED: BRANCH   1  12
DOCKED: ATOM     12  C   UNL     1     139.941  73.744 221.611 -0.19 -0.04    +0.253 C  
DOCKED: BRANCH  12  13
DOCKED: ATOM     13  O   UNL     1     140.591  73.089 222.702 -0.52 -0.02    -0.492 OA 
DOCKED: BRANCH  13  14
DOCKED: ATOM     14  C   UNL     1     140.174  71.890 223.302 -0.31 -0.02    +0.120 A  
DOCKED: ATOM     15  C   UNL     1     139.274  71.001 222.682 -0.23 -0.01    +0.047 A  
DOCKED: ATOM     16  C   UNL     1     140.690  71.573 224.565 -0.42 -0.01    +0.055 A  
DOCKED: ATOM     17  C   UNL     1     138.888  69.821 223.325 -0.25 -0.00    +0.012 A  
DOCKED: ATOM     18  C   UNL     1     140.310  70.390 225.217 -0.48 +0.00    -0.013 A  
DOCKED: ATOM     19  C   UNL     1     139.399  69.507 224.591 -0.35 +0.00    -0.018 A  
DOCKED: ATOM     20  C   UNL     1     140.823  70.075 226.485 -0.54 -0.00    +0.029 A  
DOCKED: ATOM     21  C   UNL     1     139.019  68.324 225.245 -0.43 -0.00    +0.010 A  
DOCKED: ATOM     22  C   UNL     1     140.437  68.894 227.126 -0.59 -0.01    +0.041 A  
DOCKED: ATOM     23  C   UNL     1     139.536  68.021 226.506 -0.60 -0.00    +0.021 A  
DOCKED: ATOM     24  Cl  UNL     1     141.084  68.505 228.710 -0.71 +0.02    -0.084 Cl 
DOCKED: ENDBRANCH  13  14
DOCKED: ENDBRANCH  12  13
DOCKED: ENDBRANCH   1  12
DOCKED: TORSDOF 7
DOCKED: TER
DOCKED: ENDMDL
________________________________________________________________________________


    FINAL DOCKED STATE:
    ________________________


Run:   12 / 20
Time taken for this run:   0.027s

DOCKED: MODEL        12
DOCKED: USER    Run = 12
DOCKED: USER
DOCKED: USER    Estimated Free Energy of Binding    =  -7.22 kcal/mol  [=(1)+(2)+(3)-(4)]
DOCKED: USER
DOCKED: USER    (1) Final Intermolecular Energy     =  -9.31 kcal/mol
DOCKED: USER        vdW + Hbond + desolv Energy     =  -9.19 kcal/mol
DOCKED: USER        Electrostatic Energy            =  -0.12 kcal/mol
DOCKED: USER        Moving Ligand-Fixed Receptor    =  -9.31 kcal/mol
DOCKED: USER        Moving Ligand-Moving Receptor   =  +0.00 kcal/mol
DOCKED: USER    (2) Final Total Internal Energy     =  -0.70 kcal/mol
DOCKED: USER    (3) Torsional Free Energy           =  +2.09 kcal/mol
DOCKED: USER    (4) Unbound System's Energy         =  -0.70 kcal/mol
DOCKED: USER
DOCKED: USER
DOCKED: REMARK SMILES O/C(=N/CCOc1ccc2ccc(Cl)cc2c1)c1ccccn1
DOCKED: REMARK SMILES IDX 4 1 3 2 2 3 1 4 18 6 23 7 19 8 22 9 20 10 21 11 5 12 6 13
DOCKED: REMARK SMILES IDX 7 14 8 15 17 16 9 17 16 18 10 19 15 20 11 21 13 22 12 23
DOCKED: REMARK SMILES IDX 14 24
DOCKED: REMARK H PARENT 1 5
DOCKED: USER                              x       y       z     vdW  Elec       q    Type
DOCKED: USER                           _______ _______ _______ _____ _____    ______ ____
DOCKED: ROOT
DOCKED: ATOM      1  C   UNL     1     140.634  74.927 220.919 -0.20 -0.04    +0.188 C  
DOCKED: ENDROOT
DOCKED: BRANCH   1   2
DOCKED: ATOM      2  N   UNL     1     140.735  76.136 221.734 -0.27 +0.07    -0.246 NA 
DOCKED: BRANCH   2   3
DOCKED: ATOM      3  C   UNL     1     141.446  77.191 221.452 -0.09 -0.13    +0.232 C  
DOCKED: BRANCH   3   4
DOCKED: ATOM      4  O   UNL     1     142.267  77.175 220.328 -0.11 +0.34    -0.492 OA 
DOCKED: ATOM      5  H   UNL     1     143.042  77.823 220.236 -0.35 -0.32    +0.295 HD 
DOCKED: ENDBRANCH   3   4
DOCKED: BRANCH   3   6
DOCKED: ATOM      6  C   UNL     1     141.389  78.428 222.253 -0.37 -0.06    +0.124 A  
DOCKED: ATOM      7  N   UNL     1     142.449  79.280 222.228 -0.30 +0.14    -0.251 NA 
DOCKED: ATOM      8  C   UNL     1     140.299  78.704 223.093 -0.41 -0.01    +0.034 A  
DOCKED: ATOM      9  C   UNL     1     142.472  80.422 222.967 -0.55 -0.03    +0.112 A  
DOCKED: ATOM     10  C   UNL     1     140.302  79.873 223.856 -0.45 -0.00    +0.004 A  
DOCKED: ATOM     11  C   UNL     1     141.392  80.742 223.793 -0.52 -0.00    +0.020 A  
DOCKED: ENDBRANCH   3   6
DOCKED: ENDBRANCH   2   3
DOCKED: ENDBRANCH   1   2
DOCKED: BRANCH   1  12
DOCKED: ATOM     12  C   UNL     1     139.699  73.925 221.596 -0.19 -0.04    +0.253 C  
DOCKED: BRANCH  12  13
DOCKED: ATOM     13  O   UNL     1     140.334  73.310 222.718 -0.59 -0.02    -0.492 OA 
DOCKED: BRANCH  13  14
DOCKED: ATOM     14  C   UNL     1     140.028  72.042 223.239 -0.28 -0.02    +0.120 A  
DOCKED: ATOM     15  C   UNL     1     139.261  71.094 222.534 -0.22 -0.01    +0.047 A  
DOCKED: ATOM     16  C   UNL     1     140.520  71.717 224.508 -0.38 -0.01    +0.055 A  
DOCKED: ATOM     17  C   UNL     1     138.982  69.846 223.098 -0.23 -0.00    +0.012 A  
DOCKED: ATOM     18  C   UNL     1     140.247  70.466 225.083 -0.47 +0.00    -0.013 A  
DOCKED: ATOM     19  C   UNL     1     139.469  69.523 224.372 -0.33 +0.00    -0.018 A  
DOCKED: ATOM     20  C   UNL     1     140.737  70.142 226.358 -0.54 -0.00    +0.029 A  
DOCKED: ATOM     21  C   UNL     1     139.196  68.272 224.947 -0.42 -0.00    +0.010 A  
DOCKED: ATOM     22  C   UNL     1     140.458  68.892 226.921 -0.58 -0.01    +0.041 A  
DOCKED: ATOM     23  C   UNL     1     139.689  67.960 226.217 -0.60 -0.00    +0.021 A  
DOCKED: ATOM     24  Cl  UNL     1     141.076  68.492 228.514 -0.75 +0.02    -0.084 Cl 
DOCKED: ENDBRANCH  13  14
DOCKED: ENDBRANCH  12  13
DOCKED: ENDBRANCH   1  12
DOCKED: TORSDOF 7
DOCKED: TER
DOCKED: ENDMDL
________________________________________________________________________________


    FINAL DOCKED STATE:
    ________________________


Run:   13 / 20
Time taken for this run:   0.027s

DOCKED: MODEL        13
DOCKED: USER    Run = 13
DOCKED: USER
DOCKED: USER    Estimated Free Energy of Binding    =  -7.12 kcal/mol  [=(1)+(2)+(3)-(4)]
DOCKED: USER
DOCKED: USER    (1) Final Intermolecular Energy     =  -9.21 kcal/mol
DOCKED: USER        vdW + Hbond + desolv Energy     =  -9.12 kcal/mol
DOCKED: USER        Electrostatic Energy            =  -0.08 kcal/mol
DOCKED: USER        Moving Ligand-Fixed Receptor    =  -9.21 kcal/mol
DOCKED: USER        Moving Ligand-Moving Receptor   =  +0.00 kcal/mol
DOCKED: USER    (2) Final Total Internal Energy     =  -0.85 kcal/mol
DOCKED: USER    (3) Torsional Free Energy           =  +2.09 kcal/mol
DOCKED: USER    (4) Unbound System's Energy         =  -0.85 kcal/mol
DOCKED: USER
DOCKED: USER
DOCKED: REMARK SMILES O/C(=N/CCOc1ccc2ccc(Cl)cc2c1)c1ccccn1
DOCKED: REMARK SMILES IDX 4 1 3 2 2 3 1 4 18 6 23 7 19 8 22 9 20 10 21 11 5 12 6 13
DOCKED: REMARK SMILES IDX 7 14 8 15 17 16 9 17 16 18 10 19 15 20 11 21 13 22 12 23
DOCKED: REMARK SMILES IDX 14 24
DOCKED: REMARK H PARENT 1 5
DOCKED: USER                              x       y       z     vdW  Elec       q    Type
DOCKED: USER                           _______ _______ _______ _____ _____    ______ ____
DOCKED: ROOT
DOCKED: ATOM      1  C   UNL     1     139.920  72.151 222.126 -0.22 -0.03    +0.188 C  
DOCKED: ENDROOT
DOCKED: BRANCH   1   2
DOCKED: ATOM      2  N   UNL     1     140.279  71.943 223.527 -0.29 +0.03    -0.246 NA 
DOCKED: BRANCH   2   3
DOCKED: ATOM      3  C   UNL     1     140.104  70.845 224.207 -0.28 -0.04    +0.232 C  
DOCKED: BRANCH   3   4
DOCKED: ATOM      4  O   UNL     1     139.601  69.720 223.560 -0.05 +0.09    -0.492 OA 
DOCKED: ATOM      5  H   UNL     1     139.593  68.814 224.014 +0.08 -0.06    +0.295 HD 
DOCKED: ENDBRANCH   3   4
DOCKED: BRANCH   3   6
DOCKED: ATOM      6  C   UNL     1     140.456  70.726 225.634 -0.47 -0.02    +0.124 A  
DOCKED: ATOM      7  N   UNL     1     140.360  69.511 226.238 -0.27 +0.04    -0.251 NA 
DOCKED: ATOM      8  C   UNL     1     140.815  71.850 226.394 -0.63 -0.01    +0.034 A  
DOCKED: ATOM      9  C   UNL     1     140.641  69.339 227.558 -0.52 -0.02    +0.112 A  
DOCKED: ATOM     10  C   UNL     1     141.111  71.694 227.749 -0.81 -0.00    +0.004 A  
DOCKED: ATOM     11  C   UNL     1     141.028  70.432 228.338 -0.55 -0.00    +0.020 A  
DOCKED: ENDBRANCH   3   6
DOCKED: ENDBRANCH   2   3
DOCKED: ENDBRANCH   1   2
DOCKED: BRANCH   1  12
DOCKED: ATOM     12  C   UNL     1     139.224  73.503 221.966 -0.16 -0.06    +0.253 C  
DOCKED: BRANCH  12  13
DOCKED: ATOM     13  O   UNL     1     140.169  74.573 221.997 -0.69 +0.04    -0.492 OA 
DOCKED: BRANCH  13  14
DOCKED: ATOM     14  C   UNL     1     139.886  75.906 222.336 -0.28 -0.02    +0.120 A  
DOCKED: ATOM     15  C   UNL     1     138.579  76.433 222.327 -0.29 -0.01    +0.047 A  
DOCKED: ATOM     16  C   UNL     1     140.955  76.733 222.703 -0.30 -0.02    +0.055 A  
DOCKED: ATOM     17  C   UNL     1     138.351  77.769 222.669 -0.28 -0.00    +0.012 A  
DOCKED: ATOM     18  C   UNL     1     140.736  78.075 223.049 -0.41 +0.00    -0.013 A  
DOCKED: ATOM     19  C   UNL     1     139.422  78.598 223.030 -0.34 +0.00    -0.018 A  
DOCKED: ATOM     20  C   UNL     1     141.809  78.904 223.414 -0.59 -0.01    +0.029 A  
DOCKED: ATOM     21  C   UNL     1     139.204  79.940 223.376 -0.39 -0.00    +0.010 A  
DOCKED: ATOM     22  C   UNL     1     141.579  80.240 223.757 -0.54 -0.01    +0.041 A  
DOCKED: ATOM     23  C   UNL     1     140.278  80.757 223.737 -0.39 -0.00    +0.021 A  
DOCKED: ATOM     24  Cl  UNL     1     142.923  81.271 224.213 -0.47 +0.01    -0.084 Cl 
DOCKED: ENDBRANCH  13  14
DOCKED: ENDBRANCH  12  13
DOCKED: ENDBRANCH   1  12
DOCKED: TORSDOF 7
DOCKED: TER
DOCKED: ENDMDL
________________________________________________________________________________


    FINAL DOCKED STATE:
    ________________________


Run:   14 / 20
Time taken for this run:   0.027s

DOCKED: MODEL        14
DOCKED: USER    Run = 14
DOCKED: USER
DOCKED: USER    Estimated Free Energy of Binding    =  -6.83 kcal/mol  [=(1)+(2)+(3)-(4)]
DOCKED: USER
DOCKED: USER    (1) Final Intermolecular Energy     =  -8.92 kcal/mol
DOCKED: USER        vdW + Hbond + desolv Energy     =  -8.85 kcal/mol
DOCKED: USER        Electrostatic Energy            =  -0.06 kcal/mol
DOCKED: USER        Moving Ligand-Fixed Receptor    =  -8.92 kcal/mol
DOCKED: USER        Moving Ligand-Moving Receptor   =  +0.00 kcal/mol
DOCKED: USER    (2) Final Total Internal Energy     =  -1.32 kcal/mol
DOCKED: USER    (3) Torsional Free Energy           =  +2.09 kcal/mol
DOCKED: USER    (4) Unbound System's Energy         =  -1.32 kcal/mol
DOCKED: USER
DOCKED: USER
DOCKED: REMARK SMILES O/C(=N/CCOc1ccc2ccc(Cl)cc2c1)c1ccccn1
DOCKED: REMARK SMILES IDX 4 1 3 2 2 3 1 4 18 6 23 7 19 8 22 9 20 10 21 11 5 12 6 13
DOCKED: REMARK SMILES IDX 7 14 8 15 17 16 9 17 16 18 10 19 15 20 11 21 13 22 12 23
DOCKED: REMARK SMILES IDX 14 24
DOCKED: REMARK H PARENT 1 5
DOCKED: USER                              x       y       z     vdW  Elec       q    Type
DOCKED: USER                           _______ _______ _______ _____ _____    ______ ____
DOCKED: ROOT
DOCKED: ATOM      1  C   UNL     1     141.416  72.682 221.825 -0.05 -0.01    +0.188 C  
DOCKED: ENDROOT
DOCKED: BRANCH   1   2
DOCKED: ATOM      2  N   UNL     1     140.513  71.600 222.212 -0.17 +0.03    -0.246 NA 
DOCKED: BRANCH   2   3
DOCKED: ATOM      3  C   UNL     1     139.699  71.610 223.230 -0.24 -0.05    +0.232 C  
DOCKED: BRANCH   3   4
DOCKED: ATOM      4  O   UNL     1     138.410  72.107 223.062 -0.04 +0.17    -0.492 OA 
DOCKED: ATOM      5  H   UNL     1     138.227  73.104 223.070 -0.43 -0.18    +0.295 HD 
DOCKED: ENDBRANCH   3   4
DOCKED: BRANCH   3   6
DOCKED: ATOM      6  C   UNL     1     140.071  71.077 224.553 -0.39 -0.02    +0.124 A  
DOCKED: ATOM      7  N   UNL     1     140.702  71.893 225.441 -0.31 +0.04    -0.251 NA 
DOCKED: ATOM      8  C   UNL     1     139.853  69.731 224.885 -0.37 -0.01    +0.034 A  
DOCKED: ATOM      9  C   UNL     1     141.099  71.454 226.666 -0.62 -0.02    +0.112 A  
DOCKED: ATOM     10  C   UNL     1     140.250  69.263 226.140 -0.52 -0.00    +0.004 A  
DOCKED: ATOM     11  C   UNL     1     140.872  70.127 227.040 -0.57 -0.00    +0.020 A  
DOCKED: ENDBRANCH   3   6
DOCKED: ENDBRANCH   2   3
DOCKED: ENDBRANCH   1   2
DOCKED: BRANCH   1  12
DOCKED: ATOM     12  C   UNL     1     140.622  73.801 221.150 -0.18 -0.04    +0.253 C  
DOCKED: BRANCH  12  13
DOCKED: ATOM     13  O   UNL     1     139.660  74.359 222.046 -0.63 +0.07    -0.492 OA 
DOCKED: BRANCH  13  14
DOCKED: ATOM     14  C   UNL     1     139.501  75.725 222.330 -0.28 -0.02    +0.120 A  
DOCKED: ATOM     15  C   UNL     1     138.244  76.359 222.342 -0.28 -0.01    +0.047 A  
DOCKED: ATOM     16  C   UNL     1     140.649  76.474 222.618 -0.25 -0.01    +0.055 A  
DOCKED: ATOM     17  C   UNL     1     138.140  77.724 222.627 -0.27 -0.00    +0.012 A  
DOCKED: ATOM     18  C   UNL     1     140.555  77.844 222.907 -0.35 +0.00    -0.013 A  
DOCKED: ATOM     19  C   UNL     1     139.289  78.475 222.910 -0.32 +0.00    -0.018 A  
DOCKED: ATOM     20  C   UNL     1     141.707  78.596 223.192 -0.54 -0.01    +0.029 A  
DOCKED: ATOM     21  C   UNL     1     139.196  79.845 223.198 -0.36 -0.00    +0.010 A  
DOCKED: ATOM     22  C   UNL     1     141.601  79.961 223.478 -0.56 -0.01    +0.041 A  
DOCKED: ATOM     23  C   UNL     1     140.348  80.584 223.481 -0.44 -0.00    +0.021 A  
DOCKED: ATOM     24  Cl  UNL     1     143.043  80.894 223.836 -0.69 +0.02    -0.084 Cl 
DOCKED: ENDBRANCH  13  14
DOCKED: ENDBRANCH  12  13
DOCKED: ENDBRANCH   1  12
DOCKED: TORSDOF 7
DOCKED: TER
DOCKED: ENDMDL
________________________________________________________________________________


    FINAL DOCKED STATE:
    ________________________


Run:   15 / 20
Time taken for this run:   0.027s

DOCKED: MODEL        15
DOCKED: USER    Run = 15
DOCKED: USER
DOCKED: USER    Estimated Free Energy of Binding    =  -7.36 kcal/mol  [=(1)+(2)+(3)-(4)]
DOCKED: USER
DOCKED: USER    (1) Final Intermolecular Energy     =  -9.44 kcal/mol
DOCKED: USER        vdW + Hbond + desolv Energy     =  -9.36 kcal/mol
DOCKED: USER        Electrostatic Energy            =  -0.09 kcal/mol
DOCKED: USER        Moving Ligand-Fixed Receptor    =  -9.44 kcal/mol
DOCKED: USER        Moving Ligand-Moving Receptor   =  +0.00 kcal/mol
DOCKED: USER    (2) Final Total Internal Energy     =  -1.20 kcal/mol
DOCKED: USER    (3) Torsional Free Energy           =  +2.09 kcal/mol
DOCKED: USER    (4) Unbound System's Energy         =  -1.20 kcal/mol
DOCKED: USER
DOCKED: USER
DOCKED: REMARK SMILES O/C(=N/CCOc1ccc2ccc(Cl)cc2c1)c1ccccn1
DOCKED: REMARK SMILES IDX 4 1 3 2 2 3 1 4 18 6 23 7 19 8 22 9 20 10 21 11 5 12 6 13
DOCKED: REMARK SMILES IDX 7 14 8 15 17 16 9 17 16 18 10 19 15 20 11 21 13 22 12 23
DOCKED: REMARK SMILES IDX 14 24
DOCKED: REMARK H PARENT 1 5
DOCKED: USER                              x       y       z     vdW  Elec       q    Type
DOCKED: USER                           _______ _______ _______ _____ _____    ______ ____
DOCKED: ROOT
DOCKED: ATOM      1  C   UNL     1     140.611  74.487 220.708 -0.17 -0.04    +0.188 C  
DOCKED: ENDROOT
DOCKED: BRANCH   1   2
DOCKED: ATOM      2  N   UNL     1     140.875  75.771 221.354 -0.23 +0.07    -0.246 NA 
DOCKED: BRANCH   2   3
DOCKED: ATOM      3  C   UNL     1     140.112  76.356 222.234 -0.26 -0.05    +0.232 C  
DOCKED: BRANCH   3   4
DOCKED: ATOM      4  O   UNL     1     139.050  75.647 222.789 -0.25 +0.11    -0.492 OA 
DOCKED: ATOM      5  H   UNL     1     139.165  74.688 223.098 -0.48 -0.09    +0.295 HD 
DOCKED: ENDBRANCH   3   4
DOCKED: BRANCH   3   6
DOCKED: ATOM      6  C   UNL     1     140.347  77.734 222.703 -0.33 -0.03    +0.124 A  
DOCKED: ATOM      7  N   UNL     1     139.287  78.484 223.109 -0.19 +0.04    -0.251 NA 
DOCKED: ATOM      8  C   UNL     1     141.628  78.308 222.669 -0.40 -0.02    +0.034 A  
DOCKED: ATOM      9  C   UNL     1     139.432  79.771 223.523 -0.36 -0.02    +0.112 A  
DOCKED: ATOM     10  C   UNL     1     141.798  79.626 223.095 -0.58 -0.00    +0.004 A  
DOCKED: ATOM     11  C   UNL     1     140.697  80.364 223.529 -0.47 -0.00    +0.020 A  
DOCKED: ENDBRANCH   3   6
DOCKED: ENDBRANCH   2   3
DOCKED: ENDBRANCH   1   2
DOCKED: BRANCH   1  12
DOCKED: ATOM     12  C   UNL     1     141.148  73.350 221.579 -0.16 -0.02    +0.253 C  
DOCKED: BRANCH  12  13
DOCKED: ATOM     13  O   UNL     1     140.307  73.134 222.714 -0.59 +0.00    -0.492 OA 
DOCKED: BRANCH  13  14
DOCKED: ATOM     14  C   UNL     1     140.003  71.886 223.281 -0.31 -0.02    +0.120 A  
DOCKED: ATOM     15  C   UNL     1     139.233  70.914 222.613 -0.22 -0.01    +0.047 A  
DOCKED: ATOM     16  C   UNL     1     140.499  71.606 224.560 -0.42 -0.01    +0.055 A  
DOCKED: ATOM     17  C   UNL     1     138.955  69.687 223.223 -0.24 -0.00    +0.012 A  
DOCKED: ATOM     18  C   UNL     1     140.226  70.378 225.180 -0.47 +0.00    -0.013 A  
DOCKED: ATOM     19  C   UNL     1     139.446  69.410 224.506 -0.34 +0.00    -0.018 A  
DOCKED: ATOM     20  C   UNL     1     140.720  70.100 226.465 -0.54 -0.00    +0.029 A  
DOCKED: ATOM     21  C   UNL     1     139.174  68.181 225.128 -0.44 -0.00    +0.010 A  
DOCKED: ATOM     22  C   UNL     1     140.442  68.871 227.074 -0.59 -0.01    +0.041 A  
DOCKED: ATOM     23  C   UNL     1     139.670  67.915 226.406 -0.62 -0.00    +0.021 A  
DOCKED: ATOM     24  Cl  UNL     1     141.064  68.529 228.679 -0.71 +0.02    -0.084 Cl 
DOCKED: ENDBRANCH  13  14
DOCKED: ENDBRANCH  12  13
DOCKED: ENDBRANCH   1  12
DOCKED: TORSDOF 7
DOCKED: TER
DOCKED: ENDMDL
________________________________________________________________________________


    FINAL DOCKED STATE:
    ________________________


Run:   16 / 20
Time taken for this run:   0.027s

DOCKED: MODEL        16
DOCKED: USER    Run = 16
DOCKED: USER
DOCKED: USER    Estimated Free Energy of Binding    =  -6.39 kcal/mol  [=(1)+(2)+(3)-(4)]
DOCKED: USER
DOCKED: USER    (1) Final Intermolecular Energy     =  -8.48 kcal/mol
DOCKED: USER        vdW + Hbond + desolv Energy     =  -8.36 kcal/mol
DOCKED: USER        Electrostatic Energy            =  -0.11 kcal/mol
DOCKED: USER        Moving Ligand-Fixed Receptor    =  -8.48 kcal/mol
DOCKED: USER        Moving Ligand-Moving Receptor   =  +0.00 kcal/mol
DOCKED: USER    (2) Final Total Internal Energy     =  -1.30 kcal/mol
DOCKED: USER    (3) Torsional Free Energy           =  +2.09 kcal/mol
DOCKED: USER    (4) Unbound System's Energy         =  -1.30 kcal/mol
DOCKED: USER
DOCKED: USER
DOCKED: REMARK SMILES O/C(=N/CCOc1ccc2ccc(Cl)cc2c1)c1ccccn1
DOCKED: REMARK SMILES IDX 4 1 3 2 2 3 1 4 18 6 23 7 19 8 22 9 20 10 21 11 5 12 6 13
DOCKED: REMARK SMILES IDX 7 14 8 15 17 16 9 17 16 18 10 19 15 20 11 21 13 22 12 23
DOCKED: REMARK SMILES IDX 14 24
DOCKED: REMARK H PARENT 1 5
DOCKED: USER                              x       y       z     vdW  Elec       q    Type
DOCKED: USER                           _______ _______ _______ _____ _____    ______ ____
DOCKED: ROOT
DOCKED: ATOM      1  C   UNL     1     137.372  69.287 224.249 -0.20 -0.02    +0.188 C  
DOCKED: ENDROOT
DOCKED: BRANCH   1   2
DOCKED: ATOM      2  N   UNL     1     138.609  68.550 224.498 -0.35 +0.02    -0.246 NA 
DOCKED: BRANCH   2   3
DOCKED: ATOM      3  C   UNL     1     139.191  68.401 225.654 -0.35 -0.02    +0.232 C  
DOCKED: BRANCH   3   4
DOCKED: ATOM      4  O   UNL     1     139.196  67.145 226.254 -0.64 +0.00    -0.492 OA 
DOCKED: ATOM      5  H   UNL     1     139.577  67.011 227.184 -0.31 -0.08    +0.295 HD 
DOCKED: ENDBRANCH   3   4
DOCKED: BRANCH   3   6
DOCKED: ATOM      6  C   UNL     1     139.888  69.503 226.343 -0.42 -0.02    +0.124 A  
DOCKED: ATOM      7  N   UNL     1     140.296  69.325 227.629 -0.34 +0.05    -0.251 NA 
DOCKED: ATOM      8  C   UNL     1     140.072  70.750 225.726 -0.51 -0.01    +0.034 A  
DOCKED: ATOM      9  C   UNL     1     140.916  70.311 228.331 -0.46 -0.02    +0.112 A  
DOCKED: ATOM     10  C   UNL     1     140.710  71.774 226.428 -0.65 -0.00    +0.004 A  
DOCKED: ATOM     11  C   UNL     1     141.140  71.556 227.737 -0.77 -0.00    +0.020 A  
DOCKED: ENDBRANCH   3   6
DOCKED: ENDBRANCH   2   3
DOCKED: ENDBRANCH   1   2
DOCKED: BRANCH   1  12
DOCKED: ATOM     12  C   UNL     1     137.637  70.419 223.256 -0.13 -0.05    +0.253 C  
DOCKED: BRANCH  12  13
DOCKED: ATOM     13  O   UNL     1     139.031  70.523 222.958 -0.05 +0.09    -0.492 OA 
DOCKED: BRANCH  13  14
DOCKED: ATOM     14  C   UNL     1     139.670  71.649 222.416 -0.23 -0.02    +0.120 A  
DOCKED: ATOM     15  C   UNL     1     139.033  72.899 222.288 -0.18 -0.01    +0.047 A  
DOCKED: ATOM     16  C   UNL     1     140.999  71.512 221.996 -0.18 -0.01    +0.055 A  
DOCKED: ATOM     17  C   UNL     1     139.714  73.989 221.738 -0.27 -0.00    +0.012 A  
DOCKED: ATOM     18  C   UNL     1     141.691  72.601 221.444 -0.22 +0.00    -0.013 A  
DOCKED: ATOM     19  C   UNL     1     141.042  73.850 221.312 -0.29 +0.00    -0.018 A  
DOCKED: ATOM     20  C   UNL     1     143.023  72.461 221.020 -0.18 -0.00    +0.029 A  
DOCKED: ATOM     21  C   UNL     1     141.734  74.938 220.759 -0.30 -0.00    +0.010 A  
DOCKED: ATOM     22  C   UNL     1     143.703  73.553 220.470 -0.36 -0.01    +0.041 A  
DOCKED: ATOM     23  C   UNL     1     143.059  74.789 220.340 -0.34 -0.01    +0.021 A  
DOCKED: ATOM     24  Cl  UNL     1     145.367  73.374 219.944 -0.65 +0.00    -0.084 Cl 
DOCKED: ENDBRANCH  13  14
DOCKED: ENDBRANCH  12  13
DOCKED: ENDBRANCH   1  12
DOCKED: TORSDOF 7
DOCKED: TER
DOCKED: ENDMDL
________________________________________________________________________________


    FINAL DOCKED STATE:
    ________________________


Run:   17 / 20
Time taken for this run:   0.027s

DOCKED: MODEL        17
DOCKED: USER    Run = 17
DOCKED: USER
DOCKED: USER    Estimated Free Energy of Binding    =  -6.24 kcal/mol  [=(1)+(2)+(3)-(4)]
DOCKED: USER
DOCKED: USER    (1) Final Intermolecular Energy     =  -8.32 kcal/mol
DOCKED: USER        vdW + Hbond + desolv Energy     =  -8.26 kcal/mol
DOCKED: USER        Electrostatic Energy            =  -0.06 kcal/mol
DOCKED: USER        Moving Ligand-Fixed Receptor    =  -8.32 kcal/mol
DOCKED: USER        Moving Ligand-Moving Receptor   =  +0.00 kcal/mol
DOCKED: USER    (2) Final Total Internal Energy     =  -1.36 kcal/mol
DOCKED: USER    (3) Torsional Free Energy           =  +2.09 kcal/mol
DOCKED: USER    (4) Unbound System's Energy         =  -1.36 kcal/mol
DOCKED: USER
DOCKED: USER
DOCKED: REMARK SMILES O/C(=N/CCOc1ccc2ccc(Cl)cc2c1)c1ccccn1
DOCKED: REMARK SMILES IDX 4 1 3 2 2 3 1 4 18 6 23 7 19 8 22 9 20 10 21 11 5 12 6 13
DOCKED: REMARK SMILES IDX 7 14 8 15 17 16 9 17 16 18 10 19 15 20 11 21 13 22 12 23
DOCKED: REMARK SMILES IDX 14 24
DOCKED: REMARK H PARENT 1 5
DOCKED: USER                              x       y       z     vdW  Elec       q    Type
DOCKED: USER                           _______ _______ _______ _____ _____    ______ ____
DOCKED: ROOT
DOCKED: ATOM      1  C   UNL     1     140.299  74.823 219.552 -0.05 -0.05    +0.188 C  
DOCKED: ENDROOT
DOCKED: BRANCH   1   2
DOCKED: ATOM      2  N   UNL     1     141.604  75.094 218.952 -0.04 +0.08    -0.246 NA 
DOCKED: BRANCH   2   3
DOCKED: ATOM      3  C   UNL     1     142.681  75.450 219.593 -0.22 -0.11    +0.232 C  
DOCKED: BRANCH   3   4
DOCKED: ATOM      4  O   UNL     1     142.841  76.782 219.963 -0.16 +0.36    -0.492 OA 
DOCKED: ATOM      5  H   UNL     1     143.710  77.114 220.367 -0.41 -0.33    +0.295 HD 
DOCKED: ENDBRANCH   3   4
DOCKED: BRANCH   3   6
DOCKED: ATOM      6  C   UNL     1     143.730  74.491 219.985 -0.33 -0.05    +0.124 A  
DOCKED: ATOM      7  N   UNL     1     144.902  74.963 220.491 -0.23 +0.13    -0.251 NA 
DOCKED: ATOM      8  C   UNL     1     143.572  73.111 219.778 -0.26 -0.01    +0.034 A  
DOCKED: ATOM      9  C   UNL     1     145.920  74.132 220.842 -0.55 -0.02    +0.112 A  
DOCKED: ATOM     10  C   UNL     1     144.605  72.243 220.135 -0.37 -0.00    +0.004 A  
DOCKED: ATOM     11  C   UNL     1     145.786  72.752 220.675 -0.55 +0.00    +0.020 A  
DOCKED: ENDBRANCH   3   6
DOCKED: ENDBRANCH   2   3
DOCKED: ENDBRANCH   1   2
DOCKED: BRANCH   1  12
DOCKED: ATOM     12  C   UNL     1     140.440  73.746 220.628 -0.12 -0.05    +0.253 C  
DOCKED: BRANCH  12  13
DOCKED: ATOM     13  O   UNL     1     140.350  74.315 221.936 -0.69 +0.03    -0.492 OA 
DOCKED: BRANCH  13  14
DOCKED: ATOM     14  C   UNL     1     139.966  75.632 222.231 -0.24 -0.02    +0.120 A  
DOCKED: ATOM     15  C   UNL     1     138.622  76.056 222.215 -0.28 -0.01    +0.047 A  
DOCKED: ATOM     16  C   UNL     1     140.969  76.551 222.562 -0.26 -0.02    +0.055 A  
DOCKED: ATOM     17  C   UNL     1     138.293  77.381 222.513 -0.28 -0.00    +0.012 A  
DOCKED: ATOM     18  C   UNL     1     140.649  77.883 222.865 -0.39 +0.00    -0.013 A  
DOCKED: ATOM     19  C   UNL     1     139.298  78.302 222.839 -0.31 +0.00    -0.018 A  
DOCKED: ATOM     20  C   UNL     1     141.656  78.805 223.193 -0.56 -0.01    +0.029 A  
DOCKED: ATOM     21  C   UNL     1     138.978  79.635 223.141 -0.34 -0.00    +0.010 A  
DOCKED: ATOM     22  C   UNL     1     141.324  80.130 223.493 -0.52 -0.01    +0.041 A  
DOCKED: ATOM     23  C   UNL     1     139.988  80.544 223.466 -0.43 -0.00    +0.021 A  
DOCKED: ATOM     24  Cl  UNL     1     142.587  81.277 223.903 -0.67 +0.01    -0.084 Cl 
DOCKED: ENDBRANCH  13  14
DOCKED: ENDBRANCH  12  13
DOCKED: ENDBRANCH   1  12
DOCKED: TORSDOF 7
DOCKED: TER
DOCKED: ENDMDL
________________________________________________________________________________


    FINAL DOCKED STATE:
    ________________________


Run:   18 / 20
Time taken for this run:   0.027s

DOCKED: MODEL        18
DOCKED: USER    Run = 18
DOCKED: USER
DOCKED: USER    Estimated Free Energy of Binding    =  -6.64 kcal/mol  [=(1)+(2)+(3)-(4)]
DOCKED: USER
DOCKED: USER    (1) Final Intermolecular Energy     =  -8.73 kcal/mol
DOCKED: USER        vdW + Hbond + desolv Energy     =  -8.63 kcal/mol
DOCKED: USER        Electrostatic Energy            =  -0.10 kcal/mol
DOCKED: USER        Moving Ligand-Fixed Receptor    =  -8.73 kcal/mol
DOCKED: USER        Moving Ligand-Moving Receptor   =  +0.00 kcal/mol
DOCKED: USER    (2) Final Total Internal Energy     =  -0.96 kcal/mol
DOCKED: USER    (3) Torsional Free Energy           =  +2.09 kcal/mol
DOCKED: USER    (4) Unbound System's Energy         =  -0.96 kcal/mol
DOCKED: USER
DOCKED: USER
DOCKED: REMARK SMILES O/C(=N/CCOc1ccc2ccc(Cl)cc2c1)c1ccccn1
DOCKED: REMARK SMILES IDX 4 1 3 2 2 3 1 4 18 6 23 7 19 8 22 9 20 10 21 11 5 12 6 13
DOCKED: REMARK SMILES IDX 7 14 8 15 17 16 9 17 16 18 10 19 15 20 11 21 13 22 12 23
DOCKED: REMARK SMILES IDX 14 24
DOCKED: REMARK H PARENT 1 5
DOCKED: USER                              x       y       z     vdW  Elec       q    Type
DOCKED: USER                           _______ _______ _______ _____ _____    ______ ____
DOCKED: ROOT
DOCKED: ATOM      1  C   UNL     1     140.586  72.631 220.681 -0.13 -0.03    +0.188 C  
DOCKED: ENDROOT
DOCKED: BRANCH   1   2
DOCKED: ATOM      2  N   UNL     1     141.250  73.671 219.899 -0.06 +0.05    -0.246 NA 
DOCKED: BRANCH   2   3
DOCKED: ATOM      3  C   UNL     1     142.299  74.351 220.266 -0.18 -0.07    +0.232 C  
DOCKED: BRANCH   3   4
DOCKED: ATOM      4  O   UNL     1     142.148  75.686 220.632 -0.10 +0.25    -0.492 OA 
DOCKED: ATOM      5  H   UNL     1     142.889  76.185 221.112 -0.32 -0.30    +0.295 HD 
DOCKED: ENDBRANCH   3   4
DOCKED: BRANCH   3   6
DOCKED: ATOM      6  C   UNL     1     143.646  73.757 220.351 -0.30 -0.03    +0.124 A  
DOCKED: ATOM      7  N   UNL     1     144.678  74.520 220.801 -0.24 +0.10    -0.251 NA 
DOCKED: ATOM      8  C   UNL     1     143.895  72.448 219.909 -0.28 -0.00    +0.034 A  
DOCKED: ATOM      9  C   UNL     1     145.949  74.041 220.875 -0.56 -0.02    +0.112 A  
DOCKED: ATOM     10  C   UNL     1     145.192  71.937 219.980 -0.34 +0.00    +0.004 A  
DOCKED: ATOM     11  C   UNL     1     146.227  72.733 220.469 -0.49 +0.00    +0.020 A  
DOCKED: ENDBRANCH   3   6
DOCKED: ENDBRANCH   2   3
DOCKED: ENDBRANCH   1   2
DOCKED: BRANCH   1  12
DOCKED: ATOM     12  C   UNL     1     139.819  73.268 221.841 -0.19 -0.04    +0.253 C  
DOCKED: BRANCH  12  13
DOCKED: ATOM     13  O   UNL     1     140.312  72.802 223.098 -0.42 +0.02    -0.492 OA 
DOCKED: BRANCH  13  14
DOCKED: ATOM     14  C   UNL     1     140.018  71.560 223.683 -0.34 -0.02    +0.120 A  
DOCKED: ATOM     15  C   UNL     1     139.167  70.615 223.078 -0.25 -0.01    +0.047 A  
DOCKED: ATOM     16  C   UNL     1     140.610  71.258 224.916 -0.49 -0.01    +0.055 A  
DOCKED: ATOM     17  C   UNL     1     138.904  69.393 223.705 -0.28 -0.00    +0.012 A  
DOCKED: ATOM     18  C   UNL     1     140.354  70.034 225.552 -0.48 +0.00    -0.013 A  
DOCKED: ATOM     19  C   UNL     1     139.491  69.093 224.941 -0.39 +0.00    -0.018 A  
DOCKED: ATOM     20  C   UNL     1     140.944  69.733 226.790 -0.54 -0.01    +0.029 A  
DOCKED: ATOM     21  C   UNL     1     139.235  67.870 225.578 -0.50 -0.00    +0.010 A  
DOCKED: ATOM     22  C   UNL     1     140.681  68.510 227.415 -0.63 -0.01    +0.041 A  
DOCKED: ATOM     23  C   UNL     1     139.827  67.581 226.810 -0.62 -0.00    +0.021 A  
DOCKED: ATOM     24  Cl  UNL     1     141.423  68.139 228.961 -0.51 +0.02    -0.084 Cl 
DOCKED: ENDBRANCH  13  14
DOCKED: ENDBRANCH  12  13
DOCKED: ENDBRANCH   1  12
DOCKED: TORSDOF 7
DOCKED: TER
DOCKED: ENDMDL
________________________________________________________________________________


    FINAL DOCKED STATE:
    ________________________


Run:   19 / 20
Time taken for this run:   0.027s

DOCKED: MODEL        19
DOCKED: USER    Run = 19
DOCKED: USER
DOCKED: USER    Estimated Free Energy of Binding    =  -7.06 kcal/mol  [=(1)+(2)+(3)-(4)]
DOCKED: USER
DOCKED: USER    (1) Final Intermolecular Energy     =  -9.14 kcal/mol
DOCKED: USER        vdW + Hbond + desolv Energy     =  -9.08 kcal/mol
DOCKED: USER        Electrostatic Energy            =  -0.06 kcal/mol
DOCKED: USER        Moving Ligand-Fixed Receptor    =  -9.14 kcal/mol
DOCKED: USER        Moving Ligand-Moving Receptor   =  +0.00 kcal/mol
DOCKED: USER    (2) Final Total Internal Energy     =  -0.87 kcal/mol
DOCKED: USER    (3) Torsional Free Energy           =  +2.09 kcal/mol
DOCKED: USER    (4) Unbound System's Energy         =  -0.87 kcal/mol
DOCKED: USER
DOCKED: USER
DOCKED: REMARK SMILES O/C(=N/CCOc1ccc2ccc(Cl)cc2c1)c1ccccn1
DOCKED: REMARK SMILES IDX 4 1 3 2 2 3 1 4 18 6 23 7 19 8 22 9 20 10 21 11 5 12 6 13
DOCKED: REMARK SMILES IDX 7 14 8 15 17 16 9 17 16 18 10 19 15 20 11 21 13 22 12 23
DOCKED: REMARK SMILES IDX 14 24
DOCKED: REMARK H PARENT 1 5
DOCKED: USER                              x       y       z     vdW  Elec       q    Type
DOCKED: USER                           _______ _______ _______ _____ _____    ______ ____
DOCKED: ROOT
DOCKED: ATOM      1  C   UNL     1     140.896  72.404 222.247 -0.17 -0.01    +0.188 C  
DOCKED: ENDROOT
DOCKED: BRANCH   1   2
DOCKED: ATOM      2  N   UNL     1     140.425  72.208 223.616 -0.30 +0.03    -0.246 NA 
DOCKED: BRANCH   2   3
DOCKED: ATOM      3  C   UNL     1     140.214  71.061 224.196 -0.30 -0.04    +0.232 C  
DOCKED: BRANCH   3   4
DOCKED: ATOM      4  O   UNL     1     139.715  70.002 223.443 -0.05 +0.09    -0.492 OA 
DOCKED: ATOM      5  H   UNL     1     139.679  69.062 223.820 +0.08 -0.06    +0.295 HD 
DOCKED: ENDBRANCH   3   4
DOCKED: BRANCH   3   6
DOCKED: ATOM      6  C   UNL     1     140.521  70.817 225.618 -0.47 -0.02    +0.124 A  
DOCKED: ATOM      7  N   UNL     1     140.420  69.552 226.108 -0.26 +0.04    -0.251 NA 
DOCKED: ATOM      8  C   UNL     1     140.841  71.872 226.486 -0.65 -0.01    +0.034 A  
DOCKED: ATOM      9  C   UNL     1     140.659  69.266 227.416 -0.52 -0.02    +0.112 A  
DOCKED: ATOM     10  C   UNL     1     141.094  71.598 227.832 -0.81 -0.00    +0.004 A  
DOCKED: ATOM     11  C   UNL     1     141.008  70.287 228.302 -0.55 -0.00    +0.020 A  
DOCKED: ENDBRANCH   3   6
DOCKED: ENDBRANCH   2   3
DOCKED: ENDBRANCH   1   2
DOCKED: BRANCH   1  12
DOCKED: ATOM     12  C   UNL     1     139.926  73.313 221.492 -0.18 -0.04    +0.253 C  
DOCKED: BRANCH  12  13
DOCKED: ATOM     13  O   UNL     1     139.757  74.559 222.171 -0.66 +0.05    -0.492 OA 
DOCKED: BRANCH  13  14
DOCKED: ATOM     14  C   UNL     1     140.263  75.798 221.746 -0.30 -0.03    +0.120 A  
DOCKED: ATOM     15  C   UNL     1     140.383  76.145 220.386 -0.17 -0.01    +0.047 A  
DOCKED: ATOM     16  C   UNL     1     140.653  76.719 222.725 -0.29 -0.01    +0.055 A  
DOCKED: ATOM     17  C   UNL     1     140.897  77.392 220.016 -0.20 -0.00    +0.012 A  
DOCKED: ATOM     18  C   UNL     1     141.168  77.973 222.364 -0.43 +0.01    -0.013 A  
DOCKED: ATOM     19  C   UNL     1     141.293  78.312 220.996 -0.31 +0.01    -0.018 A  
DOCKED: ATOM     20  C   UNL     1     141.563  78.896 223.346 -0.57 -0.01    +0.029 A  
DOCKED: ATOM     21  C   UNL     1     141.809  79.566 220.635 -0.33 -0.01    +0.010 A  
DOCKED: ATOM     22  C   UNL     1     142.075  80.143 222.974 -0.57 -0.01    +0.041 A  
DOCKED: ATOM     23  C   UNL     1     142.198  80.476 221.621 -0.44 -0.01    +0.021 A  
DOCKED: ATOM     24  Cl  UNL     1     142.565  81.292 224.206 -0.64 +0.01    -0.084 Cl 
DOCKED: ENDBRANCH  13  14
DOCKED: ENDBRANCH  12  13
DOCKED: ENDBRANCH   1  12
DOCKED: TORSDOF 7
DOCKED: TER
DOCKED: ENDMDL
________________________________________________________________________________


    FINAL DOCKED STATE:
    ________________________


Run:   20 / 20
Time taken for this run:   0.027s

DOCKED: MODEL        20
DOCKED: USER    Run = 20
DOCKED: USER
DOCKED: USER    Estimated Free Energy of Binding    =  -7.05 kcal/mol  [=(1)+(2)+(3)-(4)]
DOCKED: USER
DOCKED: USER    (1) Final Intermolecular Energy     =  -9.14 kcal/mol
DOCKED: USER        vdW + Hbond + desolv Energy     =  -9.03 kcal/mol
DOCKED: USER        Electrostatic Energy            =  -0.11 kcal/mol
DOCKED: USER        Moving Ligand-Fixed Receptor    =  -9.14 kcal/mol
DOCKED: USER        Moving Ligand-Moving Receptor   =  +0.00 kcal/mol
DOCKED: USER    (2) Final Total Internal Energy     =  -0.85 kcal/mol
DOCKED: USER    (3) Torsional Free Energy           =  +2.09 kcal/mol
DOCKED: USER    (4) Unbound System's Energy         =  -0.85 kcal/mol
DOCKED: USER
DOCKED: USER
DOCKED: REMARK SMILES O/C(=N/CCOc1ccc2ccc(Cl)cc2c1)c1ccccn1
DOCKED: REMARK SMILES IDX 4 1 3 2 2 3 1 4 18 6 23 7 19 8 22 9 20 10 21 11 5 12 6 13
DOCKED: REMARK SMILES IDX 7 14 8 15 17 16 9 17 16 18 10 19 15 20 11 21 13 22 12 23
DOCKED: REMARK SMILES IDX 14 24
DOCKED: REMARK H PARENT 1 5
DOCKED: USER                              x       y       z     vdW  Elec       q    Type
DOCKED: USER                           _______ _______ _______ _____ _____    ______ ____
DOCKED: ROOT
DOCKED: ATOM      1  C   UNL     1     139.172  74.885 221.936 -0.21 -0.04    +0.188 C  
DOCKED: ENDROOT
DOCKED: BRANCH   1   2
DOCKED: ATOM      2  N   UNL     1     140.049  75.964 222.386 -0.38 +0.04    -0.246 NA 
DOCKED: BRANCH   2   3
DOCKED: ATOM      3  C   UNL     1     140.741  76.758 221.619 -0.26 -0.08    +0.232 C  
DOCKED: BRANCH   3   4
DOCKED: ATOM      4  O   UNL     1     140.961  76.397 220.293 -0.04 +0.19    -0.492 OA 
DOCKED: ATOM      5  H   UNL     1     141.395  77.039 219.640 +0.11 -0.14    +0.295 HD 
DOCKED: ENDBRANCH   3   4
DOCKED: BRANCH   3   6
DOCKED: ATOM      6  C   UNL     1     141.272  78.053 222.083 -0.33 -0.06    +0.124 A  
DOCKED: ATOM      7  N   UNL     1     141.654  78.979 221.162 -0.20 +0.13    -0.251 NA 
DOCKED: ATOM      8  C   UNL     1     141.458  78.318 223.449 -0.53 -0.01    +0.034 A  
DOCKED: ATOM      9  C   UNL     1     142.179  80.180 221.524 -0.37 -0.05    +0.112 A  
DOCKED: ATOM     10  C   UNL     1     141.993  79.547 223.840 -0.62 -0.00    +0.004 A  
DOCKED: ATOM     11  C   UNL     1     142.353  80.488 222.875 -0.60 -0.01    +0.020 A  
DOCKED: ENDBRANCH   3   6
DOCKED: ENDBRANCH   2   3
DOCKED: ENDBRANCH   1   2
DOCKED: BRANCH   1  12
DOCKED: ATOM     12  C   UNL     1     140.011  73.671 221.536 -0.19 -0.04    +0.253 C  
DOCKED: BRANCH  12  13
DOCKED: ATOM     13  O   UNL     1     140.614  73.066 222.681 -0.52 -0.02    -0.492 OA 
DOCKED: BRANCH  13  14
DOCKED: ATOM     14  C   UNL     1     140.198  71.870 223.289 -0.32 -0.02    +0.120 A  
DOCKED: ATOM     15  C   UNL     1     139.300  70.976 222.675 -0.23 -0.01    +0.047 A  
DOCKED: ATOM     16  C   UNL     1     140.713  71.563 224.554 -0.41 -0.01    +0.055 A  
DOCKED: ATOM     17  C   UNL     1     138.915  69.800 223.325 -0.25 -0.00    +0.012 A  
DOCKED: ATOM     18  C   UNL     1     140.334  70.384 225.214 -0.48 +0.00    -0.013 A  
DOCKED: ATOM     19  C   UNL     1     139.425  69.495 224.594 -0.35 +0.00    -0.018 A  
DOCKED: ATOM     20  C   UNL     1     140.848  70.078 226.485 -0.54 -0.00    +0.029 A  
DOCKED: ATOM     21  C   UNL     1     139.046  68.317 225.255 -0.43 -0.00    +0.010 A  
DOCKED: ATOM     22  C   UNL     1     140.462  68.900 227.133 -0.59 -0.01    +0.041 A  
DOCKED: ATOM     23  C   UNL     1     139.563  68.022 226.519 -0.61 -0.00    +0.021 A  
DOCKED: ATOM     24  Cl  UNL     1     141.109  68.522 228.720 -0.69 +0.02    -0.084 Cl 
DOCKED: ENDBRANCH  13  14
DOCKED: ENDBRANCH  12  13
DOCKED: ENDBRANCH   1  12
DOCKED: TORSDOF 7
DOCKED: TER
DOCKED: ENDMDL
________________________________________________________________________________


    CLUSTERING HISTOGRAM
    ____________________


________________________________________________________________________________
     |           |     |           |     |
Clus | Lowest    | Run | Mean      | Num | Histogram
-ter | Binding   |     | Binding   | in  |
Rank | Energy    |     | Energy    | Clus|    5    10   15   20   25   30   35
_____|___________|_____|___________|_____|____:____|____:____|____:____|____:___
   1 |     -7.40 |   3 |     -7.23 |  11 |###########
   2 |     -7.12 |  13 |     -6.86 |   6 |######
   3 |     -6.64 |  18 |     -6.64 |   1 |#
   4 |     -6.39 |  16 |     -6.39 |   1 |#
   5 |     -6.24 |  17 |     -6.24 |   1 |#
_____|___________|_____|___________|_____|______________________________________


    RMSD TABLE
    __________


_______________________________________________________________________
     |      |      |           |         |                 |
Rank | Sub- | Run  | Binding   | Cluster | Reference       | Grep
     | Rank |      | Energy    | RMSD    | RMSD            | Pattern
_____|______|______|___________|_________|_________________|___________
   1      1      3       -7.40      0.00    272.52           RANKING
   1      2      1       -7.37      0.70    272.50           RANKING
   1      3     15       -7.36      0.92    272.52           RANKING
   1      4      8       -7.33      1.37    272.64           RANKING
   1      5      5       -7.30      0.74    272.48           RANKING
   1      6      9       -7.29      1.43    272.63           RANKING
   1      7      4       -7.26      1.65    272.70           RANKING
   1      8     12       -7.22      1.68    272.66           RANKING
   1      9     11       -7.06      1.21    272.66           RANKING
   1     10     20       -7.05      1.32    272.55           RANKING
   1     11      2       -6.87      1.86    272.46           RANKING
   2      1     13       -7.12      0.00    273.18           RANKING
   2      2     19       -7.06      1.20    272.96           RANKING
   2      3     14       -6.83      1.44    272.70           RANKING
   2      4      7       -6.80      1.42    272.64           RANKING
   2      5     10       -6.70      1.39    272.70           RANKING
   2      6      6       -6.66      0.82    272.89           RANKING
   3      1     18       -6.64      0.00    272.13           RANKING
   4      1     16       -6.39      0.00    272.10           RANKING
   5      1     17       -6.24      0.00    272.28           RANKING

Run time 0.534 sec
Idle time 0.000 sec
