AutoDock-GPU version: v1.6

**********************************************************
**    AutoDock-GPU AUTODOCKTOOLS-COMPATIBLE DLG FILE    **
**********************************************************


    DOCKING PARAMETERS
    ________________________


Ligand file:                               /home/a/REINVENT4/ReinventStudies/pleaseWork/justRnve/graph-dock-3mta9a/graph-DockGPU/node-autodockgpu/inputs/GZYVBVTYCKJLID-WUYUCNQVNA-M.pdbqt
Grid fld file:                             /home/a/REINVENT4/ReinventStudies/mols/Rad51/maps/rad51_receptor.maps.fld

Random seed:                               42
Number of runs:                            20
Number of energy evaluations:              2542121
Number of generations:                     42000
Size of population:                        150
Rate of crossover:                         80.000000%
Tournament selection probability limit:    60.000000%
Rate of mutation:                          2.000000%
Maximal allowed delta movement:            +/- 6.000000A
Maximal allowed delta angle:               +/- 90.000000

Rate of local search:                      100.000000%
Maximal number of local search iterations: 300
Rho lower bound:                           0.010000
Spread of local search delta movement:     2.000000A
Spread of local search delta angle:        74.999999
Limit of consecutive successes/failures:   4

Handle symmetry during clustering:         YES
RMSD tolerance:                            2.000000A

Program call in command line was:          /home/a/REINVENT4/ReinventStudies/adgpu-v1.6_linux_x64_cuda12_128wi --filelist batch.txt --heuristics 1 --nrun 20 --psize 150 --lsit 300 --seed 42 --heurmax 12000000 


    GRID PARAMETERS
    ________________________


Receptor name:                             rad51_receptor
Number of grid points (x, y, z):           53, 53, 53
Grid center (x, y, z):                     139.950000, 75.640000, 221.970000A
Grid size (x, y, z):                       19.500000, 19.500000, 19.500000A
Grid spacing:                              0.375000A


    LIGAND PARAMETERS
    ________________________


Ligand name:                               /home/a/REINVENT4/ReinventStudies/pleaseWork/justRnve/graph-dock-3mta9a/graph-DockGPU/node-autodockgpu/inputs/GZYVBVTYCKJLID-WUYUCNQVNA-M
Number of atoms:                           30
Number of rotatable bonds:                 10
Number of atom types:                      7


    DUMMY DATA (only for ADT-compatibility)
    ________________________


DPF> outlev 1
DPF> ga_run 20
DPF> fld /home/a/REINVENT4/ReinventStudies/mols/Rad51/maps/rad51_receptor.maps.fld
DPF> move /home/a/REINVENT4/ReinventStudies/pleaseWork/justRnve/graph-dock-3mta9a/graph-DockGPU/node-autodockgpu/inputs/GZYVBVTYCKJLID-WUYUCNQVNA-M.pdbqt


    COUNTER STATES
    ________________________


Number of energy evaluations performed:    1138129
Number of generations used:                85


    INPUT LIGAND PDBQT FILE:
    ________________________


INPUT-LIGAND-PDBQT: REMARK SMILES O=C(CCCCCC(=O)c1nnc(-c2nc(=O)c(F)c[nH]2)o1)[N-]c1ccccc1
INPUT-LIGAND-PDBQT: REMARK SMILES IDX 5 1 4 2 3 3 2 4 1 5 23 6 24 7 25 8 29 9 26 10 28 11 27 12
INPUT-LIGAND-PDBQT: REMARK SMILES IDX 6 13 7 14 8 15 9 16 10 17 11 18 22 19 12 20 13 21 14 22
INPUT-LIGAND-PDBQT: REMARK SMILES IDX 15 23 21 24 16 25 20 26 18 27 17 29 19 30
INPUT-LIGAND-PDBQT: REMARK H PARENT 21 28
INPUT-LIGAND-PDBQT: ROOT
INPUT-LIGAND-PDBQT: ATOM      1  C   UNL     1       0.885   3.234   1.748  1.00  0.00     0.001 C 
INPUT-LIGAND-PDBQT: ENDROOT
INPUT-LIGAND-PDBQT: BRANCH   1   2
INPUT-LIGAND-PDBQT: ATOM      2  C   UNL     1       0.421   4.123   0.577  1.00  0.00     0.006 C 
INPUT-LIGAND-PDBQT: BRANCH   2   3
INPUT-LIGAND-PDBQT: ATOM      3  C   UNL     1       0.940   3.639  -0.790  1.00  0.00     0.055 C 
INPUT-LIGAND-PDBQT: BRANCH   3   4
INPUT-LIGAND-PDBQT: ATOM      4  C   UNL     1       0.033   2.615  -1.406  1.00  0.00     0.054 C 
INPUT-LIGAND-PDBQT: ATOM      5  O   UNL     1      -0.518   2.861  -2.511  1.00  0.00    -0.320 OA
INPUT-LIGAND-PDBQT: BRANCH   4   6
INPUT-LIGAND-PDBQT: ATOM      6  N   UNL     1      -0.230   1.386  -0.714  1.00  0.00    -0.627 NA
INPUT-LIGAND-PDBQT: BRANCH   6   7
INPUT-LIGAND-PDBQT: ATOM      7  C   UNL     1      -0.945   0.258  -1.232  1.00  0.00    -0.134 A 
INPUT-LIGAND-PDBQT: ATOM      8  C   UNL     1      -0.902  -0.087  -2.594  1.00  0.00    -0.016 A 
INPUT-LIGAND-PDBQT: ATOM      9  C   UNL     1      -1.661  -0.551  -0.341  1.00  0.00    -0.016 A 
INPUT-LIGAND-PDBQT: ATOM     10  C   UNL     1      -1.580  -1.222  -3.052  1.00  0.00    -0.001 A 
INPUT-LIGAND-PDBQT: ATOM     11  C   UNL     1      -2.366  -1.665  -0.809  1.00  0.00    -0.001 A 
INPUT-LIGAND-PDBQT: ATOM     12  C   UNL     1      -2.318  -2.005  -2.162  1.00  0.00    -0.000 A 
INPUT-LIGAND-PDBQT: ENDBRANCH   6   7
INPUT-LIGAND-PDBQT: ENDBRANCH   4   6
INPUT-LIGAND-PDBQT: ENDBRANCH   3   4
INPUT-LIGAND-PDBQT: ENDBRANCH   2   3
INPUT-LIGAND-PDBQT: ENDBRANCH   1   2
INPUT-LIGAND-PDBQT: BRANCH   1  13
INPUT-LIGAND-PDBQT: ATOM     13  C   UNL     1       2.346   3.512   2.172  1.00  0.00     0.008 C 
INPUT-LIGAND-PDBQT: BRANCH  13  14
INPUT-LIGAND-PDBQT: ATOM     14  C   UNL     1       3.180   2.227   2.317  1.00  0.00     0.086 C 
INPUT-LIGAND-PDBQT: BRANCH  14  15
INPUT-LIGAND-PDBQT: ATOM     15  C   UNL     1       3.717   1.778   0.985  1.00  0.00     0.219 C 
INPUT-LIGAND-PDBQT: ATOM     16  O   UNL     1       4.636   2.443   0.435  1.00  0.00    -0.289 OA
INPUT-LIGAND-PDBQT: BRANCH  15  17
INPUT-LIGAND-PDBQT: ATOM     17  C   UNL     1       3.169   0.604   0.291  1.00  0.00     0.284 A 
INPUT-LIGAND-PDBQT: ATOM     18  N   UNL     1       3.472   0.275  -0.980  1.00  0.00    -0.104 NA
INPUT-LIGAND-PDBQT: ATOM     19  O   UNL     1       2.337  -0.259   0.822  1.00  0.00    -0.411 OA
INPUT-LIGAND-PDBQT: ATOM     20  N   UNL     1       2.801  -0.835  -1.247  1.00  0.00    -0.104 NA
INPUT-LIGAND-PDBQT: ATOM     21  C   UNL     1       2.119  -1.141  -0.125  1.00  0.00     0.284 A 
INPUT-LIGAND-PDBQT: BRANCH  21  22
INPUT-LIGAND-PDBQT: ATOM     22  C   UNL     1       1.245  -2.313   0.011  1.00  0.00     0.199 A 
INPUT-LIGAND-PDBQT: ATOM     23  N   UNL     1       0.945  -3.061  -1.084  1.00  0.00    -0.183 NA
INPUT-LIGAND-PDBQT: ATOM     24  N   UNL     1       0.730  -2.656   1.226  1.00  0.00    -0.339 N 
INPUT-LIGAND-PDBQT: ATOM     25  C   UNL     1       0.130  -4.145  -0.994  1.00  0.00     0.309 A 
INPUT-LIGAND-PDBQT: ATOM     26  C   UNL     1      -0.080  -3.741   1.357  1.00  0.00     0.129 A 
INPUT-LIGAND-PDBQT: ATOM     27  C   UNL     1      -0.407  -4.508   0.239  1.00  0.00     0.206 A 
INPUT-LIGAND-PDBQT: ATOM     28  H   UNL     1       0.959  -2.093   2.074  1.00  0.00     0.168 HD
INPUT-LIGAND-PDBQT: ATOM     29  O   UNL     1      -0.141  -4.814  -2.027  1.00  0.00    -0.264 OA
INPUT-LIGAND-PDBQT: ATOM     30  F   UNL     1      -1.223  -5.588   0.357  1.00  0.00    -0.199 F 
INPUT-LIGAND-PDBQT: ENDBRANCH  21  22
INPUT-LIGAND-PDBQT: ENDBRANCH  15  17
INPUT-LIGAND-PDBQT: ENDBRANCH  14  15
INPUT-LIGAND-PDBQT: ENDBRANCH  13  14
INPUT-LIGAND-PDBQT: ENDBRANCH   1  13
INPUT-LIGAND-PDBQT: TORSDOF 10


    FINAL DOCKED STATE:
    ________________________


Run:   1 / 20
Time taken for this run:   0.053s

DOCKED: MODEL        1
DOCKED: USER    Run = 1
DOCKED: USER
DOCKED: USER    Estimated Free Energy of Binding    =  -6.51 kcal/mol  [=(1)+(2)+(3)-(4)]
DOCKED: USER
DOCKED: USER    (1) Final Intermolecular Energy     =  -9.49 kcal/mol
DOCKED: USER        vdW + Hbond + desolv Energy     =  -9.00 kcal/mol
DOCKED: USER        Electrostatic Energy            =  -0.49 kcal/mol
DOCKED: USER        Moving Ligand-Fixed Receptor    =  -9.49 kcal/mol
DOCKED: USER        Moving Ligand-Moving Receptor   =  +0.00 kcal/mol
DOCKED: USER    (2) Final Total Internal Energy     =  -1.62 kcal/mol
DOCKED: USER    (3) Torsional Free Energy           =  +2.98 kcal/mol
DOCKED: USER    (4) Unbound System's Energy         =  -1.62 kcal/mol
DOCKED: USER
DOCKED: USER
DOCKED: REMARK SMILES O=C(CCCCCC(=O)c1nnc(-c2nc(=O)c(F)c[nH]2)o1)[N-]c1ccccc1
DOCKED: REMARK SMILES IDX 5 1 4 2 3 3 2 4 1 5 23 6 24 7 25 8 29 9 26 10 28 11 27 12
DOCKED: REMARK SMILES IDX 6 13 7 14 8 15 9 16 10 17 11 18 22 19 12 20 13 21 14 22
DOCKED: REMARK SMILES IDX 15 23 21 24 16 25 20 26 18 27 17 29 19 30
DOCKED: REMARK H PARENT 21 28
DOCKED: USER                              x       y       z     vdW  Elec       q    Type
DOCKED: USER                           _______ _______ _______ _____ _____    ______ ____
DOCKED: ROOT
DOCKED: ATOM      1  C   UNL     1     143.316  74.322 220.362 -0.36 -0.00    +0.001 C  
DOCKED: ENDROOT
DOCKED: BRANCH   1   2
DOCKED: ATOM      2  C   UNL     1     143.762  72.926 220.842 -0.32 -0.00    +0.006 C  
DOCKED: BRANCH   2   3
DOCKED: ATOM      3  C   UNL     1     145.263  72.663 220.621 -0.46 -0.00    +0.055 C  
DOCKED: BRANCH   3   4
DOCKED: ATOM      4  C   UNL     1     145.602  72.521 219.167 -0.28 +0.03    +0.054 C  
DOCKED: ATOM      5  O   UNL     1     146.290  73.410 218.601 -0.68 -0.23    -0.320 OA 
DOCKED: BRANCH   4   6
DOCKED: ATOM      6  N   UNL     1     145.106  71.397 218.425 -0.04 -0.26    -0.627 NA 
DOCKED: BRANCH   6   7
DOCKED: ATOM      7  C   UNL     1     145.134  70.027 218.843 -0.22 -0.04    -0.134 A  
DOCKED: ATOM      8  C   UNL     1     146.336  69.374 219.170 -0.36 -0.01    -0.016 A  
DOCKED: ATOM      9  C   UNL     1     143.921  69.341 218.981 -0.21 +0.00    -0.016 A  
DOCKED: ATOM     10  C   UNL     1     146.315  68.048 219.615 -0.49 -0.00    -0.001 A  
DOCKED: ATOM     11  C   UNL     1     143.908  68.004 219.393 -0.30 +0.00    -0.001 A  
DOCKED: ATOM     12  C   UNL     1     145.104  67.361 219.719 -0.48 +0.00    -0.000 A  
DOCKED: ENDBRANCH   6   7
DOCKED: ENDBRANCH   4   6
DOCKED: ENDBRANCH   3   4
DOCKED: ENDBRANCH   2   3
DOCKED: ENDBRANCH   1   2
DOCKED: BRANCH   1  13
DOCKED: ATOM     13  C   UNL     1     142.063  74.275 219.456 -0.18 -0.00    +0.008 C  
DOCKED: BRANCH  13  14
DOCKED: ATOM     14  C   UNL     1     140.905  73.479 220.082 -0.12 -0.02    +0.086 C  
DOCKED: BRANCH  14  15
DOCKED: ATOM     15  C   UNL     1     140.693  73.872 221.519 -0.22 -0.02    +0.219 C  
DOCKED: ATOM     16  O   UNL     1     140.829  73.003 222.422 -0.60 -0.00    -0.289 OA 
DOCKED: BRANCH  15  17
DOCKED: ATOM     17  C   UNL     1     140.293  75.236 221.892 -0.19 -0.04    +0.284 A  
DOCKED: ATOM     18  N   UNL     1     139.012  75.638 222.003 -0.29 +0.02    -0.104 NA 
DOCKED: ATOM     19  O   UNL     1     141.125  76.211 222.168 -0.25 +0.14    -0.411 OA 
DOCKED: ATOM     20  N   UNL     1     139.051  76.913 222.361 -0.26 +0.02    -0.104 NA 
DOCKED: ATOM     21  C   UNL     1     140.357  77.235 222.459 -0.24 -0.08    +0.284 A  
DOCKED: BRANCH  21  22
DOCKED: ATOM     22  C   UNL     1     140.848  78.565 222.841 -0.35 -0.06    +0.199 A  
DOCKED: ATOM     23  N   UNL     1     142.180  78.834 222.783 -0.35 +0.09    -0.183 NA 
DOCKED: ATOM     24  N   UNL     1     139.980  79.531 223.256 -0.18 +0.06    -0.339 N  
DOCKED: ATOM     25  C   UNL     1     142.668  80.051 223.141 -0.40 -0.10    +0.309 A  
DOCKED: ATOM     26  C   UNL     1     140.431  80.765 223.611 -0.34 -0.02    +0.129 A  
DOCKED: ATOM     27  C   UNL     1     141.795  81.049 223.570 -0.43 -0.03    +0.206 A  
DOCKED: ATOM     28  H   UNL     1     138.956  79.337 223.298 +0.07 -0.02    +0.168 HD 
DOCKED: ATOM     29  O   UNL     1     143.908  80.270 223.088 -0.43 +0.08    -0.264 OA 
DOCKED: ATOM     30  F   UNL     1     142.257  82.275 223.932 -0.04 +0.01    -0.199 F  
DOCKED: ENDBRANCH  21  22
DOCKED: ENDBRANCH  15  17
DOCKED: ENDBRANCH  14  15
DOCKED: ENDBRANCH  13  14
DOCKED: ENDBRANCH   1  13
DOCKED: TORSDOF 10
DOCKED: TER
DOCKED: ENDMDL
________________________________________________________________________________


    FINAL DOCKED STATE:
    ________________________


Run:   2 / 20
Time taken for this run:   0.053s

DOCKED: MODEL        2
DOCKED: USER    Run = 2
DOCKED: USER
DOCKED: USER    Estimated Free Energy of Binding    =  -4.43 kcal/mol  [=(1)+(2)+(3)-(4)]
DOCKED: USER
DOCKED: USER    (1) Final Intermolecular Energy     =  -7.42 kcal/mol
DOCKED: USER        vdW + Hbond + desolv Energy     =  -7.70 kcal/mol
DOCKED: USER        Electrostatic Energy            =  +0.28 kcal/mol
DOCKED: USER        Moving Ligand-Fixed Receptor    =  -7.42 kcal/mol
DOCKED: USER        Moving Ligand-Moving Receptor   =  +0.00 kcal/mol
DOCKED: USER    (2) Final Total Internal Energy     =  -3.91 kcal/mol
DOCKED: USER    (3) Torsional Free Energy           =  +2.98 kcal/mol
DOCKED: USER    (4) Unbound System's Energy         =  -3.91 kcal/mol
DOCKED: USER
DOCKED: USER
DOCKED: REMARK SMILES O=C(CCCCCC(=O)c1nnc(-c2nc(=O)c(F)c[nH]2)o1)[N-]c1ccccc1
DOCKED: REMARK SMILES IDX 5 1 4 2 3 3 2 4 1 5 23 6 24 7 25 8 29 9 26 10 28 11 27 12
DOCKED: REMARK SMILES IDX 6 13 7 14 8 15 9 16 10 17 11 18 22 19 12 20 13 21 14 22
DOCKED: REMARK SMILES IDX 15 23 21 24 16 25 20 26 18 27 17 29 19 30
DOCKED: REMARK H PARENT 21 28
DOCKED: USER                              x       y       z     vdW  Elec       q    Type
DOCKED: USER                           _______ _______ _______ _____ _____    ______ ____
DOCKED: ROOT
DOCKED: ATOM      1  C   UNL     1     142.793  77.132 217.160 -0.26 -0.00    +0.001 C  
DOCKED: ENDROOT
DOCKED: BRANCH   1   2
DOCKED: ATOM      2  C   UNL     1     142.201  78.544 217.348 -0.26 -0.00    +0.006 C  
DOCKED: BRANCH   2   3
DOCKED: ATOM      3  C   UNL     1     142.197  79.004 218.818 -0.27 -0.04    +0.055 C  
DOCKED: BRANCH   3   4
DOCKED: ATOM      4  C   UNL     1     140.826  78.938 219.424 -0.16 -0.02    +0.054 C  
DOCKED: ATOM      5  O   UNL     1     139.980  78.132 218.955 -0.02 +0.11    -0.320 OA 
DOCKED: BRANCH   4   6
DOCKED: ATOM      6  N   UNL     1     140.480  79.819 220.503 +0.06 +0.21    -0.627 NA 
DOCKED: BRANCH   6   7
DOCKED: ATOM      7  C   UNL     1     141.178  79.952 221.746 -0.30 +0.04    -0.134 A  
DOCKED: ATOM      8  C   UNL     1     141.533  81.208 222.268 -0.46 +0.00    -0.016 A  
DOCKED: ATOM      9  C   UNL     1     141.465  78.796 222.483 -0.48 +0.01    -0.016 A  
DOCKED: ATOM     10  C   UNL     1     142.176  81.296 223.507 -0.61 +0.00    -0.001 A  
DOCKED: ATOM     11  C   UNL     1     142.140  78.887 223.705 -0.55 +0.00    -0.001 A  
DOCKED: ATOM     12  C   UNL     1     142.487  80.137 224.221 -0.51 +0.00    -0.000 A  
DOCKED: ENDBRANCH   6   7
DOCKED: ENDBRANCH   4   6
DOCKED: ENDBRANCH   3   4
DOCKED: ENDBRANCH   2   3
DOCKED: ENDBRANCH   1   2
DOCKED: BRANCH   1  13
DOCKED: ATOM     13  C   UNL     1     143.328  76.524 218.477 -0.32 -0.01    +0.008 C  
DOCKED: BRANCH  13  14
DOCKED: ATOM     14  C   UNL     1     142.807  75.098 218.730 -0.20 -0.03    +0.086 C  
DOCKED: BRANCH  14  15
DOCKED: ATOM     15  C   UNL     1     142.763  74.793 220.203 -0.22 -0.09    +0.219 C  
DOCKED: ATOM     16  O   UNL     1     143.808  74.385 220.779 -0.28 +0.11    -0.289 OA 
DOCKED: BRANCH  15  17
DOCKED: ATOM     17  C   UNL     1     141.522  74.921 220.979 -0.19 -0.08    +0.284 A  
DOCKED: ATOM     18  N   UNL     1     141.068  73.980 221.830 -0.59 +0.00    -0.104 NA 
DOCKED: ATOM     19  O   UNL     1     140.721  75.959 220.944 -0.12 +0.13    -0.411 OA 
DOCKED: ATOM     20  N   UNL     1     139.942  74.453 222.342 -0.80 +0.00    -0.104 NA 
DOCKED: ATOM     21  C   UNL     1     139.757  75.667 221.785 -0.21 -0.06    +0.284 A  
DOCKED: BRANCH  21  22
DOCKED: ATOM     22  C   UNL     1     138.618  76.543 222.086 -0.21 -0.04    +0.199 A  
DOCKED: ATOM     23  N   UNL     1     137.593  76.078 222.849 -0.21 +0.05    -0.183 NA 
DOCKED: ATOM     24  N   UNL     1     138.579  77.818 221.606 -0.06 +0.07    -0.339 N  
DOCKED: ATOM     25  C   UNL     1     136.519  76.860 223.136 -0.10 -0.05    +0.309 A  
DOCKED: ATOM     26  C   UNL     1     137.526  78.634 221.882 -0.12 -0.02    +0.129 A  
DOCKED: ATOM     27  C   UNL     1     136.461  78.165 222.651 -0.12 -0.03    +0.206 A  
DOCKED: ATOM     28  H   UNL     1     139.363  78.188 221.025 +0.06 -0.04    +0.168 HD 
DOCKED: ATOM     29  O   UNL     1     135.577  76.400 223.836 -0.18 +0.04    -0.264 OA 
DOCKED: ATOM     30  F   UNL     1     135.400  78.968 222.925 -0.03 +0.03    -0.199 F  
DOCKED: ENDBRANCH  21  22
DOCKED: ENDBRANCH  15  17
DOCKED: ENDBRANCH  14  15
DOCKED: ENDBRANCH  13  14
DOCKED: ENDBRANCH   1  13
DOCKED: TORSDOF 10
DOCKED: TER
DOCKED: ENDMDL
________________________________________________________________________________


    FINAL DOCKED STATE:
    ________________________


Run:   3 / 20
Time taken for this run:   0.053s

DOCKED: MODEL        3
DOCKED: USER    Run = 3
DOCKED: USER
DOCKED: USER    Estimated Free Energy of Binding    =  -7.35 kcal/mol  [=(1)+(2)+(3)-(4)]
DOCKED: USER
DOCKED: USER    (1) Final Intermolecular Energy     = -10.33 kcal/mol
DOCKED: USER        vdW + Hbond + desolv Energy     = -10.31 kcal/mol
DOCKED: USER        Electrostatic Energy            =  -0.03 kcal/mol
DOCKED: USER        Moving Ligand-Fixed Receptor    = -10.33 kcal/mol
DOCKED: USER        Moving Ligand-Moving Receptor   =  +0.00 kcal/mol
DOCKED: USER    (2) Final Total Internal Energy     =  -1.61 kcal/mol
DOCKED: USER    (3) Torsional Free Energy           =  +2.98 kcal/mol
DOCKED: USER    (4) Unbound System's Energy         =  -1.61 kcal/mol
DOCKED: USER
DOCKED: USER
DOCKED: REMARK SMILES O=C(CCCCCC(=O)c1nnc(-c2nc(=O)c(F)c[nH]2)o1)[N-]c1ccccc1
DOCKED: REMARK SMILES IDX 5 1 4 2 3 3 2 4 1 5 23 6 24 7 25 8 29 9 26 10 28 11 27 12
DOCKED: REMARK SMILES IDX 6 13 7 14 8 15 9 16 10 17 11 18 22 19 12 20 13 21 14 22
DOCKED: REMARK SMILES IDX 15 23 21 24 16 25 20 26 18 27 17 29 19 30
DOCKED: REMARK H PARENT 21 28
DOCKED: USER                              x       y       z     vdW  Elec       q    Type
DOCKED: USER                           _______ _______ _______ _____ _____    ______ ____
DOCKED: ROOT
DOCKED: ATOM      1  C   UNL     1     137.362  71.449 223.738 -0.19 -0.00    +0.001 C  
DOCKED: ENDROOT
DOCKED: BRANCH   1   2
DOCKED: ATOM      2  C   UNL     1     136.896  70.080 224.273 -0.25 -0.00    +0.006 C  
DOCKED: BRANCH   2   3
DOCKED: ATOM      3  C   UNL     1     137.722  68.904 223.719 -0.24 -0.01    +0.055 C  
DOCKED: BRANCH   3   4
DOCKED: ATOM      4  C   UNL     1     138.982  68.683 224.502 -0.34 -0.01    +0.054 C  
DOCKED: ATOM      5  O   UNL     1     139.192  67.561 225.033 -0.83 -0.01    -0.320 OA 
DOCKED: BRANCH   4   6
DOCKED: ATOM      6  N   UNL     1     139.915  69.760 224.671 +0.05 +0.11    -0.627 NA 
DOCKED: BRANCH   6   7
DOCKED: ATOM      7  C   UNL     1     140.236  70.418 225.902 -0.43 +0.02    -0.134 A  
DOCKED: ATOM      8  C   UNL     1     141.038  71.571 225.941 -0.63 +0.00    -0.016 A  
DOCKED: ATOM      9  C   UNL     1     139.686  69.923 227.091 -0.51 +0.00    -0.016 A  
DOCKED: ATOM     10  C   UNL     1     141.292  72.209 227.160 -0.80 +0.00    -0.001 A  
DOCKED: ATOM     11  C   UNL     1     139.972  70.543 228.313 -0.63 +0.00    -0.001 A  
DOCKED: ATOM     12  C   UNL     1     140.766  71.690 228.345 -0.77 +0.00    -0.000 A  
DOCKED: ENDBRANCH   6   7
DOCKED: ENDBRANCH   4   6
DOCKED: ENDBRANCH   3   4
DOCKED: ENDBRANCH   2   3
DOCKED: ENDBRANCH   1   2
DOCKED: BRANCH   1  13
DOCKED: ATOM     13  C   UNL     1     136.236  72.509 223.738 -0.13 -0.00    +0.008 C  
DOCKED: BRANCH  13  14
DOCKED: ATOM     14  C   UNL     1     136.261  73.406 222.488 -0.13 -0.02    +0.086 C  
DOCKED: BRANCH  14  15
DOCKED: ATOM     15  C   UNL     1     137.563  73.265 221.747 -0.09 -0.06    +0.219 C  
DOCKED: ATOM     16  O   UNL     1     137.709  72.314 220.933 -0.03 +0.06    -0.289 OA 
DOCKED: BRANCH  15  17
DOCKED: ATOM     17  C   UNL     1     138.684  74.187 221.979 -0.11 -0.08    +0.284 A  
DOCKED: ATOM     18  N   UNL     1     139.979  73.815 221.954 -0.78 +0.01    -0.104 NA 
DOCKED: ATOM     19  O   UNL     1     138.561  75.468 222.226 -0.19 +0.10    -0.411 OA 
DOCKED: ATOM     20  N   UNL     1     140.685  74.908 222.196 -0.57 +0.00    -0.104 NA 
DOCKED: ATOM     21  C   UNL     1     139.791  75.906 222.354 -0.20 -0.05    +0.284 A  
DOCKED: BRANCH  21  22
DOCKED: ATOM     22  C   UNL     1     140.157  77.300 222.633 -0.24 -0.05    +0.199 A  
DOCKED: ATOM     23  N   UNL     1     139.212  78.168 223.081 -0.20 +0.03    -0.183 NA 
DOCKED: ATOM     24  N   UNL     1     141.437  77.731 222.446 -0.17 +0.17    -0.339 N  
DOCKED: ATOM     25  C   UNL     1     139.515  79.468 223.338 -0.22 -0.05    +0.309 A  
DOCKED: ATOM     26  C   UNL     1     141.781  79.022 222.703 -0.45 -0.05    +0.129 A  
DOCKED: ATOM     27  C   UNL     1     140.817  79.926 223.149 -0.34 -0.04    +0.206 A  
DOCKED: ATOM     28  H   UNL     1     142.172  77.072 222.109 -0.47 -0.17    +0.168 HD 
DOCKED: ATOM     29  O   UNL     1     138.617  80.254 223.741 -0.27 +0.03    -0.264 OA 
DOCKED: ATOM     30  F   UNL     1     141.147  81.220 223.401 -0.14 +0.03    -0.199 F  
DOCKED: ENDBRANCH  21  22
DOCKED: ENDBRANCH  15  17
DOCKED: ENDBRANCH  14  15
DOCKED: ENDBRANCH  13  14
DOCKED: ENDBRANCH   1  13
DOCKED: TORSDOF 10
DOCKED: TER
DOCKED: ENDMDL
________________________________________________________________________________


    FINAL DOCKED STATE:
    ________________________


Run:   4 / 20
Time taken for this run:   0.053s

DOCKED: MODEL        4
DOCKED: USER    Run = 4
DOCKED: USER
DOCKED: USER    Estimated Free Energy of Binding    =  -7.41 kcal/mol  [=(1)+(2)+(3)-(4)]
DOCKED: USER
DOCKED: USER    (1) Final Intermolecular Energy     = -10.39 kcal/mol
DOCKED: USER        vdW + Hbond + desolv Energy     = -10.35 kcal/mol
DOCKED: USER        Electrostatic Energy            =  -0.04 kcal/mol
DOCKED: USER        Moving Ligand-Fixed Receptor    = -10.39 kcal/mol
DOCKED: USER        Moving Ligand-Moving Receptor   =  +0.00 kcal/mol
DOCKED: USER    (2) Final Total Internal Energy     =  -1.59 kcal/mol
DOCKED: USER    (3) Torsional Free Energy           =  +2.98 kcal/mol
DOCKED: USER    (4) Unbound System's Energy         =  -1.59 kcal/mol
DOCKED: USER
DOCKED: USER
DOCKED: REMARK SMILES O=C(CCCCCC(=O)c1nnc(-c2nc(=O)c(F)c[nH]2)o1)[N-]c1ccccc1
DOCKED: REMARK SMILES IDX 5 1 4 2 3 3 2 4 1 5 23 6 24 7 25 8 29 9 26 10 28 11 27 12
DOCKED: REMARK SMILES IDX 6 13 7 14 8 15 9 16 10 17 11 18 22 19 12 20 13 21 14 22
DOCKED: REMARK SMILES IDX 15 23 21 24 16 25 20 26 18 27 17 29 19 30
DOCKED: REMARK H PARENT 21 28
DOCKED: USER                              x       y       z     vdW  Elec       q    Type
DOCKED: USER                           _______ _______ _______ _____ _____    ______ ____
DOCKED: ROOT
DOCKED: ATOM      1  C   UNL     1     138.085  70.757 222.605 -0.18 -0.00    +0.001 C  
DOCKED: ENDROOT
DOCKED: BRANCH   1   2
DOCKED: ATOM      2  C   UNL     1     138.987  69.800 223.408 -0.26 -0.00    +0.006 C  
DOCKED: BRANCH   2   3
DOCKED: ATOM      3  C   UNL     1     138.198  68.886 224.364 -0.30 -0.00    +0.055 C  
DOCKED: BRANCH   3   4
DOCKED: ATOM      4  C   UNL     1     139.097  68.161 225.321 -0.42 -0.00    +0.054 C  
DOCKED: ATOM      5  O   UNL     1     139.578  67.045 224.994 -0.77 +0.00    -0.320 OA 
DOCKED: BRANCH   4   6
DOCKED: ATOM      6  N   UNL     1     139.367  68.725 226.613 -0.00 +0.08    -0.627 NA 
DOCKED: BRANCH   6   7
DOCKED: ATOM      7  C   UNL     1     140.048  69.958 226.874 -0.45 +0.02    -0.134 A  
DOCKED: ATOM      8  C   UNL     1     139.976  70.596 228.124 -0.62 +0.00    -0.016 A  
DOCKED: ATOM      9  C   UNL     1     140.851  70.509 225.867 -0.56 +0.00    -0.016 A  
DOCKED: ATOM     10  C   UNL     1     140.692  71.777 228.351 -0.77 +0.00    -0.001 A  
DOCKED: ATOM     11  C   UNL     1     141.537  71.708 226.087 -0.56 +0.00    -0.001 A  
DOCKED: ATOM     12  C   UNL     1     141.464  72.337 227.331 -0.80 +0.00    -0.000 A  
DOCKED: ENDBRANCH   6   7
DOCKED: ENDBRANCH   4   6
DOCKED: ENDBRANCH   3   4
DOCKED: ENDBRANCH   2   3
DOCKED: ENDBRANCH   1   2
DOCKED: BRANCH   1  13
DOCKED: ATOM     13  C   UNL     1     137.433  71.849 223.484 -0.07 -0.00    +0.008 C  
DOCKED: BRANCH  13  14
DOCKED: ATOM     14  C   UNL     1     136.569  72.832 222.673 -0.13 -0.02    +0.086 C  
DOCKED: BRANCH  14  15
DOCKED: ATOM     15  C   UNL     1     137.376  73.491 221.587 -0.09 -0.06    +0.219 C  
DOCKED: ATOM     16  O   UNL     1     137.074  73.282 220.381 -0.02 +0.06    -0.289 OA 
DOCKED: BRANCH  15  17
DOCKED: ATOM     17  C   UNL     1     138.533  74.343 221.898 -0.12 -0.08    +0.284 A  
DOCKED: ATOM     18  N   UNL     1     139.803  73.896 221.943 -0.71 +0.01    -0.104 NA 
DOCKED: ATOM     19  O   UNL     1     138.469  75.627 222.158 -0.17 +0.10    -0.411 OA 
DOCKED: ATOM     20  N   UNL     1     140.556  74.943 222.242 -0.59 +0.00    -0.104 NA 
DOCKED: ATOM     21  C   UNL     1     139.714  75.989 222.363 -0.21 -0.05    +0.284 A  
DOCKED: BRANCH  21  22
DOCKED: ATOM     22  C   UNL     1     140.143  77.356 222.685 -0.23 -0.05    +0.199 A  
DOCKED: ATOM     23  N   UNL     1     139.226  78.271 223.098 -0.21 +0.03    -0.183 NA 
DOCKED: ATOM     24  N   UNL     1     141.453  77.716 222.570 -0.16 +0.17    -0.339 N  
DOCKED: ATOM     25  C   UNL     1     139.589  79.547 223.393 -0.23 -0.05    +0.309 A  
DOCKED: ATOM     26  C   UNL     1     141.855  78.981 222.868 -0.46 -0.05    +0.129 A  
DOCKED: ATOM     27  C   UNL     1     140.922  79.933 223.279 -0.36 -0.04    +0.206 A  
DOCKED: ATOM     28  H   UNL     1     142.166  77.020 222.260 -0.46 -0.17    +0.168 HD 
DOCKED: ATOM     29  O   UNL     1     138.716  80.378 223.763 -0.27 +0.03    -0.264 OA 
DOCKED: ATOM     30  F   UNL     1     141.312  81.201 223.569 -0.15 +0.03    -0.199 F  
DOCKED: ENDBRANCH  21  22
DOCKED: ENDBRANCH  15  17
DOCKED: ENDBRANCH  14  15
DOCKED: ENDBRANCH  13  14
DOCKED: ENDBRANCH   1  13
DOCKED: TORSDOF 10
DOCKED: TER
DOCKED: ENDMDL
________________________________________________________________________________


    FINAL DOCKED STATE:
    ________________________


Run:   5 / 20
Time taken for this run:   0.053s

DOCKED: MODEL        5
DOCKED: USER    Run = 5
DOCKED: USER
DOCKED: USER    Estimated Free Energy of Binding    =  -4.45 kcal/mol  [=(1)+(2)+(3)-(4)]
DOCKED: USER
DOCKED: USER    (1) Final Intermolecular Energy     =  -7.44 kcal/mol
DOCKED: USER        vdW + Hbond + desolv Energy     =  -7.63 kcal/mol
DOCKED: USER        Electrostatic Energy            =  +0.20 kcal/mol
DOCKED: USER        Moving Ligand-Fixed Receptor    =  -7.44 kcal/mol
DOCKED: USER        Moving Ligand-Moving Receptor   =  +0.00 kcal/mol
DOCKED: USER    (2) Final Total Internal Energy     =  -4.16 kcal/mol
DOCKED: USER    (3) Torsional Free Energy           =  +2.98 kcal/mol
DOCKED: USER    (4) Unbound System's Energy         =  -4.16 kcal/mol
DOCKED: USER
DOCKED: USER
DOCKED: REMARK SMILES O=C(CCCCCC(=O)c1nnc(-c2nc(=O)c(F)c[nH]2)o1)[N-]c1ccccc1
DOCKED: REMARK SMILES IDX 5 1 4 2 3 3 2 4 1 5 23 6 24 7 25 8 29 9 26 10 28 11 27 12
DOCKED: REMARK SMILES IDX 6 13 7 14 8 15 9 16 10 17 11 18 22 19 12 20 13 21 14 22
DOCKED: REMARK SMILES IDX 15 23 21 24 16 25 20 26 18 27 17 29 19 30
DOCKED: REMARK H PARENT 21 28
DOCKED: USER                              x       y       z     vdW  Elec       q    Type
DOCKED: USER                           _______ _______ _______ _____ _____    ______ ____
DOCKED: ROOT
DOCKED: ATOM      1  C   UNL     1     141.104  77.891 219.536 -0.21 -0.00    +0.001 C  
DOCKED: ENDROOT
DOCKED: BRANCH   1   2
DOCKED: ATOM      2  C   UNL     1     142.010  78.778 218.659 -0.28 -0.00    +0.006 C  
DOCKED: BRANCH   2   3
DOCKED: ATOM      3  C   UNL     1     141.433  80.188 218.429 -0.21 -0.03    +0.055 C  
DOCKED: BRANCH   3   4
DOCKED: ATOM      4  C   UNL     1     140.445  80.572 219.490 -0.14 -0.02    +0.054 C  
DOCKED: ATOM      5  O   UNL     1     139.281  80.092 219.455 -0.02 +0.09    -0.320 OA 
DOCKED: BRANCH   4   6
DOCKED: ATOM      6  N   UNL     1     140.820  81.510 220.508 +0.00 +0.17    -0.627 NA 
DOCKED: BRANCH   6   7
DOCKED: ATOM      7  C   UNL     1     141.614  81.231 221.668 -0.35 +0.03    -0.134 A  
DOCKED: ATOM      8  C   UNL     1     141.436  81.927 222.875 -0.35 +0.00    -0.016 A  
DOCKED: ATOM      9  C   UNL     1     142.555  80.196 221.604 -0.31 +0.01    -0.016 A  
DOCKED: ATOM     10  C   UNL     1     142.203  81.594 223.997 -0.59 +0.00    -0.001 A  
DOCKED: ATOM     11  C   UNL     1     143.344  79.889 222.718 -0.52 +0.00    -0.001 A  
DOCKED: ATOM     12  C   UNL     1     143.162  80.582 223.916 -0.63 +0.00    -0.000 A  
DOCKED: ENDBRANCH   6   7
DOCKED: ENDBRANCH   4   6
DOCKED: ENDBRANCH   3   4
DOCKED: ENDBRANCH   2   3
DOCKED: ENDBRANCH   1   2
DOCKED: BRANCH   1  13
DOCKED: ATOM     13  C   UNL     1     141.352  76.380 219.321 -0.18 -0.00    +0.008 C  
DOCKED: BRANCH  13  14
DOCKED: ATOM     14  C   UNL     1     141.822  75.665 220.600 -0.25 -0.04    +0.086 C  
DOCKED: BRANCH  14  15
DOCKED: ATOM     15  C   UNL     1     140.788  75.768 221.688 -0.26 -0.06    +0.219 C  
DOCKED: ATOM     16  O   UNL     1     140.064  74.770 221.947 -0.73 +0.03    -0.289 OA 
DOCKED: BRANCH  15  17
DOCKED: ATOM     17  C   UNL     1     140.577  77.018 222.431 -0.25 -0.08    +0.284 A  
DOCKED: ATOM     18  N   UNL     1     141.445  77.508 223.338 -0.30 +0.04    -0.104 NA 
DOCKED: ATOM     19  O   UNL     1     139.535  77.803 222.296 -0.13 +0.09    -0.411 OA 
DOCKED: ATOM     20  N   UNL     1     140.920  78.640 223.782 -0.35 +0.02    -0.104 NA 
DOCKED: ATOM     21  C   UNL     1     139.754  78.797 223.124 -0.21 -0.05    +0.284 A  
DOCKED: BRANCH  21  22
DOCKED: ATOM     22  C   UNL     1     138.849  79.938 223.316 -0.26 -0.03    +0.199 A  
DOCKED: ATOM     23  N   UNL     1     138.282  80.151 224.533 -0.25 +0.02    -0.183 NA 
DOCKED: ATOM     24  N   UNL     1     138.572  80.784 222.283 -0.07 +0.05    -0.339 N  
DOCKED: ATOM     25  C   UNL     1     137.432  81.191 224.741 -0.23 -0.03    +0.309 A  
DOCKED: ATOM     26  C   UNL     1     137.735  81.842 222.456 -0.13 -0.02    +0.129 A  
DOCKED: ATOM     27  C   UNL     1     137.136  82.063 223.696 -0.15 -0.02    +0.206 A  
DOCKED: ATOM     28  H   UNL     1     139.006  80.633 221.346 +0.05 -0.03    +0.168 HD 
DOCKED: ATOM     29  O   UNL     1     136.912  81.359 225.876 -0.32 +0.03    -0.264 OA 
DOCKED: ATOM     30  F   UNL     1     136.290  83.112 223.877 -0.03 +0.02    -0.199 F  
DOCKED: ENDBRANCH  21  22
DOCKED: ENDBRANCH  15  17
DOCKED: ENDBRANCH  14  15
DOCKED: ENDBRANCH  13  14
DOCKED: ENDBRANCH   1  13
DOCKED: TORSDOF 10
DOCKED: TER
DOCKED: ENDMDL
________________________________________________________________________________


    FINAL DOCKED STATE:
    ________________________


Run:   6 / 20
Time taken for this run:   0.053s

DOCKED: MODEL        6
DOCKED: USER    Run = 6
DOCKED: USER
DOCKED: USER    Estimated Free Energy of Binding    =  -6.56 kcal/mol  [=(1)+(2)+(3)-(4)]
DOCKED: USER
DOCKED: USER    (1) Final Intermolecular Energy     =  -9.54 kcal/mol
DOCKED: USER        vdW + Hbond + desolv Energy     =  -9.46 kcal/mol
DOCKED: USER        Electrostatic Energy            =  -0.08 kcal/mol
DOCKED: USER        Moving Ligand-Fixed Receptor    =  -9.54 kcal/mol
DOCKED: USER        Moving Ligand-Moving Receptor   =  +0.00 kcal/mol
DOCKED: USER    (2) Final Total Internal Energy     =  -1.67 kcal/mol
DOCKED: USER    (3) Torsional Free Energy           =  +2.98 kcal/mol
DOCKED: USER    (4) Unbound System's Energy         =  -1.67 kcal/mol
DOCKED: USER
DOCKED: USER
DOCKED: REMARK SMILES O=C(CCCCCC(=O)c1nnc(-c2nc(=O)c(F)c[nH]2)o1)[N-]c1ccccc1
DOCKED: REMARK SMILES IDX 5 1 4 2 3 3 2 4 1 5 23 6 24 7 25 8 29 9 26 10 28 11 27 12
DOCKED: REMARK SMILES IDX 6 13 7 14 8 15 9 16 10 17 11 18 22 19 12 20 13 21 14 22
DOCKED: REMARK SMILES IDX 15 23 21 24 16 25 20 26 18 27 17 29 19 30
DOCKED: REMARK H PARENT 21 28
DOCKED: USER                              x       y       z     vdW  Elec       q    Type
DOCKED: USER                           _______ _______ _______ _____ _____    ______ ____
DOCKED: ROOT
DOCKED: ATOM      1  C   UNL     1     136.676  70.749 224.190 -0.20 -0.00    +0.001 C  
DOCKED: ENDROOT
DOCKED: BRANCH   1   2
DOCKED: ATOM      2  C   UNL     1     137.128  69.288 224.383 -0.27 -0.00    +0.006 C  
DOCKED: BRANCH   2   3
DOCKED: ATOM      3  C   UNL     1     138.637  69.087 224.151 -0.31 -0.01    +0.055 C  
DOCKED: BRANCH   3   4
DOCKED: ATOM      4  C   UNL     1     139.257  68.212 225.200 -0.42 -0.00    +0.054 C  
DOCKED: ATOM      5  O   UNL     1     139.519  67.011 224.929 -0.74 -0.00    -0.320 OA 
DOCKED: BRANCH   4   6
DOCKED: ATOM      6  N   UNL     1     139.506  68.738 226.512 -0.01 +0.09    -0.627 NA 
DOCKED: BRANCH   6   7
DOCKED: ATOM      7  C   UNL     1     140.172  69.969 226.819 -0.45 +0.02    -0.134 A  
DOCKED: ATOM      8  C   UNL     1     140.982  70.630 225.879 -0.58 +0.00    -0.016 A  
DOCKED: ATOM      9  C   UNL     1     139.963  70.551 228.075 -0.63 +0.00    -0.016 A  
DOCKED: ATOM     10  C   UNL     1     141.580  71.852 226.204 -0.55 +0.00    -0.001 A  
DOCKED: ATOM     11  C   UNL     1     140.592  71.755 228.409 -0.71 +0.00    -0.001 A  
DOCKED: ATOM     12  C   UNL     1     141.393  72.409 227.471 -0.78 +0.00    -0.000 A  
DOCKED: ENDBRANCH   6   7
DOCKED: ENDBRANCH   4   6
DOCKED: ENDBRANCH   3   4
DOCKED: ENDBRANCH   2   3
DOCKED: ENDBRANCH   1   2
DOCKED: BRANCH   1  13
DOCKED: ATOM     13  C   UNL     1     137.660  71.573 223.326 -0.18 -0.00    +0.008 C  
DOCKED: BRANCH  13  14
DOCKED: ATOM     14  C   UNL     1     137.126  71.843 221.908 -0.10 -0.02    +0.086 C  
DOCKED: BRANCH  14  15
DOCKED: ATOM     15  C   UNL     1     137.716  73.105 221.340 -0.08 -0.05    +0.219 C  
DOCKED: ATOM     16  O   UNL     1     136.960  73.932 220.761 -0.03 +0.06    -0.289 OA 
DOCKED: BRANCH  15  17
DOCKED: ATOM     17  C   UNL     1     139.158  73.379 221.408 -0.12 -0.06    +0.284 A  
DOCKED: ATOM     18  N   UNL     1     139.695  74.399 222.106 -0.75 +0.01    -0.104 NA 
DOCKED: ATOM     19  O   UNL     1     140.085  72.667 220.814 -0.05 +0.07    -0.411 OA 
DOCKED: ATOM     20  N   UNL     1     141.006  74.316 221.937 -0.65 +0.00    -0.104 NA 
DOCKED: ATOM     21  C   UNL     1     141.216  73.244 221.146 -0.16 -0.04    +0.284 A  
DOCKED: BRANCH  21  22
DOCKED: ATOM     22  C   UNL     1     142.543  72.789 220.714 -0.18 -0.03    +0.199 A  
DOCKED: ATOM     23  N   UNL     1     143.619  73.607 220.866 -0.22 +0.04    -0.183 NA 
DOCKED: ATOM     24  N   UNL     1     142.706  71.554 220.161 -0.07 +0.04    -0.339 N  
DOCKED: ATOM     25  C   UNL     1     144.859  73.220 220.467 -0.30 -0.04    +0.309 A  
DOCKED: ATOM     26  C   UNL     1     143.934  71.128 219.760 -0.19 -0.00    +0.129 A  
DOCKED: ATOM     27  C   UNL     1     145.043  71.963 219.897 -0.23 +0.02    +0.206 A  
DOCKED: ATOM     28  H   UNL     1     141.889  70.915 220.046 +0.04 -0.02    +0.168 HD 
DOCKED: ATOM     29  O   UNL     1     145.837  74.003 220.609 -0.50 +0.04    -0.264 OA 
DOCKED: ATOM     30  F   UNL     1     146.272  71.550 219.490 -0.06 -0.21    -0.199 F  
DOCKED: ENDBRANCH  21  22
DOCKED: ENDBRANCH  15  17
DOCKED: ENDBRANCH  14  15
DOCKED: ENDBRANCH  13  14
DOCKED: ENDBRANCH   1  13
DOCKED: TORSDOF 10
DOCKED: TER
DOCKED: ENDMDL
________________________________________________________________________________


    FINAL DOCKED STATE:
    ________________________


Run:   7 / 20
Time taken for this run:   0.053s

DOCKED: MODEL        7
DOCKED: USER    Run = 7
DOCKED: USER
DOCKED: USER    Estimated Free Energy of Binding    =  -4.22 kcal/mol  [=(1)+(2)+(3)-(4)]
DOCKED: USER
DOCKED: USER    (1) Final Intermolecular Energy     =  -7.21 kcal/mol
DOCKED: USER        vdW + Hbond + desolv Energy     =  -7.51 kcal/mol
DOCKED: USER        Electrostatic Energy            =  +0.31 kcal/mol
DOCKED: USER        Moving Ligand-Fixed Receptor    =  -7.21 kcal/mol
DOCKED: USER        Moving Ligand-Moving Receptor   =  +0.00 kcal/mol
DOCKED: USER    (2) Final Total Internal Energy     =  -4.10 kcal/mol
DOCKED: USER    (3) Torsional Free Energy           =  +2.98 kcal/mol
DOCKED: USER    (4) Unbound System's Energy         =  -4.10 kcal/mol
DOCKED: USER
DOCKED: USER
DOCKED: REMARK SMILES O=C(CCCCCC(=O)c1nnc(-c2nc(=O)c(F)c[nH]2)o1)[N-]c1ccccc1
DOCKED: REMARK SMILES IDX 5 1 4 2 3 3 2 4 1 5 23 6 24 7 25 8 29 9 26 10 28 11 27 12
DOCKED: REMARK SMILES IDX 6 13 7 14 8 15 9 16 10 17 11 18 22 19 12 20 13 21 14 22
DOCKED: REMARK SMILES IDX 15 23 21 24 16 25 20 26 18 27 17 29 19 30
DOCKED: REMARK H PARENT 21 28
DOCKED: USER                              x       y       z     vdW  Elec       q    Type
DOCKED: USER                           _______ _______ _______ _____ _____    ______ ____
DOCKED: ROOT
DOCKED: ATOM      1  C   UNL     1     142.557  77.054 219.882 -0.31 -0.00    +0.001 C  
DOCKED: ENDROOT
DOCKED: BRANCH   1   2
DOCKED: ATOM      2  C   UNL     1     142.711  77.522 218.421 -0.32 -0.00    +0.006 C  
DOCKED: BRANCH   2   3
DOCKED: ATOM      3  C   UNL     1     142.138  78.931 218.177 -0.27 -0.04    +0.055 C  
DOCKED: BRANCH   3   4
DOCKED: ATOM      4  C   UNL     1     141.101  79.301 219.195 -0.19 -0.03    +0.054 C  
DOCKED: ATOM      5  O   UNL     1     140.031  78.641 219.258 -0.02 +0.11    -0.320 OA 
DOCKED: BRANCH   4   6
DOCKED: ATOM      6  N   UNL     1     141.318  80.426 220.059 +0.01 +0.25    -0.627 NA 
DOCKED: BRANCH   6   7
DOCKED: ATOM      7  C   UNL     1     141.675  80.374 221.445 -0.33 +0.05    -0.134 A  
DOCKED: ATOM      8  C   UNL     1     141.799  81.537 222.225 -0.45 +0.00    -0.016 A  
DOCKED: ATOM      9  C   UNL     1     141.849  79.122 222.048 -0.47 +0.01    -0.016 A  
DOCKED: ATOM     10  C   UNL     1     142.107  81.440 223.586 -0.58 +0.00    -0.001 A  
DOCKED: ATOM     11  C   UNL     1     142.191  79.031 223.401 -0.60 +0.00    -0.001 A  
DOCKED: ATOM     12  C   UNL     1     142.310  80.189 224.172 -0.52 +0.00    -0.000 A  
DOCKED: ENDBRANCH   6   7
DOCKED: ENDBRANCH   4   6
DOCKED: ENDBRANCH   3   4
DOCKED: ENDBRANCH   2   3
DOCKED: ENDBRANCH   1   2
DOCKED: BRANCH   1  13
DOCKED: ATOM     13  C   UNL     1     142.449  75.517 220.012 -0.31 -0.00    +0.008 C  
DOCKED: BRANCH  13  14
DOCKED: ATOM     14  C   UNL     1     140.995  75.014 219.954 -0.15 -0.02    +0.086 C  
DOCKED: BRANCH  14  15
DOCKED: ATOM     15  C   UNL     1     140.414  74.879 221.336 -0.22 -0.04    +0.219 C  
DOCKED: ATOM     16  O   UNL     1     140.652  73.837 222.005 -0.77 +0.01    -0.289 OA 
DOCKED: BRANCH  15  17
DOCKED: ATOM     17  C   UNL     1     139.544  75.915 221.909 -0.21 -0.06    +0.284 A  
DOCKED: ATOM     18  N   UNL     1     138.499  75.653 222.718 -0.25 +0.03    -0.104 NA 
DOCKED: ATOM     19  O   UNL     1     139.685  77.204 221.713 -0.10 +0.10    -0.411 OA 
DOCKED: ATOM     20  N   UNL     1     137.971  76.826 223.034 -0.23 +0.02    -0.104 NA 
DOCKED: ATOM     21  C   UNL     1     138.719  77.756 222.409 -0.17 -0.05    +0.284 A  
DOCKED: BRANCH  21  22
DOCKED: ATOM     22  C   UNL     1     138.478  79.202 222.500 -0.17 -0.03    +0.199 A  
DOCKED: ATOM     23  N   UNL     1     137.882  79.717 223.608 -0.20 +0.02    -0.183 NA 
DOCKED: ATOM     24  N   UNL     1     138.844  80.031 221.482 -0.03 +0.07    -0.339 N  
DOCKED: ATOM     25  C   UNL     1     137.634  81.049 223.719 -0.18 -0.03    +0.309 A  
DOCKED: ATOM     26  C   UNL     1     138.622  81.371 221.561 -0.12 -0.02    +0.129 A  
DOCKED: ATOM     27  C   UNL     1     137.999  81.910 222.686 -0.13 -0.02    +0.206 A  
DOCKED: ATOM     28  H   UNL     1     139.308  79.647 220.630 +0.05 -0.04    +0.168 HD 
DOCKED: ATOM     29  O   UNL     1     137.070  81.499 224.752 -0.23 +0.02    -0.264 OA 
DOCKED: ATOM     30  F   UNL     1     137.764  83.246 222.772 -0.03 +0.02    -0.199 F  
DOCKED: ENDBRANCH  21  22
DOCKED: ENDBRANCH  15  17
DOCKED: ENDBRANCH  14  15
DOCKED: ENDBRANCH  13  14
DOCKED: ENDBRANCH   1  13
DOCKED: TORSDOF 10
DOCKED: TER
DOCKED: ENDMDL
________________________________________________________________________________


    FINAL DOCKED STATE:
    ________________________


Run:   8 / 20
Time taken for this run:   0.053s

DOCKED: MODEL        8
DOCKED: USER    Run = 8
DOCKED: USER
DOCKED: USER    Estimated Free Energy of Binding    =  -7.50 kcal/mol  [=(1)+(2)+(3)-(4)]
DOCKED: USER
DOCKED: USER    (1) Final Intermolecular Energy     = -10.49 kcal/mol
DOCKED: USER        vdW + Hbond + desolv Energy     = -10.46 kcal/mol
DOCKED: USER        Electrostatic Energy            =  -0.03 kcal/mol
DOCKED: USER        Moving Ligand-Fixed Receptor    = -10.49 kcal/mol
DOCKED: USER        Moving Ligand-Moving Receptor   =  +0.00 kcal/mol
DOCKED: USER    (2) Final Total Internal Energy     =  -1.48 kcal/mol
DOCKED: USER    (3) Torsional Free Energy           =  +2.98 kcal/mol
DOCKED: USER    (4) Unbound System's Energy         =  -1.48 kcal/mol
DOCKED: USER
DOCKED: USER
DOCKED: REMARK SMILES O=C(CCCCCC(=O)c1nnc(-c2nc(=O)c(F)c[nH]2)o1)[N-]c1ccccc1
DOCKED: REMARK SMILES IDX 5 1 4 2 3 3 2 4 1 5 23 6 24 7 25 8 29 9 26 10 28 11 27 12
DOCKED: REMARK SMILES IDX 6 13 7 14 8 15 9 16 10 17 11 18 22 19 12 20 13 21 14 22
DOCKED: REMARK SMILES IDX 15 23 21 24 16 25 20 26 18 27 17 29 19 30
DOCKED: REMARK H PARENT 21 28
DOCKED: USER                              x       y       z     vdW  Elec       q    Type
DOCKED: USER                           _______ _______ _______ _____ _____    ______ ____
DOCKED: ROOT
DOCKED: ATOM      1  C   UNL     1     139.363  70.193 223.566 -0.30 -0.00    +0.001 C  
DOCKED: ENDROOT
DOCKED: BRANCH   1   2
DOCKED: ATOM      2  C   UNL     1     138.076  69.376 223.795 -0.28 -0.00    +0.006 C  
DOCKED: BRANCH   2   3
DOCKED: ATOM      3  C   UNL     1     137.957  68.827 225.229 -0.23 -0.00    +0.055 C  
DOCKED: BRANCH   3   4
DOCKED: ATOM      4  C   UNL     1     139.200  68.107 225.661 -0.49 -0.00    +0.054 C  
DOCKED: ATOM      5  O   UNL     1     139.575  67.085 225.028 -0.79 +0.00    -0.320 OA 
DOCKED: BRANCH   4   6
DOCKED: ATOM      6  N   UNL     1     139.925  68.563 226.812 -0.03 +0.11    -0.627 NA 
DOCKED: BRANCH   6   7
DOCKED: ATOM      7  C   UNL     1     140.331  69.910 227.079 -0.47 +0.02    -0.134 A  
DOCKED: ATOM      8  C   UNL     1     139.935  70.588 228.246 -0.61 +0.00    -0.016 A  
DOCKED: ATOM      9  C   UNL     1     141.190  70.545 226.174 -0.57 +0.00    -0.016 A  
DOCKED: ATOM     10  C   UNL     1     140.389  71.889 228.489 -0.68 +0.00    -0.001 A  
DOCKED: ATOM     11  C   UNL     1     141.613  71.859 226.405 -0.60 +0.00    -0.001 A  
DOCKED: ATOM     12  C   UNL     1     141.220  72.526 227.566 -0.72 +0.00    -0.000 A  
DOCKED: ENDBRANCH   6   7
DOCKED: ENDBRANCH   4   6
DOCKED: ENDBRANCH   3   4
DOCKED: ENDBRANCH   2   3
DOCKED: ENDBRANCH   1   2
DOCKED: BRANCH   1  13
DOCKED: ATOM     13  C   UNL     1     139.087  71.696 223.328 -0.21 -0.00    +0.008 C  
DOCKED: BRANCH  13  14
DOCKED: ATOM     14  C   UNL     1     139.222  72.101 221.850 -0.19 -0.02    +0.086 C  
DOCKED: BRANCH  14  15
DOCKED: ATOM     15  C   UNL     1     140.322  73.112 221.665 -0.21 -0.03    +0.219 C  
DOCKED: ATOM     16  O   UNL     1     141.515  72.715 221.577 -0.21 +0.02    -0.289 OA 
DOCKED: BRANCH  15  17
DOCKED: ATOM     17  C   UNL     1     140.041  74.554 221.623 -0.19 -0.04    +0.284 A  
DOCKED: ATOM     18  N   UNL     1     139.055  75.105 220.890 -0.12 +0.02    -0.104 NA 
DOCKED: ATOM     19  O   UNL     1     140.703  75.465 222.295 -0.43 +0.04    -0.411 OA 
DOCKED: ATOM     20  N   UNL     1     139.108  76.409 221.115 -0.13 +0.02    -0.104 NA 
DOCKED: ATOM     21  C   UNL     1     140.123  76.600 221.982 -0.24 -0.07    +0.284 A  
DOCKED: BRANCH  21  22
DOCKED: ATOM     22  C   UNL     1     140.522  77.913 222.503 -0.31 -0.06    +0.199 A  
DOCKED: ATOM     23  N   UNL     1     139.606  78.694 223.136 -0.24 +0.03    -0.183 NA 
DOCKED: ATOM     24  N   UNL     1     141.802  78.357 222.355 -0.17 +0.18    -0.339 N  
DOCKED: ATOM     25  C   UNL     1     139.940  79.919 223.620 -0.24 -0.05    +0.309 A  
DOCKED: ATOM     26  C   UNL     1     142.177  79.573 222.837 -0.50 -0.05    +0.129 A  
DOCKED: ATOM     27  C   UNL     1     141.244  80.389 223.475 -0.39 -0.04    +0.206 A  
DOCKED: ATOM     28  H   UNL     1     142.515  77.764 221.877 -0.44 -0.18    +0.168 HD 
DOCKED: ATOM     29  O   UNL     1     139.069  80.627 224.193 -0.30 +0.03    -0.264 OA 
DOCKED: ATOM     30  F   UNL     1     141.605  81.610 223.951 -0.16 +0.02    -0.199 F  
DOCKED: ENDBRANCH  21  22
DOCKED: ENDBRANCH  15  17
DOCKED: ENDBRANCH  14  15
DOCKED: ENDBRANCH  13  14
DOCKED: ENDBRANCH   1  13
DOCKED: TORSDOF 10
DOCKED: TER
DOCKED: ENDMDL
________________________________________________________________________________


    FINAL DOCKED STATE:
    ________________________


Run:   9 / 20
Time taken for this run:   0.053s

DOCKED: MODEL        9
DOCKED: USER    Run = 9
DOCKED: USER
DOCKED: USER    Estimated Free Energy of Binding    =  -7.31 kcal/mol  [=(1)+(2)+(3)-(4)]
DOCKED: USER
DOCKED: USER    (1) Final Intermolecular Energy     = -10.29 kcal/mol
DOCKED: USER        vdW + Hbond + desolv Energy     = -10.28 kcal/mol
DOCKED: USER        Electrostatic Energy            =  -0.02 kcal/mol
DOCKED: USER        Moving Ligand-Fixed Receptor    = -10.29 kcal/mol
DOCKED: USER        Moving Ligand-Moving Receptor   =  +0.00 kcal/mol
DOCKED: USER    (2) Final Total Internal Energy     =  -1.83 kcal/mol
DOCKED: USER    (3) Torsional Free Energy           =  +2.98 kcal/mol
DOCKED: USER    (4) Unbound System's Energy         =  -1.83 kcal/mol
DOCKED: USER
DOCKED: USER
DOCKED: REMARK SMILES O=C(CCCCCC(=O)c1nnc(-c2nc(=O)c(F)c[nH]2)o1)[N-]c1ccccc1
DOCKED: REMARK SMILES IDX 5 1 4 2 3 3 2 4 1 5 23 6 24 7 25 8 29 9 26 10 28 11 27 12
DOCKED: REMARK SMILES IDX 6 13 7 14 8 15 9 16 10 17 11 18 22 19 12 20 13 21 14 22
DOCKED: REMARK SMILES IDX 15 23 21 24 16 25 20 26 18 27 17 29 19 30
DOCKED: REMARK H PARENT 21 28
DOCKED: USER                              x       y       z     vdW  Elec       q    Type
DOCKED: USER                           _______ _______ _______ _____ _____    ______ ____
DOCKED: ROOT
DOCKED: ATOM      1  C   UNL     1     138.300  70.223 222.872 -0.21 -0.00    +0.001 C  
DOCKED: ENDROOT
DOCKED: BRANCH   1   2
DOCKED: ATOM      2  C   UNL     1     137.830  70.393 224.330 -0.26 -0.00    +0.006 C  
DOCKED: BRANCH   2   3
DOCKED: ATOM      3  C   UNL     1     137.577  69.051 225.043 -0.24 -0.00    +0.055 C  
DOCKED: BRANCH   3   4
DOCKED: ATOM      4  C   UNL     1     138.850  68.299 225.293 -0.37 -0.00    +0.054 C  
DOCKED: ATOM      5  O   UNL     1     139.200  67.391 224.494 -0.74 -0.00    -0.320 OA 
DOCKED: BRANCH   4   6
DOCKED: ATOM      6  N   UNL     1     139.634  68.590 226.459 -0.03 +0.09    -0.627 NA 
DOCKED: BRANCH   6   7
DOCKED: ATOM      7  C   UNL     1     140.193  69.862 226.808 -0.45 +0.02    -0.134 A  
DOCKED: ATOM      8  C   UNL     1     141.025  70.575 225.927 -0.57 +0.00    -0.016 A  
DOCKED: ATOM      9  C   UNL     1     139.853  70.430 228.042 -0.60 +0.00    -0.016 A  
DOCKED: ATOM     10  C   UNL     1     141.516  71.834 226.290 -0.62 +0.00    -0.001 A  
DOCKED: ATOM     11  C   UNL     1     140.374  71.674 228.415 -0.70 +0.00    -0.001 A  
DOCKED: ATOM     12  C   UNL     1     141.198  72.379 227.535 -0.79 +0.00    -0.000 A  
DOCKED: ENDBRANCH   6   7
DOCKED: ENDBRANCH   4   6
DOCKED: ENDBRANCH   3   4
DOCKED: ENDBRANCH   2   3
DOCKED: ENDBRANCH   1   2
DOCKED: BRANCH   1  13
DOCKED: ATOM     13  C   UNL     1     139.822  70.439 222.702 -0.18 -0.00    +0.008 C  
DOCKED: BRANCH  13  14
DOCKED: ATOM     14  C   UNL     1     140.235  71.915 222.844 -0.31 -0.01    +0.086 C  
DOCKED: BRANCH  14  15
DOCKED: ATOM     15  C   UNL     1     139.621  72.755 221.757 -0.18 -0.04    +0.219 C  
DOCKED: ATOM     16  O   UNL     1     139.396  72.236 220.630 -0.04 +0.05    -0.289 OA 
DOCKED: BRANCH  15  17
DOCKED: ATOM     17  C   UNL     1     139.312  74.177 221.965 -0.17 -0.06    +0.284 A  
DOCKED: ATOM     18  N   UNL     1     138.067  74.688 221.920 -0.18 +0.03    -0.104 NA 
DOCKED: ATOM     19  O   UNL     1     140.200  75.105 222.225 -0.58 +0.03    -0.411 OA 
DOCKED: ATOM     20  N   UNL     1     138.188  75.985 222.162 -0.22 +0.02    -0.104 NA 
DOCKED: ATOM     21  C   UNL     1     139.504  76.211 222.349 -0.23 -0.06    +0.284 A  
DOCKED: BRANCH  21  22
DOCKED: ATOM     22  C   UNL     1     140.076  77.529 222.652 -0.24 -0.05    +0.199 A  
DOCKED: ATOM     23  N   UNL     1     139.273  78.520 223.121 -0.22 +0.03    -0.183 NA 
DOCKED: ATOM     24  N   UNL     1     141.405  77.767 222.464 -0.18 +0.16    -0.339 N  
DOCKED: ATOM     25  C   UNL     1     139.769  79.755 223.400 -0.24 -0.05    +0.309 A  
DOCKED: ATOM     26  C   UNL     1     141.939  78.986 222.743 -0.45 -0.06    +0.129 A  
DOCKED: ATOM     27  C   UNL     1     141.124  80.016 223.211 -0.37 -0.05    +0.206 A  
DOCKED: ATOM     28  H   UNL     1     142.031  77.011 222.111 -0.48 -0.15    +0.168 HD 
DOCKED: ATOM     29  O   UNL     1     139.000  80.659 223.823 -0.28 +0.03    -0.264 OA 
DOCKED: ATOM     30  F   UNL     1     141.646  81.241 223.484 -0.16 +0.03    -0.199 F  
DOCKED: ENDBRANCH  21  22
DOCKED: ENDBRANCH  15  17
DOCKED: ENDBRANCH  14  15
DOCKED: ENDBRANCH  13  14
DOCKED: ENDBRANCH   1  13
DOCKED: TORSDOF 10
DOCKED: TER
DOCKED: ENDMDL
________________________________________________________________________________


    FINAL DOCKED STATE:
    ________________________


Run:   10 / 20
Time taken for this run:   0.053s

DOCKED: MODEL        10
DOCKED: USER    Run = 10
DOCKED: USER
DOCKED: USER    Estimated Free Energy of Binding    =  -4.23 kcal/mol  [=(1)+(2)+(3)-(4)]
DOCKED: USER
DOCKED: USER    (1) Final Intermolecular Energy     =  -7.22 kcal/mol
DOCKED: USER        vdW + Hbond + desolv Energy     =  -7.52 kcal/mol
DOCKED: USER        Electrostatic Energy            =  +0.30 kcal/mol
DOCKED: USER        Moving Ligand-Fixed Receptor    =  -7.22 kcal/mol
DOCKED: USER        Moving Ligand-Moving Receptor   =  +0.00 kcal/mol
DOCKED: USER    (2) Final Total Internal Energy     =  -4.24 kcal/mol
DOCKED: USER    (3) Torsional Free Energy           =  +2.98 kcal/mol
DOCKED: USER    (4) Unbound System's Energy         =  -4.24 kcal/mol
DOCKED: USER
DOCKED: USER
DOCKED: REMARK SMILES O=C(CCCCCC(=O)c1nnc(-c2nc(=O)c(F)c[nH]2)o1)[N-]c1ccccc1
DOCKED: REMARK SMILES IDX 5 1 4 2 3 3 2 4 1 5 23 6 24 7 25 8 29 9 26 10 28 11 27 12
DOCKED: REMARK SMILES IDX 6 13 7 14 8 15 9 16 10 17 11 18 22 19 12 20 13 21 14 22
DOCKED: REMARK SMILES IDX 15 23 21 24 16 25 20 26 18 27 17 29 19 30
DOCKED: REMARK H PARENT 21 28
DOCKED: USER                              x       y       z     vdW  Elec       q    Type
DOCKED: USER                           _______ _______ _______ _____ _____    ______ ____
DOCKED: ROOT
DOCKED: ATOM      1  C   UNL     1     143.015  76.756 219.669 -0.35 -0.00    +0.001 C  
DOCKED: ENDROOT
DOCKED: BRANCH   1   2
DOCKED: ATOM      2  C   UNL     1     142.573  77.320 218.304 -0.31 -0.00    +0.006 C  
DOCKED: BRANCH   2   3
DOCKED: ATOM      3  C   UNL     1     142.323  78.840 218.332 -0.28 -0.04    +0.055 C  
DOCKED: BRANCH   3   4
DOCKED: ATOM      4  C   UNL     1     141.215  79.211 219.273 -0.20 -0.03    +0.054 C  
DOCKED: ATOM      5  O   UNL     1     140.158  78.526 219.285 -0.03 +0.11    -0.320 OA 
DOCKED: BRANCH   4   6
DOCKED: ATOM      6  N   UNL     1     141.351  80.362 220.118 +0.01 +0.26    -0.627 NA 
DOCKED: BRANCH   6   7
DOCKED: ATOM      7  C   UNL     1     141.766  80.363 221.489 -0.34 +0.05    -0.134 A  
DOCKED: ATOM      8  C   UNL     1     141.815  81.545 222.249 -0.46 +0.00    -0.016 A  
DOCKED: ATOM      9  C   UNL     1     142.077  79.141 222.098 -0.48 +0.01    -0.016 A  
DOCKED: ATOM     10  C   UNL     1     142.185  81.496 223.598 -0.57 +0.00    -0.001 A  
DOCKED: ATOM     11  C   UNL     1     142.479  79.102 223.437 -0.50 +0.00    -0.001 A  
DOCKED: ATOM     12  C   UNL     1     142.525  80.277 224.188 -0.54 +0.00    -0.000 A  
DOCKED: ENDBRANCH   6   7
DOCKED: ENDBRANCH   4   6
DOCKED: ENDBRANCH   3   4
DOCKED: ENDBRANCH   2   3
DOCKED: ENDBRANCH   1   2
DOCKED: BRANCH   1  13
DOCKED: ATOM     13  C   UNL     1     142.607  75.278 219.869 -0.31 -0.00    +0.008 C  
DOCKED: BRANCH  13  14
DOCKED: ATOM     14  C   UNL     1     141.081  75.081 219.911 -0.15 -0.03    +0.086 C  
DOCKED: BRANCH  14  15
DOCKED: ATOM     15  C   UNL     1     140.589  74.974 221.329 -0.23 -0.04    +0.219 C  
DOCKED: ATOM     16  O   UNL     1     140.920  73.975 222.023 -0.68 -0.00    -0.289 OA 
DOCKED: BRANCH  15  17
DOCKED: ATOM     17  C   UNL     1     139.699  75.988 221.913 -0.22 -0.06    +0.284 A  
DOCKED: ATOM     18  N   UNL     1     138.662  75.698 222.723 -0.28 +0.03    -0.104 NA 
DOCKED: ATOM     19  O   UNL     1     139.811  77.280 221.725 -0.10 +0.11    -0.411 OA 
DOCKED: ATOM     20  N   UNL     1     138.111  76.857 223.050 -0.23 +0.02    -0.104 NA 
DOCKED: ATOM     21  C   UNL     1     138.837  77.807 222.429 -0.17 -0.05    +0.284 A  
DOCKED: BRANCH  21  22
DOCKED: ATOM     22  C   UNL     1     138.565  79.247 222.531 -0.18 -0.03    +0.199 A  
DOCKED: ATOM     23  N   UNL     1     138.012  79.750 223.666 -0.21 +0.02    -0.183 NA 
DOCKED: ATOM     24  N   UNL     1     138.861  80.083 221.495 -0.03 +0.07    -0.339 N  
DOCKED: ATOM     25  C   UNL     1     137.737  81.075 223.788 -0.18 -0.03    +0.309 A  
DOCKED: ATOM     26  C   UNL     1     138.611  81.417 221.585 -0.12 -0.02    +0.129 A  
DOCKED: ATOM     27  C   UNL     1     138.030  81.943 222.738 -0.13 -0.02    +0.206 A  
DOCKED: ATOM     28  H   UNL     1     139.291  79.709 220.621 +0.05 -0.04    +0.168 HD 
DOCKED: ATOM     29  O   UNL     1     137.214  81.513 224.847 -0.25 +0.02    -0.264 OA 
DOCKED: ATOM     30  F   UNL     1     137.767  83.272 222.835 -0.02 +0.02    -0.199 F  
DOCKED: ENDBRANCH  21  22
DOCKED: ENDBRANCH  15  17
DOCKED: ENDBRANCH  14  15
DOCKED: ENDBRANCH  13  14
DOCKED: ENDBRANCH   1  13
DOCKED: TORSDOF 10
DOCKED: TER
DOCKED: ENDMDL
________________________________________________________________________________


    FINAL DOCKED STATE:
    ________________________


Run:   11 / 20
Time taken for this run:   0.053s

DOCKED: MODEL        11
DOCKED: USER    Run = 11
DOCKED: USER
DOCKED: USER    Estimated Free Energy of Binding    =  -6.85 kcal/mol  [=(1)+(2)+(3)-(4)]
DOCKED: USER
DOCKED: USER    (1) Final Intermolecular Energy     =  -9.84 kcal/mol
DOCKED: USER        vdW + Hbond + desolv Energy     =  -8.77 kcal/mol
DOCKED: USER        Electrostatic Energy            =  -1.07 kcal/mol
DOCKED: USER        Moving Ligand-Fixed Receptor    =  -9.84 kcal/mol
DOCKED: USER        Moving Ligand-Moving Receptor   =  +0.00 kcal/mol
DOCKED: USER    (2) Final Total Internal Energy     =  -1.63 kcal/mol
DOCKED: USER    (3) Torsional Free Energy           =  +2.98 kcal/mol
DOCKED: USER    (4) Unbound System's Energy         =  -1.63 kcal/mol
DOCKED: USER
DOCKED: USER
DOCKED: REMARK SMILES O=C(CCCCCC(=O)c1nnc(-c2nc(=O)c(F)c[nH]2)o1)[N-]c1ccccc1
DOCKED: REMARK SMILES IDX 5 1 4 2 3 3 2 4 1 5 23 6 24 7 25 8 29 9 26 10 28 11 27 12
DOCKED: REMARK SMILES IDX 6 13 7 14 8 15 9 16 10 17 11 18 22 19 12 20 13 21 14 22
DOCKED: REMARK SMILES IDX 15 23 21 24 16 25 20 26 18 27 17 29 19 30
DOCKED: REMARK H PARENT 21 28
DOCKED: USER                              x       y       z     vdW  Elec       q    Type
DOCKED: USER                           _______ _______ _______ _____ _____    ______ ____
DOCKED: ROOT
DOCKED: ATOM      1  C   UNL     1     142.481  74.355 220.456 -0.30 -0.00    +0.001 C  
DOCKED: ENDROOT
DOCKED: BRANCH   1   2
DOCKED: ATOM      2  C   UNL     1     144.006  74.428 220.241 -0.43 -0.00    +0.006 C  
DOCKED: BRANCH   2   3
DOCKED: ATOM      3  C   UNL     1     144.462  73.766 218.928 -0.24 -0.01    +0.055 C  
DOCKED: BRANCH   3   4
DOCKED: ATOM      4  C   UNL     1     145.745  73.007 219.096 -0.28 +0.03    +0.054 C  
DOCKED: ATOM      5  O   UNL     1     146.671  73.502 219.790 -0.57 -0.16    -0.320 OA 
DOCKED: BRANCH   4   6
DOCKED: ATOM      6  N   UNL     1     145.920  71.746 218.434 -0.24 -0.74    -0.627 NA 
DOCKED: BRANCH   6   7
DOCKED: ATOM      7  C   UNL     1     145.465  70.471 218.903 -0.24 -0.06    -0.134 A  
DOCKED: ATOM      8  C   UNL     1     144.135  70.261 219.308 -0.22 -0.00    -0.016 A  
DOCKED: ATOM      9  C   UNL     1     146.361  69.396 218.904 -0.36 -0.01    -0.016 A  
DOCKED: ATOM     10  C   UNL     1     143.719  68.990 219.719 -0.26 +0.00    -0.001 A  
DOCKED: ATOM     11  C   UNL     1     145.950  68.134 219.349 -0.52 -0.00    -0.001 A  
DOCKED: ATOM     12  C   UNL     1     144.628  67.930 219.747 -0.40 -0.00    -0.000 A  
DOCKED: ENDBRANCH   6   7
DOCKED: ENDBRANCH   4   6
DOCKED: ENDBRANCH   3   4
DOCKED: ENDBRANCH   2   3
DOCKED: ENDBRANCH   1   2
DOCKED: BRANCH   1  13
DOCKED: ATOM     13  C   UNL     1     142.041  73.082 221.216 -0.19 -0.00    +0.008 C  
DOCKED: BRANCH  13  14
DOCKED: ATOM     14  C   UNL     1     140.686  72.536 220.732 -0.16 -0.01    +0.086 C  
DOCKED: BRANCH  14  15
DOCKED: ATOM     15  C   UNL     1     139.574  72.953 221.656 -0.18 -0.04    +0.219 C  
DOCKED: ATOM     16  O   UNL     1     138.847  72.068 222.185 -0.13 +0.07    -0.289 OA 
DOCKED: BRANCH  15  17
DOCKED: ATOM     17  C   UNL     1     139.290  74.369 221.928 -0.17 -0.06    +0.284 A  
DOCKED: ATOM     18  N   UNL     1     138.049  74.895 221.945 -0.19 +0.03    -0.104 NA 
DOCKED: ATOM     19  O   UNL     1     140.197  75.278 222.192 -0.54 +0.04    -0.411 OA 
DOCKED: ATOM     20  N   UNL     1     138.194  76.180 222.230 -0.23 +0.02    -0.104 NA 
DOCKED: ATOM     21  C   UNL     1     139.518  76.385 222.381 -0.22 -0.06    +0.284 A  
DOCKED: BRANCH  21  22
DOCKED: ATOM     22  C   UNL     1     140.116  77.684 222.712 -0.25 -0.05    +0.199 A  
DOCKED: ATOM     23  N   UNL     1     139.337  78.674 223.224 -0.23 +0.03    -0.183 NA 
DOCKED: ATOM     24  N   UNL     1     141.446  77.907 222.509 -0.20 +0.16    -0.339 N  
DOCKED: ATOM     25  C   UNL     1     139.857  79.892 223.530 -0.25 -0.05    +0.309 A  
DOCKED: ATOM     26  C   UNL     1     142.004  79.109 222.815 -0.47 -0.05    +0.129 A  
DOCKED: ATOM     27  C   UNL     1     141.213  80.138 223.327 -0.38 -0.04    +0.206 A  
DOCKED: ATOM     28  H   UNL     1     142.054  77.153 222.123 -0.46 -0.15    +0.168 HD 
DOCKED: ATOM     29  O   UNL     1     139.110  80.795 223.992 -0.29 +0.03    -0.264 OA 
DOCKED: ATOM     30  F   UNL     1     141.759  81.345 223.626 -0.17 +0.03    -0.199 F  
DOCKED: ENDBRANCH  21  22
DOCKED: ENDBRANCH  15  17
DOCKED: ENDBRANCH  14  15
DOCKED: ENDBRANCH  13  14
DOCKED: ENDBRANCH   1  13
DOCKED: TORSDOF 10
DOCKED: TER
DOCKED: ENDMDL
________________________________________________________________________________


    FINAL DOCKED STATE:
    ________________________


Run:   12 / 20
Time taken for this run:   0.053s

DOCKED: MODEL        12
DOCKED: USER    Run = 12
DOCKED: USER
DOCKED: USER    Estimated Free Energy of Binding    =  -7.34 kcal/mol  [=(1)+(2)+(3)-(4)]
DOCKED: USER
DOCKED: USER    (1) Final Intermolecular Energy     = -10.33 kcal/mol
DOCKED: USER        vdW + Hbond + desolv Energy     = -10.30 kcal/mol
DOCKED: USER        Electrostatic Energy            =  -0.03 kcal/mol
DOCKED: USER        Moving Ligand-Fixed Receptor    = -10.33 kcal/mol
DOCKED: USER        Moving Ligand-Moving Receptor   =  +0.00 kcal/mol
DOCKED: USER    (2) Final Total Internal Energy     =  -1.54 kcal/mol
DOCKED: USER    (3) Torsional Free Energy           =  +2.98 kcal/mol
DOCKED: USER    (4) Unbound System's Energy         =  -1.54 kcal/mol
DOCKED: USER
DOCKED: USER
DOCKED: REMARK SMILES O=C(CCCCCC(=O)c1nnc(-c2nc(=O)c(F)c[nH]2)o1)[N-]c1ccccc1
DOCKED: REMARK SMILES IDX 5 1 4 2 3 3 2 4 1 5 23 6 24 7 25 8 29 9 26 10 28 11 27 12
DOCKED: REMARK SMILES IDX 6 13 7 14 8 15 9 16 10 17 11 18 22 19 12 20 13 21 14 22
DOCKED: REMARK SMILES IDX 15 23 21 24 16 25 20 26 18 27 17 29 19 30
DOCKED: REMARK H PARENT 21 28
DOCKED: USER                              x       y       z     vdW  Elec       q    Type
DOCKED: USER                           _______ _______ _______ _____ _____    ______ ____
DOCKED: ROOT
DOCKED: ATOM      1  C   UNL     1     136.405  71.170 224.196 -0.17 -0.00    +0.001 C  
DOCKED: ENDROOT
DOCKED: BRANCH   1   2
DOCKED: ATOM      2  C   UNL     1     136.937  69.817 224.710 -0.23 -0.00    +0.006 C  
DOCKED: BRANCH   2   3
DOCKED: ATOM      3  C   UNL     1     137.992  69.191 223.779 -0.26 -0.01    +0.055 C  
DOCKED: BRANCH   3   4
DOCKED: ATOM      4  C   UNL     1     139.199  68.718 224.533 -0.34 -0.01    +0.054 C  
DOCKED: ATOM      5  O   UNL     1     139.233  67.538 224.970 -0.82 -0.01    -0.320 OA 
DOCKED: BRANCH   4   6
DOCKED: ATOM      6  N   UNL     1     140.283  69.624 224.785 +0.09 +0.12    -0.627 NA 
DOCKED: BRANCH   6   7
DOCKED: ATOM      7  C   UNL     1     140.487  70.392 225.977 -0.45 +0.02    -0.134 A  
DOCKED: ATOM      8  C   UNL     1     141.294  71.542 225.990 -0.62 +0.00    -0.016 A  
DOCKED: ATOM      9  C   UNL     1     139.816  70.010 227.145 -0.53 +0.00    -0.016 A  
DOCKED: ATOM     10  C   UNL     1     141.431  72.289 227.166 -0.80 +0.00    -0.001 A  
DOCKED: ATOM     11  C   UNL     1     139.984  70.739 228.327 -0.63 +0.00    -0.001 A  
DOCKED: ATOM     12  C   UNL     1     140.784  71.883 228.335 -0.78 +0.00    -0.000 A  
DOCKED: ENDBRANCH   6   7
DOCKED: ENDBRANCH   4   6
DOCKED: ENDBRANCH   3   4
DOCKED: ENDBRANCH   2   3
DOCKED: ENDBRANCH   1   2
DOCKED: BRANCH   1  13
DOCKED: ATOM     13  C   UNL     1     137.308  71.798 223.110 -0.17 -0.00    +0.008 C  
DOCKED: BRANCH  13  14
DOCKED: ATOM     14  C   UNL     1     136.594  72.894 222.299 -0.12 -0.02    +0.086 C  
DOCKED: BRANCH  14  15
DOCKED: ATOM     15  C   UNL     1     137.532  73.537 221.315 -0.08 -0.05    +0.219 C  
DOCKED: ATOM     16  O   UNL     1     137.383  73.312 220.083 -0.01 +0.06    -0.289 OA 
DOCKED: BRANCH  15  17
DOCKED: ATOM     17  C   UNL     1     138.644  74.391 221.757 -0.13 -0.07    +0.284 A  
DOCKED: ATOM     18  N   UNL     1     139.900  73.945 221.951 -0.78 +0.01    -0.104 NA 
DOCKED: ATOM     19  O   UNL     1     138.549  75.675 222.004 -0.16 +0.10    -0.411 OA 
DOCKED: ATOM     20  N   UNL     1     140.612  74.995 222.333 -0.52 -0.00    -0.104 NA 
DOCKED: ATOM     21  C   UNL     1     139.761  76.040 222.352 -0.22 -0.05    +0.284 A  
DOCKED: BRANCH  21  22
DOCKED: ATOM     22  C   UNL     1     140.148  77.408 222.719 -0.23 -0.05    +0.199 A  
DOCKED: ATOM     23  N   UNL     1     139.196  78.295 223.114 -0.21 +0.03    -0.183 NA 
DOCKED: ATOM     24  N   UNL     1     141.453  77.797 222.664 -0.19 +0.16    -0.339 N  
DOCKED: ATOM     25  C   UNL     1     139.520  79.572 223.449 -0.23 -0.05    +0.309 A  
DOCKED: ATOM     26  C   UNL     1     141.817  79.063 223.003 -0.48 -0.05    +0.129 A  
DOCKED: ATOM     27  C   UNL     1     140.848  79.987 223.396 -0.36 -0.04    +0.206 A  
DOCKED: ATOM     28  H   UNL     1     142.193  77.122 222.369 -0.44 -0.17    +0.168 HD 
DOCKED: ATOM     29  O   UNL     1     138.616  80.377 223.800 -0.27 +0.03    -0.264 OA 
DOCKED: ATOM     30  F   UNL     1     141.199  81.257 223.727 -0.15 +0.02    -0.199 F  
DOCKED: ENDBRANCH  21  22
DOCKED: ENDBRANCH  15  17
DOCKED: ENDBRANCH  14  15
DOCKED: ENDBRANCH  13  14
DOCKED: ENDBRANCH   1  13
DOCKED: TORSDOF 10
DOCKED: TER
DOCKED: ENDMDL
________________________________________________________________________________


    FINAL DOCKED STATE:
    ________________________


Run:   13 / 20
Time taken for this run:   0.053s

DOCKED: MODEL        13
DOCKED: USER    Run = 13
DOCKED: USER
DOCKED: USER    Estimated Free Energy of Binding    =  -7.21 kcal/mol  [=(1)+(2)+(3)-(4)]
DOCKED: USER
DOCKED: USER    (1) Final Intermolecular Energy     = -10.19 kcal/mol
DOCKED: USER        vdW + Hbond + desolv Energy     = -10.23 kcal/mol
DOCKED: USER        Electrostatic Energy            =  +0.04 kcal/mol
DOCKED: USER        Moving Ligand-Fixed Receptor    = -10.19 kcal/mol
DOCKED: USER        Moving Ligand-Moving Receptor   =  +0.00 kcal/mol
DOCKED: USER    (2) Final Total Internal Energy     =  -1.58 kcal/mol
DOCKED: USER    (3) Torsional Free Energy           =  +2.98 kcal/mol
DOCKED: USER    (4) Unbound System's Energy         =  -1.58 kcal/mol
DOCKED: USER
DOCKED: USER
DOCKED: REMARK SMILES O=C(CCCCCC(=O)c1nnc(-c2nc(=O)c(F)c[nH]2)o1)[N-]c1ccccc1
DOCKED: REMARK SMILES IDX 5 1 4 2 3 3 2 4 1 5 23 6 24 7 25 8 29 9 26 10 28 11 27 12
DOCKED: REMARK SMILES IDX 6 13 7 14 8 15 9 16 10 17 11 18 22 19 12 20 13 21 14 22
DOCKED: REMARK SMILES IDX 15 23 21 24 16 25 20 26 18 27 17 29 19 30
DOCKED: REMARK H PARENT 21 28
DOCKED: USER                              x       y       z     vdW  Elec       q    Type
DOCKED: USER                           _______ _______ _______ _____ _____    ______ ____
DOCKED: ROOT
DOCKED: ATOM      1  C   UNL     1     136.526  70.516 224.289 -0.20 -0.00    +0.001 C  
DOCKED: ENDROOT
DOCKED: BRANCH   1   2
DOCKED: ATOM      2  C   UNL     1     137.710  70.077 223.404 -0.22 -0.00    +0.006 C  
DOCKED: BRANCH   2   3
DOCKED: ATOM      3  C   UNL     1     138.107  68.604 223.616 -0.24 -0.01    +0.055 C  
DOCKED: BRANCH   3   4
DOCKED: ATOM      4  C   UNL     1     139.187  68.455 224.646 -0.35 -0.01    +0.054 C  
DOCKED: ATOM      5  O   UNL     1     139.225  67.417 225.358 -0.89 -0.02    -0.320 OA 
DOCKED: BRANCH   4   6
DOCKED: ATOM      6  N   UNL     1     140.140  69.510 224.839 +0.08 +0.12    -0.627 NA 
DOCKED: BRANCH   6   7
DOCKED: ATOM      7  C   UNL     1     140.303  70.299 226.023 -0.44 +0.02    -0.134 A  
DOCKED: ATOM      8  C   UNL     1     139.706  69.939 227.243 -0.53 +0.00    -0.016 A  
DOCKED: ATOM      9  C   UNL     1     141.126  71.431 225.969 -0.64 +0.00    -0.016 A  
DOCKED: ATOM     10  C   UNL     1     139.925  70.715 228.387 -0.58 +0.00    -0.001 A  
DOCKED: ATOM     11  C   UNL     1     141.314  72.223 227.107 -0.79 +0.00    -0.001 A  
DOCKED: ATOM     12  C   UNL     1     140.721  71.859 228.317 -0.78 +0.00    -0.000 A  
DOCKED: ENDBRANCH   6   7
DOCKED: ENDBRANCH   4   6
DOCKED: ENDBRANCH   3   4
DOCKED: ENDBRANCH   2   3
DOCKED: ENDBRANCH   1   2
DOCKED: BRANCH   1  13
DOCKED: ATOM     13  C   UNL     1     135.501  69.382 224.529 -0.23 -0.00    +0.008 C  
DOCKED: BRANCH  13  14
DOCKED: ATOM     14  C   UNL     1     134.056  69.899 224.644 -0.15 -0.01    +0.086 C  
DOCKED: BRANCH  14  15
DOCKED: ATOM     15  C   UNL     1     133.876  70.727 225.887 -0.21 -0.01    +0.219 C  
DOCKED: ATOM     16  O   UNL     1     133.560  70.158 226.967 -0.45 -0.00    -0.289 OA 
DOCKED: BRANCH  15  17
DOCKED: ATOM     17  C   UNL     1     134.021  72.190 225.864 -0.17 -0.01    +0.284 A  
DOCKED: ATOM     18  N   UNL     1     133.565  73.004 226.836 -0.78 -0.00    -0.104 NA 
DOCKED: ATOM     19  O   UNL     1     134.613  72.869 224.912 -0.11 +0.03    -0.411 OA 
DOCKED: ATOM     20  N   UNL     1     133.887  74.236 226.471 -0.86 -0.01    -0.104 NA 
DOCKED: ATOM     21  C   UNL     1     134.531  74.122 225.292 -0.20 -0.01    +0.284 A  
DOCKED: BRANCH  21  22
DOCKED: ATOM     22  C   UNL     1     135.068  75.260 224.536 -0.25 -0.03    +0.199 A  
DOCKED: ATOM     23  N   UNL     1     134.444  76.466 224.600 -0.15 +0.02    -0.183 NA 
DOCKED: ATOM     24  N   UNL     1     136.187  75.118 223.770 -0.12 +0.10    -0.339 N  
DOCKED: ATOM     25  C   UNL     1     134.909  77.537 223.903 -0.07 -0.04    +0.309 A  
DOCKED: ATOM     26  C   UNL     1     136.689  76.170 223.068 -0.23 -0.03    +0.129 A  
DOCKED: ATOM     27  C   UNL     1     136.049  77.408 223.113 -0.12 -0.03    +0.206 A  
DOCKED: ATOM     28  H   UNL     1     136.678  74.199 223.720 -0.44 -0.09    +0.168 HD 
DOCKED: ATOM     29  O   UNL     1     134.304  78.641 223.971 -0.09 +0.03    -0.264 OA 
DOCKED: ATOM     30  F   UNL     1     136.536  78.463 222.409 -0.03 +0.03    -0.199 F  
DOCKED: ENDBRANCH  21  22
DOCKED: ENDBRANCH  15  17
DOCKED: ENDBRANCH  14  15
DOCKED: ENDBRANCH  13  14
DOCKED: ENDBRANCH   1  13
DOCKED: TORSDOF 10
DOCKED: TER
DOCKED: ENDMDL
________________________________________________________________________________


    FINAL DOCKED STATE:
    ________________________


Run:   14 / 20
Time taken for this run:   0.053s

DOCKED: MODEL        14
DOCKED: USER    Run = 14
DOCKED: USER
DOCKED: USER    Estimated Free Energy of Binding    =  -6.47 kcal/mol  [=(1)+(2)+(3)-(4)]
DOCKED: USER
DOCKED: USER    (1) Final Intermolecular Energy     =  -9.46 kcal/mol
DOCKED: USER        vdW + Hbond + desolv Energy     =  -9.54 kcal/mol
DOCKED: USER        Electrostatic Energy            =  +0.08 kcal/mol
DOCKED: USER        Moving Ligand-Fixed Receptor    =  -9.46 kcal/mol
DOCKED: USER        Moving Ligand-Moving Receptor   =  +0.00 kcal/mol
DOCKED: USER    (2) Final Total Internal Energy     =  -1.51 kcal/mol
DOCKED: USER    (3) Torsional Free Energy           =  +2.98 kcal/mol
DOCKED: USER    (4) Unbound System's Energy         =  -1.51 kcal/mol
DOCKED: USER
DOCKED: USER
DOCKED: REMARK SMILES O=C(CCCCCC(=O)c1nnc(-c2nc(=O)c(F)c[nH]2)o1)[N-]c1ccccc1
DOCKED: REMARK SMILES IDX 5 1 4 2 3 3 2 4 1 5 23 6 24 7 25 8 29 9 26 10 28 11 27 12
DOCKED: REMARK SMILES IDX 6 13 7 14 8 15 9 16 10 17 11 18 22 19 12 20 13 21 14 22
DOCKED: REMARK SMILES IDX 15 23 21 24 16 25 20 26 18 27 17 29 19 30
DOCKED: REMARK H PARENT 21 28
DOCKED: USER                              x       y       z     vdW  Elec       q    Type
DOCKED: USER                           _______ _______ _______ _____ _____    ______ ____
DOCKED: ROOT
DOCKED: ATOM      1  C   UNL     1     136.545  70.639 222.513 -0.11 -0.00    +0.001 C  
DOCKED: ENDROOT
DOCKED: BRANCH   1   2
DOCKED: ATOM      2  C   UNL     1     138.031  70.442 222.875 -0.20 -0.00    +0.006 C  
DOCKED: BRANCH   2   3
DOCKED: ATOM      3  C   UNL     1     138.555  71.499 223.865 -0.13 -0.02    +0.055 C  
DOCKED: BRANCH   3   4
DOCKED: ATOM      4  C   UNL     1     140.000  71.825 223.628 -0.32 -0.01    +0.054 C  
DOCKED: ATOM      5  O   UNL     1     140.308  72.655 222.732 -0.56 +0.03    -0.320 OA 
DOCKED: BRANCH   4   6
DOCKED: ATOM      6  N   UNL     1     141.016  71.162 224.392 +0.04 +0.06    -0.627 NA 
DOCKED: BRANCH   6   7
DOCKED: ATOM      7  C   UNL     1     140.873  70.638 225.718 -0.47 +0.02    -0.134 A  
DOCKED: ATOM      8  C   UNL     1     140.665  69.269 225.958 -0.50 +0.00    -0.016 A  
DOCKED: ATOM      9  C   UNL     1     141.001  71.514 226.804 -0.72 +0.00    -0.016 A  
DOCKED: ATOM     10  C   UNL     1     140.574  68.792 227.270 -0.64 +0.00    -0.001 A  
DOCKED: ATOM     11  C   UNL     1     140.874  71.038 228.113 -0.71 +0.00    -0.001 A  
DOCKED: ATOM     12  C   UNL     1     140.669  69.677 228.346 -0.60 +0.00    -0.000 A  
DOCKED: ENDBRANCH   6   7
DOCKED: ENDBRANCH   4   6
DOCKED: ENDBRANCH   3   4
DOCKED: ENDBRANCH   2   3
DOCKED: ENDBRANCH   1   2
DOCKED: BRANCH   1  13
DOCKED: ATOM     13  C   UNL     1     135.831  69.313 222.164 -0.08 -0.00    +0.008 C  
DOCKED: BRANCH  13  14
DOCKED: ATOM     14  C   UNL     1     135.244  68.608 223.399 -0.09 -0.00    +0.086 C  
DOCKED: BRANCH  14  15
DOCKED: ATOM     15  C   UNL     1     135.743  69.240 224.670 -0.14 -0.01    +0.219 C  
DOCKED: ATOM     16  O   UNL     1     136.934  69.039 225.032 -0.18 +0.01    -0.289 OA 
DOCKED: BRANCH  15  17
DOCKED: ATOM     17  C   UNL     1     134.864  70.056 225.520 -0.15 -0.02    +0.284 A  
DOCKED: ATOM     18  N   UNL     1     134.056  69.546 226.470 -0.70 -0.00    -0.104 NA 
DOCKED: ATOM     19  O   UNL     1     134.769  71.362 225.463 -0.07 +0.02    -0.411 OA 
DOCKED: ATOM     20  N   UNL     1     133.435  70.577 227.023 -0.39 +0.00    -0.104 NA 
DOCKED: ATOM     21  C   UNL     1     133.895  71.676 226.390 -0.23 -0.01    +0.284 A  
DOCKED: BRANCH  21  22
DOCKED: ATOM     22  C   UNL     1     133.465  73.044 226.703 -0.23 +0.00    +0.199 A  
DOCKED: ATOM     23  N   UNL     1     134.077  74.098 226.101 -0.73 -0.01    -0.183 NA 
DOCKED: ATOM     24  N   UNL     1     132.458  73.267 227.596 -0.18 +0.05    -0.339 N  
DOCKED: ATOM     25  C   UNL     1     133.711  75.377 226.378 -0.23 +0.00    +0.309 A  
DOCKED: ATOM     26  C   UNL     1     132.056  74.533 227.889 -0.33 -0.01    +0.129 A  
DOCKED: ATOM     27  C   UNL     1     132.686  75.623 227.289 -0.26 +0.00    +0.206 A  
DOCKED: ATOM     28  H   UNL     1     131.977  72.465 228.059 -0.30 -0.06    +0.168 HD 
DOCKED: ATOM     29  O   UNL     1     134.303  76.336 225.814 -0.24 +0.02    -0.264 OA 
DOCKED: ATOM     30  F   UNL     1     132.299  76.892 227.582 -0.09 -0.00    -0.199 F  
DOCKED: ENDBRANCH  21  22
DOCKED: ENDBRANCH  15  17
DOCKED: ENDBRANCH  14  15
DOCKED: ENDBRANCH  13  14
DOCKED: ENDBRANCH   1  13
DOCKED: TORSDOF 10
DOCKED: TER
DOCKED: ENDMDL
________________________________________________________________________________


    FINAL DOCKED STATE:
    ________________________


Run:   15 / 20
Time taken for this run:   0.053s

DOCKED: MODEL        15
DOCKED: USER    Run = 15
DOCKED: USER
DOCKED: USER    Estimated Free Energy of Binding    =  -7.43 kcal/mol  [=(1)+(2)+(3)-(4)]
DOCKED: USER
DOCKED: USER    (1) Final Intermolecular Energy     = -10.41 kcal/mol
DOCKED: USER        vdW + Hbond + desolv Energy     = -10.45 kcal/mol
DOCKED: USER        Electrostatic Energy            =  +0.03 kcal/mol
DOCKED: USER        Moving Ligand-Fixed Receptor    = -10.41 kcal/mol
DOCKED: USER        Moving Ligand-Moving Receptor   =  +0.00 kcal/mol
DOCKED: USER    (2) Final Total Internal Energy     =  -1.58 kcal/mol
DOCKED: USER    (3) Torsional Free Energy           =  +2.98 kcal/mol
DOCKED: USER    (4) Unbound System's Energy         =  -1.58 kcal/mol
DOCKED: USER
DOCKED: USER
DOCKED: REMARK SMILES O=C(CCCCCC(=O)c1nnc(-c2nc(=O)c(F)c[nH]2)o1)[N-]c1ccccc1
DOCKED: REMARK SMILES IDX 5 1 4 2 3 3 2 4 1 5 23 6 24 7 25 8 29 9 26 10 28 11 27 12
DOCKED: REMARK SMILES IDX 6 13 7 14 8 15 9 16 10 17 11 18 22 19 12 20 13 21 14 22
DOCKED: REMARK SMILES IDX 15 23 21 24 16 25 20 26 18 27 17 29 19 30
DOCKED: REMARK H PARENT 21 28
DOCKED: USER                              x       y       z     vdW  Elec       q    Type
DOCKED: USER                           _______ _______ _______ _____ _____    ______ ____
DOCKED: ROOT
DOCKED: ATOM      1  C   UNL     1     138.054  70.527 223.092 -0.22 -0.00    +0.001 C  
DOCKED: ENDROOT
DOCKED: BRANCH   1   2
DOCKED: ATOM      2  C   UNL     1     138.051  69.051 223.538 -0.27 -0.00    +0.006 C  
DOCKED: BRANCH   2   3
DOCKED: ATOM      3  C   UNL     1     138.015  68.883 225.068 -0.30 -0.00    +0.055 C  
DOCKED: BRANCH   3   4
DOCKED: ATOM      4  C   UNL     1     139.207  68.128 225.580 -0.48 -0.00    +0.054 C  
DOCKED: ATOM      5  O   UNL     1     139.556  67.062 225.009 -0.78 +0.00    -0.320 OA 
DOCKED: BRANCH   4   6
DOCKED: ATOM      6  N   UNL     1     139.911  68.605 226.736 -0.03 +0.11    -0.627 NA 
DOCKED: BRANCH   6   7
DOCKED: ATOM      7  C   UNL     1     140.431  69.926 226.927 -0.46 +0.02    -0.134 A  
DOCKED: ATOM      8  C   UNL     1     141.119  70.607 225.908 -0.58 +0.00    -0.016 A  
DOCKED: ATOM      9  C   UNL     1     140.195  70.571 228.147 -0.63 +0.00    -0.016 A  
DOCKED: ATOM     10  C   UNL     1     141.573  71.913 226.121 -0.49 +0.00    -0.001 A  
DOCKED: ATOM     11  C   UNL     1     140.681  71.864 228.368 -0.76 +0.00    -0.001 A  
DOCKED: ATOM     12  C   UNL     1     141.362  72.538 227.352 -0.74 +0.00    -0.000 A  
DOCKED: ENDBRANCH   6   7
DOCKED: ENDBRANCH   4   6
DOCKED: ENDBRANCH   3   4
DOCKED: ENDBRANCH   2   3
DOCKED: ENDBRANCH   1   2
DOCKED: BRANCH   1  13
DOCKED: ATOM     13  C   UNL     1     139.047  70.805 221.940 -0.17 -0.00    +0.008 C  
DOCKED: BRANCH  13  14
DOCKED: ATOM     14  C   UNL     1     140.029  71.946 222.262 -0.27 -0.01    +0.086 C  
DOCKED: BRANCH  14  15
DOCKED: ATOM     15  C   UNL     1     139.407  73.288 221.989 -0.18 -0.04    +0.219 C  
DOCKED: ATOM     16  O   UNL     1     138.155  73.374 221.869 -0.12 +0.08    -0.289 OA 
DOCKED: BRANCH  15  17
DOCKED: ATOM     17  C   UNL     1     140.227  74.496 221.821 -0.15 -0.03    +0.284 A  
DOCKED: ATOM     18  N   UNL     1     141.336  74.550 221.059 -0.28 +0.02    -0.104 NA 
DOCKED: ATOM     19  O   UNL     1     139.975  75.656 222.379 -0.46 +0.06    -0.411 OA 
DOCKED: ATOM     20  N   UNL     1     141.789  75.791 221.148 -0.20 +0.05    -0.104 NA 
DOCKED: ATOM     21  C   UNL     1     140.934  76.446 221.958 -0.23 -0.10    +0.284 A  
DOCKED: BRANCH  21  22
DOCKED: ATOM     22  C   UNL     1     141.068  77.863 222.320 -0.33 -0.08    +0.199 A  
DOCKED: ATOM     23  N   UNL     1     140.080  78.475 223.026 -0.26 +0.04    -0.183 NA 
DOCKED: ATOM     24  N   UNL     1     142.174  78.570 221.952 -0.12 +0.22    -0.339 N  
DOCKED: ATOM     25  C   UNL     1     140.167  79.787 223.366 -0.25 -0.05    +0.309 A  
DOCKED: ATOM     26  C   UNL     1     142.302  79.883 222.285 -0.45 -0.05    +0.129 A  
DOCKED: ATOM     27  C   UNL     1     141.289  80.526 222.996 -0.37 -0.04    +0.206 A  
DOCKED: ATOM     28  H   UNL     1     142.941  78.109 221.417 -0.47 -0.20    +0.168 HD 
DOCKED: ATOM     29  O   UNL     1     139.232  80.333 224.010 -0.30 +0.03    -0.264 OA 
DOCKED: ATOM     30  F   UNL     1     141.403  81.839 223.325 -0.12 +0.02    -0.199 F  
DOCKED: ENDBRANCH  21  22
DOCKED: ENDBRANCH  15  17
DOCKED: ENDBRANCH  14  15
DOCKED: ENDBRANCH  13  14
DOCKED: ENDBRANCH   1  13
DOCKED: TORSDOF 10
DOCKED: TER
DOCKED: ENDMDL
________________________________________________________________________________


    FINAL DOCKED STATE:
    ________________________


Run:   16 / 20
Time taken for this run:   0.053s

DOCKED: MODEL        16
DOCKED: USER    Run = 16
DOCKED: USER
DOCKED: USER    Estimated Free Energy of Binding    =  -4.40 kcal/mol  [=(1)+(2)+(3)-(4)]
DOCKED: USER
DOCKED: USER    (1) Final Intermolecular Energy     =  -7.38 kcal/mol
DOCKED: USER        vdW + Hbond + desolv Energy     =  -7.61 kcal/mol
DOCKED: USER        Electrostatic Energy            =  +0.23 kcal/mol
DOCKED: USER        Moving Ligand-Fixed Receptor    =  -7.38 kcal/mol
DOCKED: USER        Moving Ligand-Moving Receptor   =  +0.00 kcal/mol
DOCKED: USER    (2) Final Total Internal Energy     =  -4.10 kcal/mol
DOCKED: USER    (3) Torsional Free Energy           =  +2.98 kcal/mol
DOCKED: USER    (4) Unbound System's Energy         =  -4.10 kcal/mol
DOCKED: USER
DOCKED: USER
DOCKED: REMARK SMILES O=C(CCCCCC(=O)c1nnc(-c2nc(=O)c(F)c[nH]2)o1)[N-]c1ccccc1
DOCKED: REMARK SMILES IDX 5 1 4 2 3 3 2 4 1 5 23 6 24 7 25 8 29 9 26 10 28 11 27 12
DOCKED: REMARK SMILES IDX 6 13 7 14 8 15 9 16 10 17 11 18 22 19 12 20 13 21 14 22
DOCKED: REMARK SMILES IDX 15 23 21 24 16 25 20 26 18 27 17 29 19 30
DOCKED: REMARK H PARENT 21 28
DOCKED: USER                              x       y       z     vdW  Elec       q    Type
DOCKED: USER                           _______ _______ _______ _____ _____    ______ ____
DOCKED: ROOT
DOCKED: ATOM      1  C   UNL     1     142.197  77.869 219.569 -0.28 -0.00    +0.001 C  
DOCKED: ENDROOT
DOCKED: BRANCH   1   2
DOCKED: ATOM      2  C   UNL     1     142.138  79.134 218.689 -0.30 -0.00    +0.006 C  
DOCKED: BRANCH   2   3
DOCKED: ATOM      3  C   UNL     1     140.704  79.647 218.464 -0.12 -0.02    +0.055 C  
DOCKED: BRANCH   3   4
DOCKED: ATOM      4  C   UNL     1     139.753  79.134 219.506 -0.08 -0.02    +0.054 C  
DOCKED: ATOM      5  O   UNL     1     139.041  78.128 219.251 -0.01 +0.09    -0.320 OA 
DOCKED: BRANCH   4   6
DOCKED: ATOM      6  N   UNL     1     139.635  79.817 220.762 +0.07 +0.16    -0.627 NA 
DOCKED: BRANCH   6   7
DOCKED: ATOM      7  C   UNL     1     140.589  79.798 221.830 -0.24 +0.04    -0.134 A  
DOCKED: ATOM      8  C   UNL     1     140.840  78.637 222.581 -0.43 +0.01    -0.016 A  
DOCKED: ATOM      9  C   UNL     1     141.328  80.958 222.091 -0.42 +0.00    -0.016 A  
DOCKED: ATOM     10  C   UNL     1     141.812  78.649 223.588 -0.61 +0.00    -0.001 A  
DOCKED: ATOM     11  C   UNL     1     142.274  80.976 223.122 -0.61 +0.00    -0.001 A  
DOCKED: ATOM     12  C   UNL     1     142.522  79.820 223.863 -0.58 +0.00    -0.000 A  
DOCKED: ENDBRANCH   6   7
DOCKED: ENDBRANCH   4   6
DOCKED: ENDBRANCH   3   4
DOCKED: ENDBRANCH   2   3
DOCKED: ENDBRANCH   1   2
DOCKED: BRANCH   1  13
DOCKED: ATOM     13  C   UNL     1     143.158  76.793 219.014 -0.35 -0.01    +0.008 C  
DOCKED: BRANCH  13  14
DOCKED: ATOM     14  C   UNL     1     142.528  75.390 218.979 -0.21 -0.04    +0.086 C  
DOCKED: BRANCH  14  15
DOCKED: ATOM     15  C   UNL     1     142.431  74.807 220.363 -0.21 -0.08    +0.219 C  
DOCKED: ATOM     16  O   UNL     1     143.447  74.263 220.875 -0.23 +0.10    -0.289 OA 
DOCKED: BRANCH  15  17
DOCKED: ATOM     17  C   UNL     1     141.170  74.822 221.118 -0.19 -0.07    +0.284 A  
DOCKED: ATOM     18  N   UNL     1     140.732  73.791 221.867 -0.71 +0.00    -0.104 NA 
DOCKED: ATOM     19  O   UNL     1     140.334  75.831 221.160 -0.13 +0.11    -0.411 OA 
DOCKED: ATOM     20  N   UNL     1     139.580  74.176 222.393 -0.75 +0.01    -0.104 NA 
DOCKED: ATOM     21  C   UNL     1     139.364  75.430 221.947 -0.20 -0.06    +0.284 A  
DOCKED: BRANCH  21  22
DOCKED: ATOM     22  C   UNL     1     138.189  76.237 222.301 -0.22 -0.04    +0.199 A  
DOCKED: ATOM     23  N   UNL     1     137.195  75.688 223.048 -0.17 +0.06    -0.183 NA 
DOCKED: ATOM     24  N   UNL     1     138.086  77.531 221.883 -0.08 +0.07    -0.339 N  
DOCKED: ATOM     25  C   UNL     1     136.089  76.404 223.383 -0.13 -0.06    +0.309 A  
DOCKED: ATOM     26  C   UNL     1     136.999  78.282 222.209 -0.13 -0.02    +0.129 A  
DOCKED: ATOM     27  C   UNL     1     135.966  77.726 222.963 -0.12 -0.03    +0.206 A  
DOCKED: ATOM     28  H   UNL     1     138.846  77.964 221.315 +0.05 -0.04    +0.168 HD 
DOCKED: ATOM     29  O   UNL     1     135.177  75.867 224.068 -0.19 +0.04    -0.264 OA 
DOCKED: ATOM     30  F   UNL     1     134.872  78.465 223.285 -0.03 +0.03    -0.199 F  
DOCKED: ENDBRANCH  21  22
DOCKED: ENDBRANCH  15  17
DOCKED: ENDBRANCH  14  15
DOCKED: ENDBRANCH  13  14
DOCKED: ENDBRANCH   1  13
DOCKED: TORSDOF 10
DOCKED: TER
DOCKED: ENDMDL
________________________________________________________________________________


    FINAL DOCKED STATE:
    ________________________


Run:   17 / 20
Time taken for this run:   0.053s

DOCKED: MODEL        17
DOCKED: USER    Run = 17
DOCKED: USER
DOCKED: USER    Estimated Free Energy of Binding    =  -6.81 kcal/mol  [=(1)+(2)+(3)-(4)]
DOCKED: USER
DOCKED: USER    (1) Final Intermolecular Energy     =  -9.79 kcal/mol
DOCKED: USER        vdW + Hbond + desolv Energy     =  -9.86 kcal/mol
DOCKED: USER        Electrostatic Energy            =  +0.06 kcal/mol
DOCKED: USER        Moving Ligand-Fixed Receptor    =  -9.79 kcal/mol
DOCKED: USER        Moving Ligand-Moving Receptor   =  +0.00 kcal/mol
DOCKED: USER    (2) Final Total Internal Energy     =  -1.47 kcal/mol
DOCKED: USER    (3) Torsional Free Energy           =  +2.98 kcal/mol
DOCKED: USER    (4) Unbound System's Energy         =  -1.47 kcal/mol
DOCKED: USER
DOCKED: USER
DOCKED: REMARK SMILES O=C(CCCCCC(=O)c1nnc(-c2nc(=O)c(F)c[nH]2)o1)[N-]c1ccccc1
DOCKED: REMARK SMILES IDX 5 1 4 2 3 3 2 4 1 5 23 6 24 7 25 8 29 9 26 10 28 11 27 12
DOCKED: REMARK SMILES IDX 6 13 7 14 8 15 9 16 10 17 11 18 22 19 12 20 13 21 14 22
DOCKED: REMARK SMILES IDX 15 23 21 24 16 25 20 26 18 27 17 29 19 30
DOCKED: REMARK H PARENT 21 28
DOCKED: USER                              x       y       z     vdW  Elec       q    Type
DOCKED: USER                           _______ _______ _______ _____ _____    ______ ____
DOCKED: ROOT
DOCKED: ATOM      1  C   UNL     1     139.053  70.186 221.676 -0.15 -0.00    +0.001 C  
DOCKED: ENDROOT
DOCKED: BRANCH   1   2
DOCKED: ATOM      2  C   UNL     1     138.773  68.678 221.827 -0.17 -0.00    +0.006 C  
DOCKED: BRANCH   2   3
DOCKED: ATOM      3  C   UNL     1     138.110  68.319 223.170 -0.22 -0.01    +0.055 C  
DOCKED: BRANCH   3   4
DOCKED: ATOM      4  C   UNL     1     139.031  68.549 224.332 -0.31 -0.01    +0.054 C  
DOCKED: ATOM      5  O   UNL     1     139.202  67.631 225.177 -0.84 -0.00    -0.320 OA 
DOCKED: BRANCH   4   6
DOCKED: ATOM      6  N   UNL     1     139.674  69.821 224.492 +0.04 +0.11    -0.627 NA 
DOCKED: BRANCH   6   7
DOCKED: ATOM      7  C   UNL     1     140.082  70.415 225.730 -0.42 +0.02    -0.134 A  
DOCKED: ATOM      8  C   UNL     1     139.701  69.878 226.972 -0.51 +0.00    -0.016 A  
DOCKED: ATOM      9  C   UNL     1     140.928  71.530 225.694 -0.60 +0.00    -0.016 A  
DOCKED: ATOM     10  C   UNL     1     140.156  70.464 228.158 -0.63 +0.00    -0.001 A  
DOCKED: ATOM     11  C   UNL     1     141.353  72.133 226.883 -0.75 +0.00    -0.001 A  
DOCKED: ATOM     12  C   UNL     1     140.974  71.595 228.114 -0.80 +0.00    -0.000 A  
DOCKED: ENDBRANCH   6   7
DOCKED: ENDBRANCH   4   6
DOCKED: ENDBRANCH   3   4
DOCKED: ENDBRANCH   2   3
DOCKED: ENDBRANCH   1   2
DOCKED: BRANCH   1  13
DOCKED: ATOM     13  C   UNL     1     138.407  70.794 220.410 -0.05 -0.00    +0.008 C  
DOCKED: BRANCH  13  14
DOCKED: ATOM     14  C   UNL     1     137.813  72.193 220.656 -0.05 -0.02    +0.086 C  
DOCKED: BRANCH  14  15
DOCKED: ATOM     15  C   UNL     1     138.278  72.753 221.973 -0.12 -0.06    +0.219 C  
DOCKED: ATOM     16  O   UNL     1     137.809  72.282 223.044 -0.08 +0.11    -0.289 OA 
DOCKED: BRANCH  15  17
DOCKED: ATOM     17  C   UNL     1     139.238  73.864 222.039 -0.12 -0.06    +0.284 A  
DOCKED: ATOM     18  N   UNL     1     140.563  73.723 221.844 -0.69 +0.01    -0.104 NA 
DOCKED: ATOM     19  O   UNL     1     138.922  75.113 222.285 -0.31 +0.10    -0.411 OA 
DOCKED: ATOM     20  N   UNL     1     141.089  74.932 221.974 -0.57 +0.01    -0.104 NA 
DOCKED: ATOM     21  C   UNL     1     140.061  75.762 222.239 -0.17 -0.05    +0.284 A  
DOCKED: BRANCH  21  22
DOCKED: ATOM     22  C   UNL     1     140.207  77.208 222.449 -0.28 -0.05    +0.199 A  
DOCKED: ATOM     23  N   UNL     1     139.160  77.928 222.934 -0.19 +0.03    -0.183 NA 
DOCKED: ATOM     24  N   UNL     1     141.383  77.835 222.161 -0.18 +0.17    -0.339 N  
DOCKED: ATOM     25  C   UNL     1     139.258  79.270 223.129 -0.20 -0.05    +0.309 A  
DOCKED: ATOM     26  C   UNL     1     141.523  79.175 222.355 -0.39 -0.05    +0.129 A  
DOCKED: ATOM     27  C   UNL     1     140.452  79.927 222.837 -0.28 -0.04    +0.206 A  
DOCKED: ATOM     28  H   UNL     1     142.195  77.292 221.796 -0.46 -0.16    +0.168 HD 
DOCKED: ATOM     29  O   UNL     1     138.269  79.914 223.568 -0.23 +0.03    -0.264 OA 
DOCKED: ATOM     30  F   UNL     1     140.577  81.266 223.024 -0.11 +0.03    -0.199 F  
DOCKED: ENDBRANCH  21  22
DOCKED: ENDBRANCH  15  17
DOCKED: ENDBRANCH  14  15
DOCKED: ENDBRANCH  13  14
DOCKED: ENDBRANCH   1  13
DOCKED: TORSDOF 10
DOCKED: TER
DOCKED: ENDMDL
________________________________________________________________________________


    FINAL DOCKED STATE:
    ________________________


Run:   18 / 20
Time taken for this run:   0.053s

DOCKED: MODEL        18
DOCKED: USER    Run = 18
DOCKED: USER
DOCKED: USER    Estimated Free Energy of Binding    =  -6.66 kcal/mol  [=(1)+(2)+(3)-(4)]
DOCKED: USER
DOCKED: USER    (1) Final Intermolecular Energy     =  -9.65 kcal/mol
DOCKED: USER        vdW + Hbond + desolv Energy     =  -9.77 kcal/mol
DOCKED: USER        Electrostatic Energy            =  +0.12 kcal/mol
DOCKED: USER        Moving Ligand-Fixed Receptor    =  -9.65 kcal/mol
DOCKED: USER        Moving Ligand-Moving Receptor   =  +0.00 kcal/mol
DOCKED: USER    (2) Final Total Internal Energy     =  -1.62 kcal/mol
DOCKED: USER    (3) Torsional Free Energy           =  +2.98 kcal/mol
DOCKED: USER    (4) Unbound System's Energy         =  -1.62 kcal/mol
DOCKED: USER
DOCKED: USER
DOCKED: REMARK SMILES O=C(CCCCCC(=O)c1nnc(-c2nc(=O)c(F)c[nH]2)o1)[N-]c1ccccc1
DOCKED: REMARK SMILES IDX 5 1 4 2 3 3 2 4 1 5 23 6 24 7 25 8 29 9 26 10 28 11 27 12
DOCKED: REMARK SMILES IDX 6 13 7 14 8 15 9 16 10 17 11 18 22 19 12 20 13 21 14 22
DOCKED: REMARK SMILES IDX 15 23 21 24 16 25 20 26 18 27 17 29 19 30
DOCKED: REMARK H PARENT 21 28
DOCKED: USER                              x       y       z     vdW  Elec       q    Type
DOCKED: USER                           _______ _______ _______ _____ _____    ______ ____
DOCKED: ROOT
DOCKED: ATOM      1  C   UNL     1     136.616  70.757 223.582 -0.20 -0.00    +0.001 C  
DOCKED: ENDROOT
DOCKED: BRANCH   1   2
DOCKED: ATOM      2  C   UNL     1     137.805  69.964 223.003 -0.20 -0.00    +0.006 C  
DOCKED: BRANCH   2   3
DOCKED: ATOM      3  C   UNL     1     137.975  68.576 223.647 -0.22 -0.00    +0.055 C  
DOCKED: BRANCH   3   4
DOCKED: ATOM      4  C   UNL     1     139.106  68.547 224.633 -0.35 -0.01    +0.054 C  
DOCKED: ATOM      5  O   UNL     1     139.250  67.544 225.380 -0.86 -0.00    -0.320 OA 
DOCKED: BRANCH   4   6
DOCKED: ATOM      6  N   UNL     1     139.985  69.676 224.744 +0.05 +0.11    -0.627 NA 
DOCKED: BRANCH   6   7
DOCKED: ATOM      7  C   UNL     1     140.279  70.406 225.940 -0.44 +0.02    -0.134 A  
DOCKED: ATOM      8  C   UNL     1     141.084  71.559 225.928 -0.63 +0.00    -0.016 A  
DOCKED: ATOM      9  C   UNL     1     139.701  69.986 227.144 -0.51 +0.00    -0.016 A  
DOCKED: ATOM     10  C   UNL     1     141.312  72.268 227.112 -0.79 +0.00    -0.001 A  
DOCKED: ATOM     11  C   UNL     1     139.960  70.678 228.332 -0.63 +0.00    -0.001 A  
DOCKED: ATOM     12  C   UNL     1     140.757  71.823 228.314 -0.78 +0.00    -0.000 A  
DOCKED: ENDBRANCH   6   7
DOCKED: ENDBRANCH   4   6
DOCKED: ENDBRANCH   3   4
DOCKED: ENDBRANCH   2   3
DOCKED: ENDBRANCH   1   2
DOCKED: BRANCH   1  13
DOCKED: ATOM     13  C   UNL     1     135.498  69.844 224.137 -0.19 -0.00    +0.008 C  
DOCKED: BRANCH  13  14
DOCKED: ATOM     14  C   UNL     1     135.408  69.878 225.673 -0.08 -0.00    +0.086 C  
DOCKED: BRANCH  14  15
DOCKED: ATOM     15  C   UNL     1     134.158  70.584 226.125 -0.23 -0.01    +0.219 C  
DOCKED: ATOM     16  O   UNL     1     133.156  69.902 226.472 -0.54 -0.00    -0.289 OA 
DOCKED: BRANCH  15  17
DOCKED: ATOM     17  C   UNL     1     134.065  72.051 226.136 -0.18 -0.01    +0.284 A  
DOCKED: ATOM     18  N   UNL     1     133.439  72.755 227.099 -0.67 +0.00    -0.104 NA 
DOCKED: ATOM     19  O   UNL     1     134.581  72.841 225.226 -0.14 +0.02    -0.411 OA 
DOCKED: ATOM     20  N   UNL     1     133.573  74.031 226.773 -0.89 -0.02    -0.104 NA 
DOCKED: ATOM     21  C   UNL     1     134.280  74.054 225.625 -0.21 +0.00    +0.284 A  
DOCKED: BRANCH  21  22
DOCKED: ATOM     22  C   UNL     1     134.658  75.283 224.917 -0.26 -0.02    +0.199 A  
DOCKED: ATOM     23  N   UNL     1     135.742  75.283 224.096 -0.24 +0.04    -0.183 NA 
DOCKED: ATOM     24  N   UNL     1     133.933  76.427 225.079 -0.10 +0.03    -0.339 N  
DOCKED: ATOM     25  C   UNL     1     136.125  76.407 223.436 -0.13 -0.06    +0.309 A  
DOCKED: ATOM     26  C   UNL     1     134.279  77.568 224.425 -0.13 -0.01    +0.129 A  
DOCKED: ATOM     27  C   UNL     1     135.397  77.584 223.591 -0.09 -0.03    +0.206 A  
DOCKED: ATOM     28  H   UNL     1     133.095  76.437 225.701 +0.06 -0.01    +0.168 HD 
DOCKED: ATOM     29  O   UNL     1     137.141  76.381 222.690 -0.19 +0.06    -0.264 OA 
DOCKED: ATOM     30  F   UNL     1     135.758  78.722 222.941 -0.04 +0.03    -0.199 F  
DOCKED: ENDBRANCH  21  22
DOCKED: ENDBRANCH  15  17
DOCKED: ENDBRANCH  14  15
DOCKED: ENDBRANCH  13  14
DOCKED: ENDBRANCH   1  13
DOCKED: TORSDOF 10
DOCKED: TER
DOCKED: ENDMDL
________________________________________________________________________________


    FINAL DOCKED STATE:
    ________________________


Run:   19 / 20
Time taken for this run:   0.053s

DOCKED: MODEL        19
DOCKED: USER    Run = 19
DOCKED: USER
DOCKED: USER    Estimated Free Energy of Binding    =  -6.84 kcal/mol  [=(1)+(2)+(3)-(4)]
DOCKED: USER
DOCKED: USER    (1) Final Intermolecular Energy     =  -9.82 kcal/mol
DOCKED: USER        vdW + Hbond + desolv Energy     =  -9.70 kcal/mol
DOCKED: USER        Electrostatic Energy            =  -0.12 kcal/mol
DOCKED: USER        Moving Ligand-Fixed Receptor    =  -9.82 kcal/mol
DOCKED: USER        Moving Ligand-Moving Receptor   =  +0.00 kcal/mol
DOCKED: USER    (2) Final Total Internal Energy     =  -1.47 kcal/mol
DOCKED: USER    (3) Torsional Free Energy           =  +2.98 kcal/mol
DOCKED: USER    (4) Unbound System's Energy         =  -1.47 kcal/mol
DOCKED: USER
DOCKED: USER
DOCKED: REMARK SMILES O=C(CCCCCC(=O)c1nnc(-c2nc(=O)c(F)c[nH]2)o1)[N-]c1ccccc1
DOCKED: REMARK SMILES IDX 5 1 4 2 3 3 2 4 1 5 23 6 24 7 25 8 29 9 26 10 28 11 27 12
DOCKED: REMARK SMILES IDX 6 13 7 14 8 15 9 16 10 17 11 18 22 19 12 20 13 21 14 22
DOCKED: REMARK SMILES IDX 15 23 21 24 16 25 20 26 18 27 17 29 19 30
DOCKED: REMARK H PARENT 21 28
DOCKED: USER                              x       y       z     vdW  Elec       q    Type
DOCKED: USER                           _______ _______ _______ _____ _____    ______ ____
DOCKED: ROOT
DOCKED: ATOM      1  C   UNL     1     138.474  70.246 221.339 -0.11 -0.00    +0.001 C  
DOCKED: ENDROOT
DOCKED: BRANCH   1   2
DOCKED: ATOM      2  C   UNL     1     139.244  69.043 221.919 -0.16 -0.00    +0.006 C  
DOCKED: BRANCH   2   3
DOCKED: ATOM      3  C   UNL     1     138.355  68.104 222.756 -0.24 -0.01    +0.055 C  
DOCKED: BRANCH   3   4
DOCKED: ATOM      4  C   UNL     1     138.149  68.619 224.151 -0.23 -0.00    +0.054 C  
DOCKED: ATOM      5  O   UNL     1     137.348  69.570 224.348 -0.14 +0.03    -0.320 OA 
DOCKED: BRANCH   4   6
DOCKED: ATOM      6  N   UNL     1     138.895  68.052 225.238 -0.40 -0.00    -0.627 NA 
DOCKED: BRANCH   6   7
DOCKED: ATOM      7  C   UNL     1     139.614  68.777 226.241 -0.44 +0.02    -0.134 A  
DOCKED: ATOM      8  C   UNL     1     140.039  68.171 227.436 -0.65 +0.00    -0.016 A  
DOCKED: ATOM      9  C   UNL     1     139.948  70.115 225.994 -0.49 +0.00    -0.016 A  
DOCKED: ATOM     10  C   UNL     1     140.777  68.903 228.371 -0.64 +0.00    -0.001 A  
DOCKED: ATOM     11  C   UNL     1     140.657  70.854 226.948 -0.66 +0.00    -0.001 A  
DOCKED: ATOM     12  C   UNL     1     141.078  70.246 228.131 -0.60 +0.00    -0.000 A  
DOCKED: ENDBRANCH   6   7
DOCKED: ENDBRANCH   4   6
DOCKED: ENDBRANCH   3   4
DOCKED: ENDBRANCH   2   3
DOCKED: ENDBRANCH   1   2
DOCKED: BRANCH   1  13
DOCKED: ATOM     13  C   UNL     1     138.946  71.599 221.919 -0.18 -0.00    +0.008 C  
DOCKED: BRANCH  13  14
DOCKED: ATOM     14  C   UNL     1     137.779  72.503 222.351 -0.12 -0.03    +0.086 C  
DOCKED: BRANCH  14  15
DOCKED: ATOM     15  C   UNL     1     137.875  73.857 221.702 -0.11 -0.06    +0.219 C  
DOCKED: ATOM     16  O   UNL     1     136.972  74.223 220.902 -0.04 +0.06    -0.289 OA 
DOCKED: BRANCH  15  17
DOCKED: ATOM     17  C   UNL     1     139.017  74.749 221.949 -0.17 -0.07    +0.284 A  
DOCKED: ATOM     18  N   UNL     1     140.303  74.346 221.921 -0.79 +0.01    -0.104 NA 
DOCKED: ATOM     19  O   UNL     1     138.924  76.030 222.214 -0.19 +0.09    -0.411 OA 
DOCKED: ATOM     20  N   UNL     1     141.035  75.419 222.179 -0.42 +0.02    -0.104 NA 
DOCKED: ATOM     21  C   UNL     1     140.165  76.435 222.349 -0.25 -0.06    +0.284 A  
DOCKED: BRANCH  21  22
DOCKED: ATOM     22  C   UNL     1     140.564  77.816 222.649 -0.31 -0.06    +0.199 A  
DOCKED: ATOM     23  N   UNL     1     139.682  78.657 223.253 -0.23 +0.03    -0.183 NA 
DOCKED: ATOM     24  N   UNL     1     141.810  78.264 222.324 -0.15 +0.19    -0.339 N  
DOCKED: ATOM     25  C   UNL     1     140.016  79.944 223.533 -0.25 -0.05    +0.309 A  
DOCKED: ATOM     26  C   UNL     1     142.184  79.542 222.600 -0.48 -0.05    +0.129 A  
DOCKED: ATOM     27  C   UNL     1     141.284  80.418 223.206 -0.38 -0.04    +0.206 A  
DOCKED: ATOM     28  H   UNL     1     142.497  77.625 221.866 -0.43 -0.19    +0.168 HD 
DOCKED: ATOM     29  O   UNL     1     139.175  80.705 224.083 -0.29 +0.03    -0.264 OA 
DOCKED: ATOM     30  F   UNL     1     141.644  81.700 223.477 -0.16 +0.02    -0.199 F  
DOCKED: ENDBRANCH  21  22
DOCKED: ENDBRANCH  15  17
DOCKED: ENDBRANCH  14  15
DOCKED: ENDBRANCH  13  14
DOCKED: ENDBRANCH   1  13
DOCKED: TORSDOF 10
DOCKED: TER
DOCKED: ENDMDL
________________________________________________________________________________


    FINAL DOCKED STATE:
    ________________________


Run:   20 / 20
Time taken for this run:   0.053s

DOCKED: MODEL        20
DOCKED: USER    Run = 20
DOCKED: USER
DOCKED: USER    Estimated Free Energy of Binding    =  -6.97 kcal/mol  [=(1)+(2)+(3)-(4)]
DOCKED: USER
DOCKED: USER    (1) Final Intermolecular Energy     =  -9.95 kcal/mol
DOCKED: USER        vdW + Hbond + desolv Energy     =  -9.96 kcal/mol
DOCKED: USER        Electrostatic Energy            =  +0.01 kcal/mol
DOCKED: USER        Moving Ligand-Fixed Receptor    =  -9.95 kcal/mol
DOCKED: USER        Moving Ligand-Moving Receptor   =  +0.00 kcal/mol
DOCKED: USER    (2) Final Total Internal Energy     =  -1.69 kcal/mol
DOCKED: USER    (3) Torsional Free Energy           =  +2.98 kcal/mol
DOCKED: USER    (4) Unbound System's Energy         =  -1.69 kcal/mol
DOCKED: USER
DOCKED: USER
DOCKED: REMARK SMILES O=C(CCCCCC(=O)c1nnc(-c2nc(=O)c(F)c[nH]2)o1)[N-]c1ccccc1
DOCKED: REMARK SMILES IDX 5 1 4 2 3 3 2 4 1 5 23 6 24 7 25 8 29 9 26 10 28 11 27 12
DOCKED: REMARK SMILES IDX 6 13 7 14 8 15 9 16 10 17 11 18 22 19 12 20 13 21 14 22
DOCKED: REMARK SMILES IDX 15 23 21 24 16 25 20 26 18 27 17 29 19 30
DOCKED: REMARK H PARENT 21 28
DOCKED: USER                              x       y       z     vdW  Elec       q    Type
DOCKED: USER                           _______ _______ _______ _____ _____    ______ ____
DOCKED: ROOT
DOCKED: ATOM      1  C   UNL     1     138.753  70.109 222.695 -0.21 -0.00    +0.001 C  
DOCKED: ENDROOT
DOCKED: BRANCH   1   2
DOCKED: ATOM      2  C   UNL     1     138.110  68.843 223.294 -0.25 -0.00    +0.006 C  
DOCKED: BRANCH   2   3
DOCKED: ATOM      3  C   UNL     1     139.145  67.800 223.754 -0.06 -0.01    +0.055 C  
DOCKED: BRANCH   3   4
DOCKED: ATOM      4  C   UNL     1     139.527  67.983 225.194 -0.39 -0.01    +0.054 C  
DOCKED: ATOM      5  O   UNL     1     138.823  67.451 226.092 -0.78 -0.02    -0.320 OA 
DOCKED: BRANCH   4   6
DOCKED: ATOM      6  N   UNL     1     140.662  68.791 225.535 +0.13 +0.14    -0.627 NA 
DOCKED: BRANCH   6   7
DOCKED: ATOM      7  C   UNL     1     140.652  69.959 226.364 -0.44 +0.02    -0.134 A  
DOCKED: ATOM      8  C   UNL     1     139.936  70.005 227.573 -0.59 +0.00    -0.016 A  
DOCKED: ATOM      9  C   UNL     1     141.423  71.063 225.980 -0.60 +0.00    -0.016 A  
DOCKED: ATOM     10  C   UNL     1     139.988  71.151 228.376 -0.62 +0.00    -0.001 A  
DOCKED: ATOM     11  C   UNL     1     141.443  72.219 226.768 -0.71 +0.00    -0.001 A  
DOCKED: ATOM     12  C   UNL     1     140.734  72.259 227.969 -0.74 +0.00    -0.000 A  
DOCKED: ENDBRANCH   6   7
DOCKED: ENDBRANCH   4   6
DOCKED: ENDBRANCH   3   4
DOCKED: ENDBRANCH   2   3
DOCKED: ENDBRANCH   1   2
DOCKED: BRANCH   1  13
DOCKED: ATOM     13  C   UNL     1     138.411  71.392 223.489 -0.23 -0.00    +0.008 C  
DOCKED: BRANCH  13  14
DOCKED: ATOM     14  C   UNL     1     137.249  72.186 222.867 -0.10 -0.03    +0.086 C  
DOCKED: BRANCH  14  15
DOCKED: ATOM     15  C   UNL     1     137.732  73.054 221.737 -0.10 -0.06    +0.219 C  
DOCKED: ATOM     16  O   UNL     1     137.239  72.900 220.587 -0.02 +0.06    -0.289 OA 
DOCKED: BRANCH  15  17
DOCKED: ATOM     17  C   UNL     1     138.794  74.052 221.933 -0.12 -0.08    +0.284 A  
DOCKED: ATOM     18  N   UNL     1     140.110  73.771 221.864 -0.71 +0.01    -0.104 NA 
DOCKED: ATOM     19  O   UNL     1     138.590  75.322 222.186 -0.20 +0.11    -0.411 OA 
DOCKED: ATOM     20  N   UNL     1     140.746  74.911 222.083 -0.61 +0.01    -0.104 NA 
DOCKED: ATOM     21  C   UNL     1     139.791  75.844 222.272 -0.20 -0.05    +0.284 A  
DOCKED: BRANCH  21  22
DOCKED: ATOM     22  C   UNL     1     140.069  77.260 222.542 -0.25 -0.05    +0.199 A  
DOCKED: ATOM     23  N   UNL     1     139.061  78.080 222.944 -0.20 +0.03    -0.183 NA 
DOCKED: ATOM     24  N   UNL     1     141.328  77.761 222.389 -0.18 +0.16    -0.339 N  
DOCKED: ATOM     25  C   UNL     1     139.283  79.398 223.191 -0.20 -0.05    +0.309 A  
DOCKED: ATOM     26  C   UNL     1     141.590  79.072 222.638 -0.43 -0.05    +0.129 A  
DOCKED: ATOM     27  C   UNL     1     140.562  79.927 223.038 -0.31 -0.04    +0.206 A  
DOCKED: ATOM     28  H   UNL     1     142.110  77.139 222.087 -0.47 -0.16    +0.168 HD 
DOCKED: ATOM     29  O   UNL     1     138.328  80.138 223.552 -0.23 +0.03    -0.264 OA 
DOCKED: ATOM     30  F   UNL     1     140.811  81.240 223.279 -0.12 +0.03    -0.199 F  
DOCKED: ENDBRANCH  21  22
DOCKED: ENDBRANCH  15  17
DOCKED: ENDBRANCH  14  15
DOCKED: ENDBRANCH  13  14
DOCKED: ENDBRANCH   1  13
DOCKED: TORSDOF 10
DOCKED: TER
DOCKED: ENDMDL
________________________________________________________________________________


    CLUSTERING HISTOGRAM
    ____________________


________________________________________________________________________________
     |           |     |           |     |
Clus | Lowest    | Run | Mean      | Num | Histogram
-ter | Binding   |     | Binding   | in  |
Rank | Energy    |     | Energy    | Clus|    5    10   15   20   25   30   35
_____|___________|_____|___________|_____|____:____|____:____|____:____|____:___
   1 |     -7.50 |   8 |     -7.22 |   9 |#########
   2 |     -7.21 |  13 |     -6.94 |   2 |##
   3 |     -6.85 |  11 |     -6.68 |   2 |##
   4 |     -6.56 |   6 |     -6.56 |   1 |#
   5 |     -6.47 |  14 |     -6.47 |   1 |#
   6 |     -4.45 |   5 |     -4.30 |   3 |###
   7 |     -4.43 |   2 |     -4.41 |   2 |##
_____|___________|_____|___________|_____|______________________________________


    RMSD TABLE
    __________


_______________________________________________________________________
     |      |      |           |         |                 |
Rank | Sub- | Run  | Binding   | Cluster | Reference       | Grep
     | Rank |      | Energy    | RMSD    | RMSD            | Pattern
_____|______|______|___________|_________|_________________|___________
   1      1      8       -7.50      0.00    272.11           RANKING
   1      2     15       -7.43      1.07    272.01           RANKING
   1      3      4       -7.41      1.43    271.70           RANKING
   1      4      3       -7.35      1.59    271.59           RANKING
   1      5     12       -7.34      1.55    271.65           RANKING
   1      6      9       -7.31      0.87    271.84           RANKING
   1      7     20       -6.97      1.43    271.64           RANKING
   1      8     19       -6.84      1.62    271.51           RANKING
   1      9     17       -6.81      1.56    271.34           RANKING
   2      1     13       -7.21      0.00    270.94           RANKING
   2      2     18       -6.66      1.36    270.99           RANKING
   3      1     11       -6.85      0.00    270.98           RANKING
   3      2      1       -6.51      1.70    271.33           RANKING
   4      1      6       -6.56      0.00    270.92           RANKING
   5      1     14       -6.47      0.00    271.01           RANKING
   6      1      5       -4.45      0.00    272.12           RANKING
   6      2     10       -4.23      1.44    271.59           RANKING
   6      3      7       -4.22      1.48    271.52           RANKING
   7      1      2       -4.43      0.00    270.92           RANKING
   7      2     16       -4.40      0.68    270.85           RANKING

Run time 1.022 sec
Idle time 0.000 sec
