AutoDock-GPU version: v1.6

**********************************************************
**    AutoDock-GPU AUTODOCKTOOLS-COMPATIBLE DLG FILE    **
**********************************************************


    DOCKING PARAMETERS
    ________________________


Ligand file:                               /home/a/REINVENT4/ReinventStudies/pleaseWork/justRnve/graph-dock-3mta9a/graph-DockGPU/node-autodockgpu/inputs/HEYMCNDCIPGNIP-CIIJKFAKNA-N.pdbqt
Grid fld file:                             /home/a/REINVENT4/ReinventStudies/mols/Rad51/maps/rad51_receptor.maps.fld

Random seed:                               42
Number of runs:                            20
Number of energy evaluations:              3119281
Number of generations:                     42000
Size of population:                        150
Rate of crossover:                         80.000000%
Tournament selection probability limit:    60.000000%
Rate of mutation:                          2.000000%
Maximal allowed delta movement:            +/- 6.000000A
Maximal allowed delta angle:               +/- 90.000000

Rate of local search:                      100.000000%
Maximal number of local search iterations: 300
Rho lower bound:                           0.010000
Spread of local search delta movement:     2.000000A
Spread of local search delta angle:        74.999999
Limit of consecutive successes/failures:   4

Handle symmetry during clustering:         YES
RMSD tolerance:                            2.000000A

Program call in command line was:          /home/a/REINVENT4/ReinventStudies/adgpu-v1.6_linux_x64_cuda12_128wi --filelist batch.txt --heuristics 1 --nrun 20 --psize 150 --lsit 300 --seed 42 --heurmax 12000000 


    GRID PARAMETERS
    ________________________


Receptor name:                             rad51_receptor
Number of grid points (x, y, z):           53, 53, 53
Grid center (x, y, z):                     139.950000, 75.640000, 221.970000A
Grid size (x, y, z):                       19.500000, 19.500000, 19.500000A
Grid spacing:                              0.375000A


    LIGAND PARAMETERS
    ________________________


Ligand name:                               /home/a/REINVENT4/ReinventStudies/pleaseWork/justRnve/graph-dock-3mta9a/graph-DockGPU/node-autodockgpu/inputs/HEYMCNDCIPGNIP-CIIJKFAKNA-N
Number of atoms:                           32
Number of rotatable bonds:                 11
Number of atom types:                      7


    DUMMY DATA (only for ADT-compatibility)
    ________________________


DPF> outlev 1
DPF> ga_run 20
DPF> fld /home/a/REINVENT4/ReinventStudies/mols/Rad51/maps/rad51_receptor.maps.fld
DPF> move /home/a/REINVENT4/ReinventStudies/pleaseWork/justRnve/graph-dock-3mta9a/graph-DockGPU/node-autodockgpu/inputs/HEYMCNDCIPGNIP-CIIJKFAKNA-N.pdbqt


    COUNTER STATES
    ________________________


Number of energy evaluations performed:    574491
Number of generations used:                40


    INPUT LIGAND PDBQT FILE:
    ________________________


INPUT-LIGAND-PDBQT: REMARK SMILES O=C(CCCC/C=C(/O)Nc1ccccc1)c1nnc(-c2nc(=O)c(F)c[nH]2)o1
INPUT-LIGAND-PDBQT: REMARK SMILES IDX 5 1 6 2 7 3 8 4 9 5 10 7 11 9 12 10 16 11 13 12 15 13 14 14
INPUT-LIGAND-PDBQT: REMARK SMILES IDX 4 15 3 16 2 17 1 18 17 19 18 20 29 21 19 22 20 23 21 24
INPUT-LIGAND-PDBQT: REMARK SMILES IDX 22 25 28 26 23 27 27 28 25 29 24 31 26 32
INPUT-LIGAND-PDBQT: REMARK H PARENT 9 6 10 8 28 30
INPUT-LIGAND-PDBQT: ROOT
INPUT-LIGAND-PDBQT: ATOM      1  C   UNL     1       1.827  -2.885  -1.871  1.00  0.00     0.005 C 
INPUT-LIGAND-PDBQT: ENDROOT
INPUT-LIGAND-PDBQT: BRANCH   1   2
INPUT-LIGAND-PDBQT: ATOM      2  C   UNL     1       0.736  -1.905  -2.332  1.00  0.00     0.033 C 
INPUT-LIGAND-PDBQT: BRANCH   2   3
INPUT-LIGAND-PDBQT: ATOM      3  C   UNL     1       1.341  -0.609  -2.813  1.00  0.00     0.039 C 
INPUT-LIGAND-PDBQT: BRANCH   3   4
INPUT-LIGAND-PDBQT: ATOM      4  C   UNL     1       0.899   0.613  -2.470  1.00  0.00     0.184 C 
INPUT-LIGAND-PDBQT: BRANCH   4   5
INPUT-LIGAND-PDBQT: ATOM      5  O   UNL     1       1.584   1.744  -2.914  1.00  0.00    -0.495 OA
INPUT-LIGAND-PDBQT: ATOM      6  H   UNL     1       2.405   1.679  -3.506  1.00  0.00     0.295 HD
INPUT-LIGAND-PDBQT: ENDBRANCH   4   5
INPUT-LIGAND-PDBQT: BRANCH   4   7
INPUT-LIGAND-PDBQT: ATOM      7  N   UNL     1      -0.244   0.804  -1.624  1.00  0.00    -0.327 N 
INPUT-LIGAND-PDBQT: ATOM      8  H   UNL     1      -0.113   1.434  -0.802  1.00  0.00     0.170 HD
INPUT-LIGAND-PDBQT: BRANCH   7   9
INPUT-LIGAND-PDBQT: ATOM      9  C   UNL     1      -1.589   0.433  -1.982  1.00  0.00     0.041 A 
INPUT-LIGAND-PDBQT: ATOM     10  C   UNL     1      -2.624   0.626  -1.052  1.00  0.00     0.026 A 
INPUT-LIGAND-PDBQT: ATOM     11  C   UNL     1      -1.904  -0.088  -3.254  1.00  0.00     0.026 A 
INPUT-LIGAND-PDBQT: ATOM     12  C   UNL     1      -3.940   0.277  -1.370  1.00  0.00     0.002 A 
INPUT-LIGAND-PDBQT: ATOM     13  C   UNL     1      -3.222  -0.434  -3.568  1.00  0.00     0.002 A 
INPUT-LIGAND-PDBQT: ATOM     14  C   UNL     1      -4.239  -0.255  -2.626  1.00  0.00     0.000 A 
INPUT-LIGAND-PDBQT: ENDBRANCH   7   9
INPUT-LIGAND-PDBQT: ENDBRANCH   4   7
INPUT-LIGAND-PDBQT: ENDBRANCH   3   4
INPUT-LIGAND-PDBQT: ENDBRANCH   2   3
INPUT-LIGAND-PDBQT: ENDBRANCH   1   2
INPUT-LIGAND-PDBQT: BRANCH   1  15
INPUT-LIGAND-PDBQT: ATOM     15  C   UNL     1       2.485  -2.458  -0.540  1.00  0.00     0.009 C 
INPUT-LIGAND-PDBQT: BRANCH  15  16
INPUT-LIGAND-PDBQT: ATOM     16  C   UNL     1       1.989  -3.260   0.674  1.00  0.00     0.086 C 
INPUT-LIGAND-PDBQT: BRANCH  16  17
INPUT-LIGAND-PDBQT: ATOM     17  C   UNL     1       0.507  -3.137   0.890  1.00  0.00     0.219 C 
INPUT-LIGAND-PDBQT: ATOM     18  O   UNL     1      -0.239  -4.125   0.651  1.00  0.00    -0.289 OA
INPUT-LIGAND-PDBQT: BRANCH  17  19
INPUT-LIGAND-PDBQT: ATOM     19  C   UNL     1      -0.089  -1.882   1.364  1.00  0.00     0.284 A 
INPUT-LIGAND-PDBQT: ATOM     20  N   UNL     1      -1.397  -1.728   1.646  1.00  0.00    -0.104 NA
INPUT-LIGAND-PDBQT: ATOM     21  O   UNL     1       0.574  -0.767   1.554  1.00  0.00    -0.411 OA
INPUT-LIGAND-PDBQT: ATOM     22  N   UNL     1      -1.548  -0.468   2.024  1.00  0.00    -0.104 NA
INPUT-LIGAND-PDBQT: ATOM     23  C   UNL     1      -0.327   0.097   1.953  1.00  0.00     0.284 A 
INPUT-LIGAND-PDBQT: BRANCH  23  24
INPUT-LIGAND-PDBQT: ATOM     24  C   UNL     1      -0.040   1.506   2.257  1.00  0.00     0.199 A 
INPUT-LIGAND-PDBQT: ATOM     25  N   UNL     1       1.238   1.962   2.155  1.00  0.00    -0.183 NA
INPUT-LIGAND-PDBQT: ATOM     26  N   UNL     1      -1.038   2.362   2.622  1.00  0.00    -0.339 N 
INPUT-LIGAND-PDBQT: ATOM     27  C   UNL     1       1.544   3.260   2.413  1.00  0.00     0.309 A 
INPUT-LIGAND-PDBQT: ATOM     28  C   UNL     1      -0.770   3.669   2.888  1.00  0.00     0.129 A 
INPUT-LIGAND-PDBQT: ATOM     29  C   UNL     1       0.535   4.148   2.788  1.00  0.00     0.206 A 
INPUT-LIGAND-PDBQT: ATOM     30  H   UNL     1      -2.024   2.026   2.700  1.00  0.00     0.168 HD
INPUT-LIGAND-PDBQT: ATOM     31  O   UNL     1       2.735   3.654   2.312  1.00  0.00    -0.264 OA
INPUT-LIGAND-PDBQT: ATOM     32  F   UNL     1       0.813   5.450   3.054  1.00  0.00    -0.199 F 
INPUT-LIGAND-PDBQT: ENDBRANCH  23  24
INPUT-LIGAND-PDBQT: ENDBRANCH  17  19
INPUT-LIGAND-PDBQT: ENDBRANCH  16  17
INPUT-LIGAND-PDBQT: ENDBRANCH  15  16
INPUT-LIGAND-PDBQT: ENDBRANCH   1  15
INPUT-LIGAND-PDBQT: TORSDOF 11


    FINAL DOCKED STATE:
    ________________________


Run:   1 / 20
Time taken for this run:   0.026s

DOCKED: MODEL        1
DOCKED: USER    Run = 1
DOCKED: USER
DOCKED: USER    Estimated Free Energy of Binding    =  -6.85 kcal/mol  [=(1)+(2)+(3)-(4)]
DOCKED: USER
DOCKED: USER    (1) Final Intermolecular Energy     = -10.13 kcal/mol
DOCKED: USER        vdW + Hbond + desolv Energy     =  -9.99 kcal/mol
DOCKED: USER        Electrostatic Energy            =  -0.14 kcal/mol
DOCKED: USER        Moving Ligand-Fixed Receptor    = -10.13 kcal/mol
DOCKED: USER        Moving Ligand-Moving Receptor   =  +0.00 kcal/mol
DOCKED: USER    (2) Final Total Internal Energy     =  -2.14 kcal/mol
DOCKED: USER    (3) Torsional Free Energy           =  +3.28 kcal/mol
DOCKED: USER    (4) Unbound System's Energy         =  -2.14 kcal/mol
DOCKED: USER
DOCKED: USER
DOCKED: REMARK SMILES O=C(CCCC/C=C(/O)Nc1ccccc1)c1nnc(-c2nc(=O)c(F)c[nH]2)o1
DOCKED: REMARK SMILES IDX 5 1 6 2 7 3 8 4 9 5 10 7 11 9 12 10 16 11 13 12 15 13 14 14
DOCKED: REMARK SMILES IDX 4 15 3 16 2 17 1 18 17 19 18 20 29 21 19 22 20 23 21 24
DOCKED: REMARK SMILES IDX 22 25 28 26 23 27 27 28 25 29 24 31 26 32
DOCKED: REMARK H PARENT 9 6 10 8 28 30
DOCKED: USER                              x       y       z     vdW  Elec       q    Type
DOCKED: USER                           _______ _______ _______ _____ _____    ______ ____
DOCKED: ROOT
DOCKED: ATOM      1  C   UNL     1     143.161  74.608 218.939 -0.24 -0.00    +0.005 C  
DOCKED: ENDROOT
DOCKED: BRANCH   1   2
DOCKED: ATOM      2  C   UNL     1     143.444  75.884 219.749 -0.37 -0.02    +0.033 C  
DOCKED: BRANCH   2   3
DOCKED: ATOM      3  C   UNL     1     142.702  77.065 219.174 -0.32 -0.03    +0.039 C  
DOCKED: BRANCH   3   4
DOCKED: ATOM      4  C   UNL     1     141.858  77.847 219.868 -0.22 -0.11    +0.184 C  
DOCKED: BRANCH   4   5
DOCKED: ATOM      5  O   UNL     1     141.086  78.795 219.196 -0.02 +0.23    -0.495 OA 
DOCKED: ATOM      6  H   UNL     1     141.449  79.329 218.413 +0.09 -0.17    +0.295 HD 
DOCKED: ENDBRANCH   4   5
DOCKED: BRANCH   4   7
DOCKED: ATOM      7  N   UNL     1     141.743  77.772 221.296 -0.11 +0.20    -0.327 N  
DOCKED: ATOM      8  H   UNL     1     141.877  76.828 221.723 -0.48 -0.12    +0.170 HD 
DOCKED: BRANCH   7   9
DOCKED: ATOM      9  C   UNL     1     141.747  78.915 222.172 -0.45 -0.02    +0.041 A  
DOCKED: ATOM     10  C   UNL     1     140.525  79.509 222.529 -0.37 -0.01    +0.026 A  
DOCKED: ATOM     11  C   UNL     1     142.942  79.437 222.709 -0.53 -0.01    +0.026 A  
DOCKED: ATOM     12  C   UNL     1     140.496  80.619 223.378 -0.46 -0.00    +0.002 A  
DOCKED: ATOM     13  C   UNL     1     142.907  80.547 223.560 -0.68 -0.00    +0.002 A  
DOCKED: ATOM     14  C   UNL     1     141.686  81.140 223.891 -0.55 -0.00    +0.000 A  
DOCKED: ENDBRANCH   7   9
DOCKED: ENDBRANCH   4   7
DOCKED: ENDBRANCH   3   4
DOCKED: ENDBRANCH   2   3
DOCKED: ENDBRANCH   1   2
DOCKED: BRANCH   1  15
DOCKED: ATOM     15  C   UNL     1     142.218  73.632 219.679 -0.18 -0.00    +0.009 C  
DOCKED: BRANCH  15  16
DOCKED: ATOM     16  C   UNL     1     140.847  74.241 220.015 -0.13 -0.02    +0.086 C  
DOCKED: BRANCH  16  17
DOCKED: ATOM     17  C   UNL     1     140.512  74.156 221.477 -0.22 -0.03    +0.219 C  
DOCKED: ATOM     18  O   UNL     1     140.516  75.205 222.176 -0.59 +0.02    -0.289 OA 
DOCKED: BRANCH  17  19
DOCKED: ATOM     19  C   UNL     1     140.192  72.871 222.109 -0.19 -0.03    +0.284 A  
DOCKED: ATOM     20  N   UNL     1     139.533  71.871 221.491 -0.13 +0.02    -0.104 NA 
DOCKED: ATOM     21  O   UNL     1     140.493  72.551 223.344 -0.33 +0.02    -0.411 OA 
DOCKED: ATOM     22  N   UNL     1     139.423  70.896 222.380 -0.16 +0.02    -0.104 NA 
DOCKED: ATOM     23  C   UNL     1     140.015  71.342 223.505 -0.24 -0.05    +0.284 A  
DOCKED: BRANCH  23  24
DOCKED: ATOM     24  C   UNL     1     140.093  70.585 224.763 -0.32 -0.03    +0.199 A  
DOCKED: ATOM     25  N   UNL     1     139.622  69.310 224.803 -0.23 +0.03    -0.183 NA 
DOCKED: ATOM     26  N   UNL     1     140.646  71.139 225.881 -0.30 +0.05    -0.339 N  
DOCKED: ATOM     27  C   UNL     1     139.689  68.571 225.941 -0.30 -0.04    +0.309 A  
DOCKED: ATOM     28  C   UNL     1     140.730  70.430 227.039 -0.50 -0.02    +0.129 A  
DOCKED: ATOM     29  C   UNL     1     140.250  69.123 227.093 -0.43 -0.04    +0.206 A  
DOCKED: ATOM     30  H   UNL     1     141.015  72.116 225.863 +0.10 -0.02    +0.168 HD 
DOCKED: ATOM     31  O   UNL     1     139.244  67.394 225.950 -0.92 +0.00    -0.264 OA 
DOCKED: ATOM     32  F   UNL     1     140.328  68.408 228.245 -0.20 +0.05    -0.199 F  
DOCKED: ENDBRANCH  23  24
DOCKED: ENDBRANCH  17  19
DOCKED: ENDBRANCH  16  17
DOCKED: ENDBRANCH  15  16
DOCKED: ENDBRANCH   1  15
DOCKED: TORSDOF 11
DOCKED: TER
DOCKED: ENDMDL
________________________________________________________________________________


    FINAL DOCKED STATE:
    ________________________


Run:   2 / 20
Time taken for this run:   0.026s

DOCKED: MODEL        2
DOCKED: USER    Run = 2
DOCKED: USER
DOCKED: USER    Estimated Free Energy of Binding    =  -5.27 kcal/mol  [=(1)+(2)+(3)-(4)]
DOCKED: USER
DOCKED: USER    (1) Final Intermolecular Energy     =  -8.55 kcal/mol
DOCKED: USER        vdW + Hbond + desolv Energy     =  -8.50 kcal/mol
DOCKED: USER        Electrostatic Energy            =  -0.05 kcal/mol
DOCKED: USER        Moving Ligand-Fixed Receptor    =  -8.55 kcal/mol
DOCKED: USER        Moving Ligand-Moving Receptor   =  +0.00 kcal/mol
DOCKED: USER    (2) Final Total Internal Energy     =  -4.52 kcal/mol
DOCKED: USER    (3) Torsional Free Energy           =  +3.28 kcal/mol
DOCKED: USER    (4) Unbound System's Energy         =  -4.52 kcal/mol
DOCKED: USER
DOCKED: USER
DOCKED: REMARK SMILES O=C(CCCC/C=C(/O)Nc1ccccc1)c1nnc(-c2nc(=O)c(F)c[nH]2)o1
DOCKED: REMARK SMILES IDX 5 1 6 2 7 3 8 4 9 5 10 7 11 9 12 10 16 11 13 12 15 13 14 14
DOCKED: REMARK SMILES IDX 4 15 3 16 2 17 1 18 17 19 18 20 29 21 19 22 20 23 21 24
DOCKED: REMARK SMILES IDX 22 25 28 26 23 27 27 28 25 29 24 31 26 32
DOCKED: REMARK H PARENT 9 6 10 8 28 30
DOCKED: USER                              x       y       z     vdW  Elec       q    Type
DOCKED: USER                           _______ _______ _______ _____ _____    ______ ____
DOCKED: ROOT
DOCKED: ATOM      1  C   UNL     1     138.665  79.535 220.796 -0.10 -0.00    +0.005 C  
DOCKED: ENDROOT
DOCKED: BRANCH   1   2
DOCKED: ATOM      2  C   UNL     1     139.068  78.214 220.120 -0.08 -0.01    +0.033 C  
DOCKED: BRANCH   2   3
DOCKED: ATOM      3  C   UNL     1     138.892  77.048 221.062 -0.15 -0.01    +0.039 C  
DOCKED: BRANCH   3   4
DOCKED: ATOM      4  C   UNL     1     139.733  76.745 222.065 -0.27 -0.04    +0.184 C  
DOCKED: BRANCH   4   5
DOCKED: ATOM      5  O   UNL     1     139.323  75.863 223.066 -0.08 +0.08    -0.495 OA 
DOCKED: ATOM      6  H   UNL     1     139.513  74.868 223.018 -0.37 -0.02    +0.295 HD 
DOCKED: ENDBRANCH   4   5
DOCKED: BRANCH   4   7
DOCKED: ATOM      7  N   UNL     1     141.040  77.326 222.171 -0.21 +0.14    -0.327 N  
DOCKED: ATOM      8  H   UNL     1     141.807  76.840 221.657 -0.46 -0.12    +0.170 HD 
DOCKED: BRANCH   7   9
DOCKED: ATOM      9  C   UNL     1     141.301  78.649 222.678 -0.47 -0.02    +0.041 A  
DOCKED: ATOM     10  C   UNL     1     142.554  79.238 222.444 -0.48 -0.01    +0.026 A  
DOCKED: ATOM     11  C   UNL     1     140.321  79.385 223.376 -0.45 -0.01    +0.026 A  
DOCKED: ATOM     12  C   UNL     1     142.838  80.521 222.922 -0.64 -0.00    +0.002 A  
DOCKED: ATOM     13  C   UNL     1     140.609  80.668 223.851 -0.41 -0.00    +0.002 A  
DOCKED: ATOM     14  C   UNL     1     141.867  81.235 223.628 -0.61 -0.00    +0.000 A  
DOCKED: ENDBRANCH   7   9
DOCKED: ENDBRANCH   4   7
DOCKED: ENDBRANCH   3   4
DOCKED: ENDBRANCH   2   3
DOCKED: ENDBRANCH   1   2
DOCKED: BRANCH   1  15
DOCKED: ATOM     15  C   UNL     1     139.150  80.775 220.012 -0.09 -0.00    +0.009 C  
DOCKED: BRANCH  15  16
DOCKED: ATOM     16  C   UNL     1     139.984  80.427 218.769 -0.07 -0.03    +0.086 C  
DOCKED: BRANCH  16  17
DOCKED: ATOM     17  C   UNL     1     141.444  80.246 219.076 -0.18 -0.11    +0.219 C  
DOCKED: ATOM     18  O   UNL     1     142.124  81.236 219.458 -0.18 +0.13    -0.289 OA 
DOCKED: BRANCH  17  19
DOCKED: ATOM     19  C   UNL     1     142.094  78.939 218.927 -0.17 -0.19    +0.284 A  
DOCKED: ATOM     20  N   UNL     1     142.950  78.631 217.934 -0.28 +0.10    -0.104 NA 
DOCKED: ATOM     21  O   UNL     1     141.910  77.919 219.730 -0.13 +0.25    -0.411 OA 
DOCKED: ATOM     22  N   UNL     1     143.307  77.372 218.130 -0.24 +0.08    -0.104 NA 
DOCKED: ATOM     23  C   UNL     1     142.652  76.960 219.232 -0.21 -0.18    +0.284 A  
DOCKED: BRANCH  23  24
DOCKED: ATOM     24  C   UNL     1     142.733  75.604 219.795 -0.24 -0.10    +0.199 A  
DOCKED: ATOM     25  N   UNL     1     141.768  75.183 220.656 -0.20 +0.07    -0.183 NA 
DOCKED: ATOM     26  N   UNL     1     143.750  74.762 219.451 -0.16 +0.14    -0.339 N  
DOCKED: ATOM     27  C   UNL     1     141.797  73.933 221.188 -0.11 -0.05    +0.309 A  
DOCKED: ATOM     28  C   UNL     1     143.813  73.503 219.962 -0.28 -0.03    +0.129 A  
DOCKED: ATOM     29  C   UNL     1     142.831  73.060 220.847 -0.18 -0.03    +0.206 A  
DOCKED: ATOM     30  H   UNL     1     144.495  75.072 218.787 -0.31 -0.11    +0.168 HD 
DOCKED: ATOM     31  O   UNL     1     140.892  73.570 221.983 -0.67 +0.01    -0.264 OA 
DOCKED: ATOM     32  F   UNL     1     142.887  71.806 221.365 -0.03 +0.02    -0.199 F  
DOCKED: ENDBRANCH  23  24
DOCKED: ENDBRANCH  17  19
DOCKED: ENDBRANCH  16  17
DOCKED: ENDBRANCH  15  16
DOCKED: ENDBRANCH   1  15
DOCKED: TORSDOF 11
DOCKED: TER
DOCKED: ENDMDL
________________________________________________________________________________


    FINAL DOCKED STATE:
    ________________________


Run:   3 / 20
Time taken for this run:   0.026s

DOCKED: MODEL        3
DOCKED: USER    Run = 3
DOCKED: USER
DOCKED: USER    Estimated Free Energy of Binding    =  -5.78 kcal/mol  [=(1)+(2)+(3)-(4)]
DOCKED: USER
DOCKED: USER    (1) Final Intermolecular Energy     =  -9.07 kcal/mol
DOCKED: USER        vdW + Hbond + desolv Energy     =  -8.76 kcal/mol
DOCKED: USER        Electrostatic Energy            =  -0.30 kcal/mol
DOCKED: USER        Moving Ligand-Fixed Receptor    =  -9.07 kcal/mol
DOCKED: USER        Moving Ligand-Moving Receptor   =  +0.00 kcal/mol
DOCKED: USER    (2) Final Total Internal Energy     =  -2.90 kcal/mol
DOCKED: USER    (3) Torsional Free Energy           =  +3.28 kcal/mol
DOCKED: USER    (4) Unbound System's Energy         =  -2.90 kcal/mol
DOCKED: USER
DOCKED: USER
DOCKED: REMARK SMILES O=C(CCCC/C=C(/O)Nc1ccccc1)c1nnc(-c2nc(=O)c(F)c[nH]2)o1
DOCKED: REMARK SMILES IDX 5 1 6 2 7 3 8 4 9 5 10 7 11 9 12 10 16 11 13 12 15 13 14 14
DOCKED: REMARK SMILES IDX 4 15 3 16 2 17 1 18 17 19 18 20 29 21 19 22 20 23 21 24
DOCKED: REMARK SMILES IDX 22 25 28 26 23 27 27 28 25 29 24 31 26 32
DOCKED: REMARK H PARENT 9 6 10 8 28 30
DOCKED: USER                              x       y       z     vdW  Elec       q    Type
DOCKED: USER                           _______ _______ _______ _____ _____    ______ ____
DOCKED: ROOT
DOCKED: ATOM      1  C   UNL     1     143.358  76.439 217.536 -0.26 -0.00    +0.005 C  
DOCKED: ENDROOT
DOCKED: BRANCH   1   2
DOCKED: ATOM      2  C   UNL     1     142.852  77.841 217.159 -0.25 -0.03    +0.033 C  
DOCKED: BRANCH   2   3
DOCKED: ATOM      3  C   UNL     1     142.003  78.424 218.262 -0.26 -0.03    +0.039 C  
DOCKED: BRANCH   3   4
DOCKED: ATOM      4  C   UNL     1     142.058  79.703 218.672 -0.23 -0.12    +0.184 C  
DOCKED: BRANCH   4   5
DOCKED: ATOM      5  O   UNL     1     142.958  80.582 218.071 -0.18 +0.50    -0.495 OA 
DOCKED: ATOM      6  H   UNL     1     143.620  80.277 217.366 -0.44 -0.61    +0.295 HD 
DOCKED: ENDBRANCH   4   5
DOCKED: BRANCH   4   7
DOCKED: ATOM      7  N   UNL     1     141.241  80.199 219.743 -0.10 +0.14    -0.327 N  
DOCKED: ATOM      8  H   UNL     1     140.240  80.386 219.515 +0.05 -0.06    +0.170 HD 
DOCKED: BRANCH   7   9
DOCKED: ATOM      9  C   UNL     1     141.625  80.179 221.131 -0.35 -0.02    +0.041 A  
DOCKED: ATOM     10  C   UNL     1     141.485  81.348 221.898 -0.42 -0.01    +0.026 A  
DOCKED: ATOM     11  C   UNL     1     142.105  79.009 221.754 -0.39 -0.02    +0.026 A  
DOCKED: ATOM     12  C   UNL     1     141.847  81.360 223.248 -0.57 -0.00    +0.002 A  
DOCKED: ATOM     13  C   UNL     1     142.465  79.025 223.105 -0.53 -0.00    +0.002 A  
DOCKED: ATOM     14  C   UNL     1     142.339  80.200 223.851 -0.65 -0.00    +0.000 A  
DOCKED: ENDBRANCH   7   9
DOCKED: ENDBRANCH   4   7
DOCKED: ENDBRANCH   3   4
DOCKED: ENDBRANCH   2   3
DOCKED: ENDBRANCH   1   2
DOCKED: BRANCH   1  15
DOCKED: ATOM     15  C   UNL     1     142.750  75.924 218.859 -0.29 -0.00    +0.009 C  
DOCKED: BRANCH  15  16
DOCKED: ATOM     16  C   UNL     1     143.717  75.056 219.681 -0.35 -0.04    +0.086 C  
DOCKED: BRANCH  16  17
DOCKED: ATOM     17  C   UNL     1     143.009  74.104 220.603 -0.18 -0.06    +0.219 C  
DOCKED: ATOM     18  O   UNL     1     143.507  72.967 220.823 -0.22 +0.05    -0.289 OA 
DOCKED: BRANCH  17  19
DOCKED: ATOM     19  C   UNL     1     141.740  74.471 221.244 -0.12 -0.06    +0.284 A  
DOCKED: ATOM     20  N   UNL     1     140.973  73.613 221.943 -0.65 +0.00    -0.104 NA 
DOCKED: ATOM     21  O   UNL     1     141.201  75.666 221.199 -0.18 +0.14    -0.411 OA 
DOCKED: ATOM     22  N   UNL     1     139.917  74.305 222.345 -0.82 +0.00    -0.104 NA 
DOCKED: ATOM     23  C   UNL     1     140.081  75.555 221.871 -0.22 -0.05    +0.284 A  
DOCKED: BRANCH  23  24
DOCKED: ATOM     24  C   UNL     1     139.120  76.651 222.058 -0.23 -0.04    +0.199 A  
DOCKED: ATOM     25  N   UNL     1     139.290  77.810 221.366 -0.10 +0.04    -0.183 NA 
DOCKED: ATOM     26  N   UNL     1     138.056  76.515 222.901 -0.16 +0.07    -0.339 N  
DOCKED: ATOM     27  C   UNL     1     138.417  78.842 221.498 -0.06 -0.06    +0.309 A  
DOCKED: ATOM     28  C   UNL     1     137.160  77.527 223.059 -0.08 -0.02    +0.129 A  
DOCKED: ATOM     29  C   UNL     1     137.323  78.719 222.356 -0.12 -0.03    +0.206 A  
DOCKED: ATOM     30  H   UNL     1     137.911  75.629 223.435 -0.32 -0.07    +0.168 HD 
DOCKED: ATOM     31  O   UNL     1     138.599  79.903 220.846 -0.04 +0.06    -0.264 OA 
DOCKED: ATOM     32  F   UNL     1     136.437  79.736 222.509 -0.02 +0.03    -0.199 F  
DOCKED: ENDBRANCH  23  24
DOCKED: ENDBRANCH  17  19
DOCKED: ENDBRANCH  16  17
DOCKED: ENDBRANCH  15  16
DOCKED: ENDBRANCH   1  15
DOCKED: TORSDOF 11
DOCKED: TER
DOCKED: ENDMDL
________________________________________________________________________________


    FINAL DOCKED STATE:
    ________________________


Run:   4 / 20
Time taken for this run:   0.026s

DOCKED: MODEL        4
DOCKED: USER    Run = 4
DOCKED: USER
DOCKED: USER    Estimated Free Energy of Binding    =  -5.09 kcal/mol  [=(1)+(2)+(3)-(4)]
DOCKED: USER
DOCKED: USER    (1) Final Intermolecular Energy     =  -8.37 kcal/mol
DOCKED: USER        vdW + Hbond + desolv Energy     =  -8.32 kcal/mol
DOCKED: USER        Electrostatic Energy            =  -0.05 kcal/mol
DOCKED: USER        Moving Ligand-Fixed Receptor    =  -8.37 kcal/mol
DOCKED: USER        Moving Ligand-Moving Receptor   =  +0.00 kcal/mol
DOCKED: USER    (2) Final Total Internal Energy     =  -3.92 kcal/mol
DOCKED: USER    (3) Torsional Free Energy           =  +3.28 kcal/mol
DOCKED: USER    (4) Unbound System's Energy         =  -3.92 kcal/mol
DOCKED: USER
DOCKED: USER
DOCKED: REMARK SMILES O=C(CCCC/C=C(/O)Nc1ccccc1)c1nnc(-c2nc(=O)c(F)c[nH]2)o1
DOCKED: REMARK SMILES IDX 5 1 6 2 7 3 8 4 9 5 10 7 11 9 12 10 16 11 13 12 15 13 14 14
DOCKED: REMARK SMILES IDX 4 15 3 16 2 17 1 18 17 19 18 20 29 21 19 22 20 23 21 24
DOCKED: REMARK SMILES IDX 22 25 28 26 23 27 27 28 25 29 24 31 26 32
DOCKED: REMARK H PARENT 9 6 10 8 28 30
DOCKED: USER                              x       y       z     vdW  Elec       q    Type
DOCKED: USER                           _______ _______ _______ _____ _____    ______ ____
DOCKED: ROOT
DOCKED: ATOM      1  C   UNL     1     139.538  68.449 221.182 -0.14 -0.00    +0.005 C  
DOCKED: ENDROOT
DOCKED: BRANCH   1   2
DOCKED: ATOM      2  C   UNL     1     139.930  69.932 221.073 -0.12 -0.01    +0.033 C  
DOCKED: BRANCH   2   3
DOCKED: ATOM      3  C   UNL     1     138.902  70.814 221.738 -0.14 -0.01    +0.039 C  
DOCKED: BRANCH   3   4
DOCKED: ATOM      4  C   UNL     1     139.055  71.388 222.944 -0.21 -0.04    +0.184 C  
DOCKED: BRANCH   4   5
DOCKED: ATOM      5  O   UNL     1     139.780  72.575 223.055 -0.36 +0.10    -0.495 OA 
DOCKED: ATOM      6  H   UNL     1     139.325  73.477 223.147 -0.42 -0.11    +0.295 HD 
DOCKED: ENDBRANCH   4   5
DOCKED: BRANCH   4   7
DOCKED: ATOM      7  N   UNL     1     138.527  70.804 224.143 -0.14 +0.07    -0.327 N  
DOCKED: ATOM      8  H   UNL     1     137.533  70.485 224.105 +0.06 -0.03    +0.170 HD 
DOCKED: BRANCH   7   9
DOCKED: ATOM      9  C   UNL     1     139.331  70.376 225.259 -0.38 -0.01    +0.041 A  
DOCKED: ATOM     10  C   UNL     1     139.246  69.042 225.693 -0.44 -0.00    +0.026 A  
DOCKED: ATOM     11  C   UNL     1     140.228  71.249 225.908 -0.53 -0.00    +0.026 A  
DOCKED: ATOM     12  C   UNL     1     140.015  68.596 226.773 -0.61 -0.00    +0.002 A  
DOCKED: ATOM     13  C   UNL     1     140.996  70.797 226.986 -0.65 -0.00    +0.002 A  
DOCKED: ATOM     14  C   UNL     1     140.887  69.473 227.421 -0.60 -0.00    +0.000 A  
DOCKED: ENDBRANCH   7   9
DOCKED: ENDBRANCH   4   7
DOCKED: ENDBRANCH   3   4
DOCKED: ENDBRANCH   2   3
DOCKED: ENDBRANCH   1   2
DOCKED: BRANCH   1  15
DOCKED: ATOM     15  C   UNL     1     138.587  68.172 222.368 -0.23 -0.00    +0.009 C  
DOCKED: BRANCH  15  16
DOCKED: ATOM     16  C   UNL     1     137.240  67.567 221.944 -0.15 -0.01    +0.086 C  
DOCKED: BRANCH  16  17
DOCKED: ATOM     17  C   UNL     1     136.114  68.561 221.984 -0.07 -0.03    +0.219 C  
DOCKED: ATOM     18  O   UNL     1     135.339  68.661 220.994 -0.01 +0.04    -0.289 OA 
DOCKED: BRANCH  17  19
DOCKED: ATOM     19  C   UNL     1     135.907  69.427 223.151 -0.07 -0.03    +0.284 A  
DOCKED: ATOM     20  N   UNL     1     135.969  68.999 224.427 -0.37 +0.00    -0.104 NA 
DOCKED: ATOM     21  O   UNL     1     135.626  70.706 223.091 -0.02 +0.06    -0.411 OA 
DOCKED: ATOM     22  N   UNL     1     135.715  70.055 225.184 -0.17 +0.01    -0.104 NA 
DOCKED: ATOM     23  C   UNL     1     135.504  71.084 224.340 -0.10 -0.03    +0.284 A  
DOCKED: BRANCH  23  24
DOCKED: ATOM     24  C   UNL     1     135.155  72.449 224.757 -0.11 -0.02    +0.199 A  
DOCKED: ATOM     25  N   UNL     1     134.190  72.631 225.699 -0.23 +0.00    -0.183 NA 
DOCKED: ATOM     26  N   UNL     1     135.798  73.530 224.227 -0.10 +0.09    -0.339 N  
DOCKED: ATOM     27  C   UNL     1     133.848  73.875 226.123 -0.17 +0.02    +0.309 A  
DOCKED: ATOM     28  C   UNL     1     135.482  74.791 224.627 -0.29 -0.02    +0.129 A  
DOCKED: ATOM     29  C   UNL     1     134.495  74.991 225.590 -0.29 -0.01    +0.206 A  
DOCKED: ATOM     30  H   UNL     1     136.544  73.404 223.507 -0.38 -0.07    +0.168 HD 
DOCKED: ATOM     31  O   UNL     1     132.950  74.014 226.994 -0.77 -0.01    -0.264 OA 
DOCKED: ATOM     32  F   UNL     1     134.171  76.246 225.994 -0.11 +0.01    -0.199 F  
DOCKED: ENDBRANCH  23  24
DOCKED: ENDBRANCH  17  19
DOCKED: ENDBRANCH  16  17
DOCKED: ENDBRANCH  15  16
DOCKED: ENDBRANCH   1  15
DOCKED: TORSDOF 11
DOCKED: TER
DOCKED: ENDMDL
________________________________________________________________________________


    FINAL DOCKED STATE:
    ________________________


Run:   5 / 20
Time taken for this run:   0.026s

DOCKED: MODEL        5
DOCKED: USER    Run = 5
DOCKED: USER
DOCKED: USER    Estimated Free Energy of Binding    =  -5.52 kcal/mol  [=(1)+(2)+(3)-(4)]
DOCKED: USER
DOCKED: USER    (1) Final Intermolecular Energy     =  -8.80 kcal/mol
DOCKED: USER        vdW + Hbond + desolv Energy     =  -8.53 kcal/mol
DOCKED: USER        Electrostatic Energy            =  -0.27 kcal/mol
DOCKED: USER        Moving Ligand-Fixed Receptor    =  -8.80 kcal/mol
DOCKED: USER        Moving Ligand-Moving Receptor   =  +0.00 kcal/mol
DOCKED: USER    (2) Final Total Internal Energy     =  -3.99 kcal/mol
DOCKED: USER    (3) Torsional Free Energy           =  +3.28 kcal/mol
DOCKED: USER    (4) Unbound System's Energy         =  -3.99 kcal/mol
DOCKED: USER
DOCKED: USER
DOCKED: REMARK SMILES O=C(CCCC/C=C(/O)Nc1ccccc1)c1nnc(-c2nc(=O)c(F)c[nH]2)o1
DOCKED: REMARK SMILES IDX 5 1 6 2 7 3 8 4 9 5 10 7 11 9 12 10 16 11 13 12 15 13 14 14
DOCKED: REMARK SMILES IDX 4 15 3 16 2 17 1 18 17 19 18 20 29 21 19 22 20 23 21 24
DOCKED: REMARK SMILES IDX 22 25 28 26 23 27 27 28 25 29 24 31 26 32
DOCKED: REMARK H PARENT 9 6 10 8 28 30
DOCKED: USER                              x       y       z     vdW  Elec       q    Type
DOCKED: USER                           _______ _______ _______ _____ _____    ______ ____
DOCKED: ROOT
DOCKED: ATOM      1  C   UNL     1     137.436  79.604 221.671 -0.11 -0.00    +0.005 C  
DOCKED: ENDROOT
DOCKED: BRANCH   1   2
DOCKED: ATOM      2  C   UNL     1     137.749  78.256 222.339 -0.21 -0.01    +0.033 C  
DOCKED: BRANCH   2   3
DOCKED: ATOM      3  C   UNL     1     138.803  77.501 221.566 -0.19 -0.01    +0.039 C  
DOCKED: BRANCH   3   4
DOCKED: ATOM      4  C   UNL     1     139.801  76.796 222.126 -0.28 -0.04    +0.184 C  
DOCKED: BRANCH   4   5
DOCKED: ATOM      5  O   UNL     1     139.546  75.524 222.637 -0.39 +0.07    -0.495 OA 
DOCKED: ATOM      6  H   UNL     1     138.674  75.295 223.102 -0.41 -0.11    +0.295 HD 
DOCKED: ENDBRANCH   4   5
DOCKED: BRANCH   4   7
DOCKED: ATOM      7  N   UNL     1     141.130  77.322 222.253 -0.20 +0.14    -0.327 N  
DOCKED: ATOM      8  H   UNL     1     141.887  76.792 221.767 -0.49 -0.13    +0.170 HD 
DOCKED: BRANCH   7   9
DOCKED: ATOM      9  C   UNL     1     141.438  78.641 222.743 -0.49 -0.02    +0.041 A  
DOCKED: ATOM     10  C   UNL     1     142.711  79.182 222.503 -0.37 -0.02    +0.026 A  
DOCKED: ATOM     11  C   UNL     1     140.484  79.421 223.430 -0.47 -0.01    +0.026 A  
DOCKED: ATOM     12  C   UNL     1     143.040  80.460 222.964 -0.63 -0.00    +0.002 A  
DOCKED: ATOM     13  C   UNL     1     140.817  80.699 223.889 -0.38 -0.00    +0.002 A  
DOCKED: ATOM     14  C   UNL     1     142.095  81.218 223.659 -0.63 -0.00    +0.000 A  
DOCKED: ENDBRANCH   7   9
DOCKED: ENDBRANCH   4   7
DOCKED: ENDBRANCH   3   4
DOCKED: ENDBRANCH   2   3
DOCKED: ENDBRANCH   1   2
DOCKED: BRANCH   1  15
DOCKED: ATOM     15  C   UNL     1     138.654  80.195 220.925 -0.11 -0.00    +0.009 C  
DOCKED: BRANCH  15  16
DOCKED: ATOM     16  C   UNL     1     138.972  81.645 221.324 -0.14 -0.02    +0.086 C  
DOCKED: BRANCH  16  17
DOCKED: ATOM     17  C   UNL     1     140.283  82.129 220.771 -0.18 -0.05    +0.219 C  
DOCKED: ATOM     18  O   UNL     1     140.703  83.275 221.084 -0.20 +0.05    -0.289 OA 
DOCKED: BRANCH  17  19
DOCKED: ATOM     19  C   UNL     1     141.078  81.293 219.863 -0.15 -0.10    +0.284 A  
DOCKED: ATOM     20  N   UNL     1     141.656  81.746 218.734 -0.20 +0.05    -0.104 NA 
DOCKED: ATOM     21  O   UNL     1     141.305  80.013 220.034 -0.10 +0.18    -0.411 OA 
DOCKED: ATOM     22  N   UNL     1     142.263  80.705 218.186 -0.27 +0.08    -0.104 NA 
DOCKED: ATOM     23  C   UNL     1     142.028  79.658 219.000 -0.18 -0.18    +0.284 A  
DOCKED: BRANCH  23  24
DOCKED: ATOM     24  C   UNL     1     142.495  78.287 218.753 -0.20 -0.15    +0.199 A  
DOCKED: ATOM     25  N   UNL     1     142.297  77.335 219.705 -0.22 +0.12    -0.183 NA 
DOCKED: ATOM     26  N   UNL     1     143.107  77.955 217.580 -0.13 +0.32    -0.339 N  
DOCKED: ATOM     27  C   UNL     1     142.700  76.052 219.511 -0.20 -0.17    +0.309 A  
DOCKED: ATOM     28  C   UNL     1     143.524  76.681 217.349 -0.17 -0.09    +0.129 A  
DOCKED: ATOM     29  C   UNL     1     143.328  75.697 218.317 -0.19 -0.11    +0.206 A  
DOCKED: ATOM     30  H   UNL     1     143.261  78.675 216.839 -0.40 -0.26    +0.168 HD 
DOCKED: ATOM     31  O   UNL     1     142.505  75.192 220.409 -0.22 +0.12    -0.264 OA 
DOCKED: ATOM     32  F   UNL     1     143.744  74.423 218.098 -0.03 +0.07    -0.199 F  
DOCKED: ENDBRANCH  23  24
DOCKED: ENDBRANCH  17  19
DOCKED: ENDBRANCH  16  17
DOCKED: ENDBRANCH  15  16
DOCKED: ENDBRANCH   1  15
DOCKED: TORSDOF 11
DOCKED: TER
DOCKED: ENDMDL
________________________________________________________________________________


    FINAL DOCKED STATE:
    ________________________


Run:   6 / 20
Time taken for this run:   0.026s

DOCKED: MODEL        6
DOCKED: USER    Run = 6
DOCKED: USER
DOCKED: USER    Estimated Free Energy of Binding    =  -6.07 kcal/mol  [=(1)+(2)+(3)-(4)]
DOCKED: USER
DOCKED: USER    (1) Final Intermolecular Energy     =  -9.36 kcal/mol
DOCKED: USER        vdW + Hbond + desolv Energy     =  -9.21 kcal/mol
DOCKED: USER        Electrostatic Energy            =  -0.14 kcal/mol
DOCKED: USER        Moving Ligand-Fixed Receptor    =  -9.36 kcal/mol
DOCKED: USER        Moving Ligand-Moving Receptor   =  +0.00 kcal/mol
DOCKED: USER    (2) Final Total Internal Energy     =  -3.49 kcal/mol
DOCKED: USER    (3) Torsional Free Energy           =  +3.28 kcal/mol
DOCKED: USER    (4) Unbound System's Energy         =  -3.49 kcal/mol
DOCKED: USER
DOCKED: USER
DOCKED: REMARK SMILES O=C(CCCC/C=C(/O)Nc1ccccc1)c1nnc(-c2nc(=O)c(F)c[nH]2)o1
DOCKED: REMARK SMILES IDX 5 1 6 2 7 3 8 4 9 5 10 7 11 9 12 10 16 11 13 12 15 13 14 14
DOCKED: REMARK SMILES IDX 4 15 3 16 2 17 1 18 17 19 18 20 29 21 19 22 20 23 21 24
DOCKED: REMARK SMILES IDX 22 25 28 26 23 27 27 28 25 29 24 31 26 32
DOCKED: REMARK H PARENT 9 6 10 8 28 30
DOCKED: USER                              x       y       z     vdW  Elec       q    Type
DOCKED: USER                           _______ _______ _______ _____ _____    ______ ____
DOCKED: ROOT
DOCKED: ATOM      1  C   UNL     1     135.651  70.893 223.086 -0.12 -0.00    +0.005 C  
DOCKED: ENDROOT
DOCKED: BRANCH   1   2
DOCKED: ATOM      2  C   UNL     1     136.809  71.107 224.074 -0.16 -0.01    +0.033 C  
DOCKED: BRANCH   2   3
DOCKED: ATOM      3  C   UNL     1     138.054  70.391 223.612 -0.25 -0.01    +0.039 C  
DOCKED: BRANCH   3   4
DOCKED: ATOM      4  C   UNL     1     139.187  71.001 223.227 -0.23 -0.04    +0.184 C  
DOCKED: BRANCH   4   5
DOCKED: ATOM      5  O   UNL     1     139.573  70.958 221.887 -0.04 +0.09    -0.495 OA 
DOCKED: ATOM      6  H   UNL     1     139.553  71.781 221.294 +0.07 -0.05    +0.295 HD 
DOCKED: ENDBRANCH   4   5
DOCKED: BRANCH   4   7
DOCKED: ATOM      7  N   UNL     1     140.048  71.674 224.157 -0.22 +0.06    -0.327 N  
DOCKED: ATOM      8  H   UNL     1     140.254  72.678 223.956 -0.10 -0.02    +0.170 HD 
DOCKED: BRANCH   7   9
DOCKED: ATOM      9  C   UNL     1     140.397  71.161 225.457 -0.53 -0.01    +0.041 A  
DOCKED: ATOM     10  C   UNL     1     140.415  69.772 225.663 -0.47 -0.00    +0.026 A  
DOCKED: ATOM     11  C   UNL     1     140.755  72.013 226.522 -0.55 -0.00    +0.026 A  
DOCKED: ATOM     12  C   UNL     1     140.750  69.243 226.913 -0.59 -0.00    +0.002 A  
DOCKED: ATOM     13  C   UNL     1     141.092  71.479 227.770 -0.79 -0.00    +0.002 A  
DOCKED: ATOM     14  C   UNL     1     141.086  70.096 227.967 -0.61 -0.00    +0.000 A  
DOCKED: ENDBRANCH   7   9
DOCKED: ENDBRANCH   4   7
DOCKED: ENDBRANCH   3   4
DOCKED: ENDBRANCH   2   3
DOCKED: ENDBRANCH   1   2
DOCKED: BRANCH   1  15
DOCKED: ATOM     15  C   UNL     1     135.333  72.160 222.260 -0.07 -0.00    +0.009 C  
DOCKED: BRANCH  15  16
DOCKED: ATOM     16  C   UNL     1     136.293  73.328 222.536 -0.13 -0.02    +0.086 C  
DOCKED: BRANCH  16  17
DOCKED: ATOM     17  C   UNL     1     137.530  73.283 221.684 -0.09 -0.06    +0.219 C  
DOCKED: ATOM     18  O   UNL     1     137.599  72.457 220.735 -0.02 +0.06    -0.289 OA 
DOCKED: BRANCH  17  19
DOCKED: ATOM     19  C   UNL     1     138.664  74.178 221.945 -0.12 -0.08    +0.284 A  
DOCKED: ATOM     20  N   UNL     1     139.940  73.763 222.062 -0.80 +0.01    -0.104 NA 
DOCKED: ATOM     21  O   UNL     1     138.567  75.476 222.107 -0.18 +0.10    -0.411 OA 
DOCKED: ATOM     22  N   UNL     1     140.660  74.847 222.308 -0.53 -0.00    -0.104 NA 
DOCKED: ATOM     23  C   UNL     1     139.793  75.879 222.335 -0.21 -0.05    +0.284 A  
DOCKED: BRANCH  23  24
DOCKED: ATOM     24  C   UNL     1     140.165  77.274 222.609 -0.24 -0.05    +0.199 A  
DOCKED: ATOM     25  N   UNL     1     139.221  78.134 223.079 -0.20 +0.03    -0.183 NA 
DOCKED: ATOM     26  N   UNL     1     141.443  77.710 222.416 -0.16 +0.17    -0.339 N  
DOCKED: ATOM     27  C   UNL     1     139.525  79.428 223.359 -0.23 -0.05    +0.309 A  
DOCKED: ATOM     28  C   UNL     1     141.786  78.999 222.685 -0.45 -0.05    +0.129 A  
DOCKED: ATOM     29  C   UNL     1     140.828  79.890 223.166 -0.34 -0.04    +0.206 A  
DOCKED: ATOM     30  H   UNL     1     142.179  77.060 222.060 -0.47 -0.17    +0.168 HD 
DOCKED: ATOM     31  O   UNL     1     138.632  80.201 223.791 -0.27 +0.03    -0.264 OA 
DOCKED: ATOM     32  F   UNL     1     141.159  81.179 223.435 -0.14 +0.03    -0.199 F  
DOCKED: ENDBRANCH  23  24
DOCKED: ENDBRANCH  17  19
DOCKED: ENDBRANCH  16  17
DOCKED: ENDBRANCH  15  16
DOCKED: ENDBRANCH   1  15
DOCKED: TORSDOF 11
DOCKED: TER
DOCKED: ENDMDL
________________________________________________________________________________


    FINAL DOCKED STATE:
    ________________________


Run:   7 / 20
Time taken for this run:   0.026s

DOCKED: MODEL        7
DOCKED: USER    Run = 7
DOCKED: USER
DOCKED: USER    Estimated Free Energy of Binding    =  -4.33 kcal/mol  [=(1)+(2)+(3)-(4)]
DOCKED: USER
DOCKED: USER    (1) Final Intermolecular Energy     =  -7.61 kcal/mol
DOCKED: USER        vdW + Hbond + desolv Energy     =  -7.73 kcal/mol
DOCKED: USER        Electrostatic Energy            =  +0.11 kcal/mol
DOCKED: USER        Moving Ligand-Fixed Receptor    =  -7.61 kcal/mol
DOCKED: USER        Moving Ligand-Moving Receptor   =  +0.00 kcal/mol
DOCKED: USER    (2) Final Total Internal Energy     =  -4.77 kcal/mol
DOCKED: USER    (3) Torsional Free Energy           =  +3.28 kcal/mol
DOCKED: USER    (4) Unbound System's Energy         =  -4.77 kcal/mol
DOCKED: USER
DOCKED: USER
DOCKED: REMARK SMILES O=C(CCCC/C=C(/O)Nc1ccccc1)c1nnc(-c2nc(=O)c(F)c[nH]2)o1
DOCKED: REMARK SMILES IDX 5 1 6 2 7 3 8 4 9 5 10 7 11 9 12 10 16 11 13 12 15 13 14 14
DOCKED: REMARK SMILES IDX 4 15 3 16 2 17 1 18 17 19 18 20 29 21 19 22 20 23 21 24
DOCKED: REMARK SMILES IDX 22 25 28 26 23 27 27 28 25 29 24 31 26 32
DOCKED: REMARK H PARENT 9 6 10 8 28 30
DOCKED: USER                              x       y       z     vdW  Elec       q    Type
DOCKED: USER                           _______ _______ _______ _____ _____    ______ ____
DOCKED: ROOT
DOCKED: ATOM      1  C   UNL     1     139.766  78.721 219.983 -0.11 -0.00    +0.005 C  
DOCKED: ENDROOT
DOCKED: BRANCH   1   2
DOCKED: ATOM      2  C   UNL     1     139.398  77.313 219.487 -0.06 -0.01    +0.033 C  
DOCKED: BRANCH   2   3
DOCKED: ATOM      3  C   UNL     1     139.206  76.365 220.645 -0.13 -0.01    +0.039 C  
DOCKED: BRANCH   3   4
DOCKED: ATOM      4  C   UNL     1     139.951  76.366 221.764 -0.27 -0.04    +0.184 C  
DOCKED: BRANCH   4   5
DOCKED: ATOM      5  O   UNL     1     139.497  75.686 222.894 -0.20 +0.07    -0.495 OA 
DOCKED: ATOM      6  H   UNL     1     139.566  74.678 222.981 -0.36 -0.01    +0.295 HD 
DOCKED: ENDBRANCH   4   5
DOCKED: BRANCH   4   7
DOCKED: ATOM      7  N   UNL     1     141.193  77.077 221.856 -0.16 +0.15    -0.327 N  
DOCKED: ATOM      8  H   UNL     1     141.968  76.740 221.242 -0.37 -0.12    +0.170 HD 
DOCKED: BRANCH   7   9
DOCKED: ATOM      9  C   UNL     1     141.349  78.358 222.496 -0.45 -0.02    +0.041 A  
DOCKED: ATOM     10  C   UNL     1     142.562  79.053 222.355 -0.40 -0.02    +0.026 A  
DOCKED: ATOM     11  C   UNL     1     140.305  78.953 223.235 -0.42 -0.01    +0.026 A  
DOCKED: ATOM     12  C   UNL     1     142.743  80.298 222.964 -0.65 -0.00    +0.002 A  
DOCKED: ATOM     13  C   UNL     1     140.490  80.199 223.841 -0.44 -0.00    +0.002 A  
DOCKED: ATOM     14  C   UNL     1     141.709  80.871 223.708 -0.59 -0.00    +0.000 A  
DOCKED: ENDBRANCH   7   9
DOCKED: ENDBRANCH   4   7
DOCKED: ENDBRANCH   3   4
DOCKED: ENDBRANCH   2   3
DOCKED: ENDBRANCH   1   2
DOCKED: BRANCH   1  15
DOCKED: ATOM     15  C   UNL     1     141.069  79.254 219.345 -0.21 -0.00    +0.009 C  
DOCKED: BRANCH  15  16
DOCKED: ATOM     16  C   UNL     1     141.336  78.694 217.938 -0.15 -0.05    +0.086 C  
DOCKED: BRANCH  16  17
DOCKED: ATOM     17  C   UNL     1     142.485  77.726 217.903 -0.22 -0.16    +0.219 C  
DOCKED: ATOM     18  O   UNL     1     143.357  77.832 216.999 -0.20 +0.31    -0.289 OA 
DOCKED: BRANCH  17  19
DOCKED: ATOM     19  C   UNL     1     142.602  76.652 218.897 -0.20 -0.16    +0.284 A  
DOCKED: ATOM     20  N   UNL     1     143.640  76.521 219.745 -0.34 +0.08    -0.104 NA 
DOCKED: ATOM     21  O   UNL     1     141.725  75.692 219.064 -0.03 +0.16    -0.411 OA 
DOCKED: ATOM     22  N   UNL     1     143.394  75.437 220.465 -0.13 +0.06    -0.104 NA 
DOCKED: ATOM     23  C   UNL     1     142.219  74.948 220.023 -0.15 -0.10    +0.284 A  
DOCKED: BRANCH  23  24
DOCKED: ATOM     24  C   UNL     1     141.581  73.724 220.528 -0.16 -0.04    +0.199 A  
DOCKED: ATOM     25  N   UNL     1     141.093  73.704 221.798 -0.51 +0.01    -0.183 NA 
DOCKED: ATOM     26  N   UNL     1     141.458  72.619 219.737 -0.02 +0.06    -0.339 N  
DOCKED: ATOM     27  C   UNL     1     140.483  72.598 222.299 -0.19 -0.03    +0.309 A  
DOCKED: ATOM     28  C   UNL     1     140.853  71.494 220.204 -0.09 -0.02    +0.129 A  
DOCKED: ATOM     29  C   UNL     1     140.350  71.460 221.503 -0.14 -0.03    +0.206 A  
DOCKED: ATOM     30  H   UNL     1     141.824  72.623 218.759 +0.04 -0.03    +0.168 HD 
DOCKED: ATOM     31  O   UNL     1     140.042  72.607 223.478 -0.39 +0.04    -0.264 OA 
DOCKED: ATOM     32  F   UNL     1     139.747  70.340 221.979 -0.04 +0.03    -0.199 F  
DOCKED: ENDBRANCH  23  24
DOCKED: ENDBRANCH  17  19
DOCKED: ENDBRANCH  16  17
DOCKED: ENDBRANCH  15  16
DOCKED: ENDBRANCH   1  15
DOCKED: TORSDOF 11
DOCKED: TER
DOCKED: ENDMDL
________________________________________________________________________________


    FINAL DOCKED STATE:
    ________________________


Run:   8 / 20
Time taken for this run:   0.026s

DOCKED: MODEL        8
DOCKED: USER    Run = 8
DOCKED: USER
DOCKED: USER    Estimated Free Energy of Binding    =  -6.72 kcal/mol  [=(1)+(2)+(3)-(4)]
DOCKED: USER
DOCKED: USER    (1) Final Intermolecular Energy     = -10.00 kcal/mol
DOCKED: USER        vdW + Hbond + desolv Energy     =  -9.89 kcal/mol
DOCKED: USER        Electrostatic Energy            =  -0.10 kcal/mol
DOCKED: USER        Moving Ligand-Fixed Receptor    = -10.00 kcal/mol
DOCKED: USER        Moving Ligand-Moving Receptor   =  +0.00 kcal/mol
DOCKED: USER    (2) Final Total Internal Energy     =  -2.80 kcal/mol
DOCKED: USER    (3) Torsional Free Energy           =  +3.28 kcal/mol
DOCKED: USER    (4) Unbound System's Energy         =  -2.80 kcal/mol
DOCKED: USER
DOCKED: USER
DOCKED: REMARK SMILES O=C(CCCC/C=C(/O)Nc1ccccc1)c1nnc(-c2nc(=O)c(F)c[nH]2)o1
DOCKED: REMARK SMILES IDX 5 1 6 2 7 3 8 4 9 5 10 7 11 9 12 10 16 11 13 12 15 13 14 14
DOCKED: REMARK SMILES IDX 4 15 3 16 2 17 1 18 17 19 18 20 29 21 19 22 20 23 21 24
DOCKED: REMARK SMILES IDX 22 25 28 26 23 27 27 28 25 29 24 31 26 32
DOCKED: REMARK H PARENT 9 6 10 8 28 30
DOCKED: USER                              x       y       z     vdW  Elec       q    Type
DOCKED: USER                           _______ _______ _______ _____ _____    ______ ____
DOCKED: ROOT
DOCKED: ATOM      1  C   UNL     1     139.476  75.362 219.167 -0.05 -0.00    +0.005 C  
DOCKED: ENDROOT
DOCKED: BRANCH   1   2
DOCKED: ATOM      2  C   UNL     1     139.615  76.833 219.591 -0.07 -0.01    +0.033 C  
DOCKED: BRANCH   2   3
DOCKED: ATOM      3  C   UNL     1     139.098  77.043 220.993 -0.16 -0.01    +0.039 C  
DOCKED: BRANCH   3   4
DOCKED: ATOM      4  C   UNL     1     139.720  76.621 222.107 -0.27 -0.04    +0.184 C  
DOCKED: BRANCH   4   5
DOCKED: ATOM      5  O   UNL     1     139.123  75.642 222.902 -0.21 +0.10    -0.495 OA 
DOCKED: ATOM      6  H   UNL     1     139.296  74.653 222.760 -0.34 -0.06    +0.295 HD 
DOCKED: ENDBRANCH   4   5
DOCKED: BRANCH   4   7
DOCKED: ATOM      7  N   UNL     1     140.973  77.169 222.538 -0.23 +0.12    -0.327 N  
DOCKED: ATOM      8  H   UNL     1     141.822  76.589 222.354 -0.49 -0.12    +0.170 HD 
DOCKED: BRANCH   7   9
DOCKED: ATOM      9  C   UNL     1     141.167  78.542 222.928 -0.49 -0.01    +0.041 A  
DOCKED: ATOM     10  C   UNL     1     142.474  79.030 223.097 -0.51 -0.01    +0.026 A  
DOCKED: ATOM     11  C   UNL     1     140.082  79.424 223.113 -0.40 -0.01    +0.026 A  
DOCKED: ATOM     12  C   UNL     1     142.694  80.358 223.474 -0.68 -0.00    +0.002 A  
DOCKED: ATOM     13  C   UNL     1     140.307  80.752 223.488 -0.44 -0.00    +0.002 A  
DOCKED: ATOM     14  C   UNL     1     141.612  81.218 223.672 -0.57 -0.00    +0.000 A  
DOCKED: ENDBRANCH   7   9
DOCKED: ENDBRANCH   4   7
DOCKED: ENDBRANCH   3   4
DOCKED: ENDBRANCH   2   3
DOCKED: ENDBRANCH   1   2
DOCKED: BRANCH   1  15
DOCKED: ATOM     15  C   UNL     1     140.821  74.602 219.208 -0.09 -0.00    +0.009 C  
DOCKED: BRANCH  15  16
DOCKED: ATOM     16  C   UNL     1     140.769  73.308 220.036 -0.11 -0.02    +0.086 C  
DOCKED: BRANCH  16  17
DOCKED: ATOM     17  C   UNL     1     140.796  73.561 221.517 -0.21 -0.02    +0.219 C  
DOCKED: ATOM     18  O   UNL     1     141.435  74.551 221.967 -0.40 +0.02    -0.289 OA 
DOCKED: BRANCH  17  19
DOCKED: ATOM     19  C   UNL     1     140.101  72.668 222.452 -0.19 -0.04    +0.284 A  
DOCKED: ATOM     20  N   UNL     1     138.773  72.441 222.431 -0.18 +0.03    -0.104 NA 
DOCKED: ATOM     21  O   UNL     1     140.683  72.001 223.419 -0.26 +0.03    -0.411 OA 
DOCKED: ATOM     22  N   UNL     1     138.526  71.602 223.426 -0.18 +0.03    -0.104 NA 
DOCKED: ATOM     23  C   UNL     1     139.712  71.355 224.015 -0.25 -0.06    +0.284 A  
DOCKED: BRANCH  23  24
DOCKED: ATOM     24  C   UNL     1     139.895  70.493 225.192 -0.34 -0.03    +0.199 A  
DOCKED: ATOM     25  N   UNL     1     139.451  69.207 225.151 -0.26 +0.03    -0.183 NA 
DOCKED: ATOM     26  N   UNL     1     140.519  70.959 226.312 -0.28 +0.05    -0.339 N  
DOCKED: ATOM     27  C   UNL     1     139.613  68.373 226.211 -0.34 -0.04    +0.309 A  
DOCKED: ATOM     28  C   UNL     1     140.700  70.154 227.393 -0.50 -0.02    +0.129 A  
DOCKED: ATOM     29  C   UNL     1     140.248  68.835 227.364 -0.46 -0.04    +0.206 A  
DOCKED: ATOM     30  H   UNL     1     140.869  71.943 226.355 +0.11 -0.03    +0.168 HD 
DOCKED: ATOM     31  O   UNL     1     139.191  67.190 226.146 -0.87 -0.00    -0.264 OA 
DOCKED: ATOM     32  F   UNL     1     140.422  68.024 228.439 -0.18 +0.06    -0.199 F  
DOCKED: ENDBRANCH  23  24
DOCKED: ENDBRANCH  17  19
DOCKED: ENDBRANCH  16  17
DOCKED: ENDBRANCH  15  16
DOCKED: ENDBRANCH   1  15
DOCKED: TORSDOF 11
DOCKED: TER
DOCKED: ENDMDL
________________________________________________________________________________


    FINAL DOCKED STATE:
    ________________________


Run:   9 / 20
Time taken for this run:   0.026s

DOCKED: MODEL        9
DOCKED: USER    Run = 9
DOCKED: USER
DOCKED: USER    Estimated Free Energy of Binding    =  -6.31 kcal/mol  [=(1)+(2)+(3)-(4)]
DOCKED: USER
DOCKED: USER    (1) Final Intermolecular Energy     =  -9.59 kcal/mol
DOCKED: USER        vdW + Hbond + desolv Energy     =  -9.42 kcal/mol
DOCKED: USER        Electrostatic Energy            =  -0.17 kcal/mol
DOCKED: USER        Moving Ligand-Fixed Receptor    =  -9.59 kcal/mol
DOCKED: USER        Moving Ligand-Moving Receptor   =  +0.00 kcal/mol
DOCKED: USER    (2) Final Total Internal Energy     =  -2.76 kcal/mol
DOCKED: USER    (3) Torsional Free Energy           =  +3.28 kcal/mol
DOCKED: USER    (4) Unbound System's Energy         =  -2.76 kcal/mol
DOCKED: USER
DOCKED: USER
DOCKED: REMARK SMILES O=C(CCCC/C=C(/O)Nc1ccccc1)c1nnc(-c2nc(=O)c(F)c[nH]2)o1
DOCKED: REMARK SMILES IDX 5 1 6 2 7 3 8 4 9 5 10 7 11 9 12 10 16 11 13 12 15 13 14 14
DOCKED: REMARK SMILES IDX 4 15 3 16 2 17 1 18 17 19 18 20 29 21 19 22 20 23 21 24
DOCKED: REMARK SMILES IDX 22 25 28 26 23 27 27 28 25 29 24 31 26 32
DOCKED: REMARK H PARENT 9 6 10 8 28 30
DOCKED: USER                              x       y       z     vdW  Elec       q    Type
DOCKED: USER                           _______ _______ _______ _____ _____    ______ ____
DOCKED: ROOT
DOCKED: ATOM      1  C   UNL     1     137.073  70.428 223.977 -0.24 -0.00    +0.005 C  
DOCKED: ENDROOT
DOCKED: BRANCH   1   2
DOCKED: ATOM      2  C   UNL     1     138.302  69.690 223.420 -0.25 -0.01    +0.033 C  
DOCKED: BRANCH   2   3
DOCKED: ATOM      3  C   UNL     1     139.361  70.667 222.971 -0.26 -0.01    +0.039 C  
DOCKED: BRANCH   3   4
DOCKED: ATOM      4  C   UNL     1     140.263  71.241 223.785 -0.30 -0.03    +0.184 C  
DOCKED: BRANCH   4   5
DOCKED: ATOM      5  O   UNL     1     140.506  72.612 223.687 -0.06 +0.02    -0.495 OA 
DOCKED: ATOM      6  H   UNL     1     139.795  73.263 223.371 -0.30 -0.05    +0.295 HD 
DOCKED: ENDBRANCH   4   5
DOCKED: BRANCH   4   7
DOCKED: ATOM      7  N   UNL     1     141.023  70.487 224.739 -0.12 +0.04    -0.327 N  
DOCKED: ATOM      8  H   UNL     1     142.040  70.368 224.533 +0.14 -0.01    +0.170 HD 
DOCKED: BRANCH   7   9
DOCKED: ATOM      9  C   UNL     1     140.558  70.145 226.059 -0.51 -0.01    +0.041 A  
DOCKED: ATOM     10  C   UNL     1     140.317  68.798 226.373 -0.55 -0.00    +0.026 A  
DOCKED: ATOM     11  C   UNL     1     140.370  71.123 227.058 -0.63 -0.00    +0.026 A  
DOCKED: ATOM     12  C   UNL     1     139.866  68.434 227.646 -0.63 -0.00    +0.002 A  
DOCKED: ATOM     13  C   UNL     1     139.921  70.754 228.330 -0.62 -0.00    +0.002 A  
DOCKED: ATOM     14  C   UNL     1     139.666  69.411 228.623 -0.55 -0.00    +0.000 A  
DOCKED: ENDBRANCH   7   9
DOCKED: ENDBRANCH   4   7
DOCKED: ENDBRANCH   3   4
DOCKED: ENDBRANCH   2   3
DOCKED: ENDBRANCH   1   2
DOCKED: BRANCH   1  15
DOCKED: ATOM     15  C   UNL     1     136.332  71.247 222.897 -0.14 -0.00    +0.009 C  
DOCKED: BRANCH  15  16
DOCKED: ATOM     16  C   UNL     1     136.466  72.767 223.081 -0.10 -0.03    +0.086 C  
DOCKED: BRANCH  16  17
DOCKED: ATOM     17  C   UNL     1     137.041  73.454 221.875 -0.09 -0.06    +0.219 C  
DOCKED: ATOM     18  O   UNL     1     136.486  73.304 220.752 -0.02 +0.06    -0.289 OA 
DOCKED: BRANCH  17  19
DOCKED: ATOM     19  C   UNL     1     138.245  74.287 221.978 -0.10 -0.09    +0.284 A  
DOCKED: ATOM     20  N   UNL     1     139.496  73.833 221.772 -0.43 +0.02    -0.104 NA 
DOCKED: ATOM     21  O   UNL     1     138.245  75.560 222.294 -0.17 +0.11    -0.411 OA 
DOCKED: ATOM     22  N   UNL     1     140.301  74.866 221.970 -0.75 +0.01    -0.104 NA 
DOCKED: ATOM     23  C   UNL     1     139.509  75.907 222.293 -0.22 -0.05    +0.284 A  
DOCKED: BRANCH  23  24
DOCKED: ATOM     24  C   UNL     1     139.995  77.253 222.627 -0.22 -0.04    +0.199 A  
DOCKED: ATOM     25  N   UNL     1     139.112  78.187 223.075 -0.20 +0.03    -0.183 NA 
DOCKED: ATOM     26  N   UNL     1     141.316  77.571 222.510 -0.17 +0.16    -0.339 N  
DOCKED: ATOM     27  C   UNL     1     139.521  79.438 223.409 -0.23 -0.05    +0.309 A  
DOCKED: ATOM     28  C   UNL     1     141.764  78.814 222.835 -0.44 -0.05    +0.129 A  
DOCKED: ATOM     29  C   UNL     1     140.869  79.779 223.295 -0.36 -0.04    +0.206 A  
DOCKED: ATOM     30  H   UNL     1     142.005  76.863 222.172 -0.48 -0.15    +0.168 HD 
DOCKED: ATOM     31  O   UNL     1     138.682  80.282 223.819 -0.28 +0.03    -0.264 OA 
DOCKED: ATOM     32  F   UNL     1     141.305  81.024 223.619 -0.15 +0.03    -0.199 F  
DOCKED: ENDBRANCH  23  24
DOCKED: ENDBRANCH  17  19
DOCKED: ENDBRANCH  16  17
DOCKED: ENDBRANCH  15  16
DOCKED: ENDBRANCH   1  15
DOCKED: TORSDOF 11
DOCKED: TER
DOCKED: ENDMDL
________________________________________________________________________________


    FINAL DOCKED STATE:
    ________________________


Run:   10 / 20
Time taken for this run:   0.026s

DOCKED: MODEL        10
DOCKED: USER    Run = 10
DOCKED: USER
DOCKED: USER    Estimated Free Energy of Binding    =  -5.91 kcal/mol  [=(1)+(2)+(3)-(4)]
DOCKED: USER
DOCKED: USER    (1) Final Intermolecular Energy     =  -9.20 kcal/mol
DOCKED: USER        vdW + Hbond + desolv Energy     =  -9.03 kcal/mol
DOCKED: USER        Electrostatic Energy            =  -0.17 kcal/mol
DOCKED: USER        Moving Ligand-Fixed Receptor    =  -9.20 kcal/mol
DOCKED: USER        Moving Ligand-Moving Receptor   =  +0.00 kcal/mol
DOCKED: USER    (2) Final Total Internal Energy     =  -3.01 kcal/mol
DOCKED: USER    (3) Torsional Free Energy           =  +3.28 kcal/mol
DOCKED: USER    (4) Unbound System's Energy         =  -3.01 kcal/mol
DOCKED: USER
DOCKED: USER
DOCKED: REMARK SMILES O=C(CCCC/C=C(/O)Nc1ccccc1)c1nnc(-c2nc(=O)c(F)c[nH]2)o1
DOCKED: REMARK SMILES IDX 5 1 6 2 7 3 8 4 9 5 10 7 11 9 12 10 16 11 13 12 15 13 14 14
DOCKED: REMARK SMILES IDX 4 15 3 16 2 17 1 18 17 19 18 20 29 21 19 22 20 23 21 24
DOCKED: REMARK SMILES IDX 22 25 28 26 23 27 27 28 25 29 24 31 26 32
DOCKED: REMARK H PARENT 9 6 10 8 28 30
DOCKED: USER                              x       y       z     vdW  Elec       q    Type
DOCKED: USER                           _______ _______ _______ _____ _____    ______ ____
DOCKED: ROOT
DOCKED: ATOM      1  C   UNL     1     137.516  70.210 220.769 -0.05 -0.00    +0.005 C  
DOCKED: ENDROOT
DOCKED: BRANCH   1   2
DOCKED: ATOM      2  C   UNL     1     137.966  70.176 222.239 -0.13 -0.01    +0.033 C  
DOCKED: BRANCH   2   3
DOCKED: ATOM      3  C   UNL     1     139.472  70.153 222.343 -0.17 -0.01    +0.039 C  
DOCKED: BRANCH   3   4
DOCKED: ATOM      4  C   UNL     1     140.229  71.208 222.688 -0.20 -0.03    +0.184 C  
DOCKED: BRANCH   4   5
DOCKED: ATOM      5  O   UNL     1     141.263  71.620 221.847 -0.07 +0.04    -0.495 OA 
DOCKED: ATOM      6  H   UNL     1     141.344  72.577 221.521 +0.11 -0.03    +0.295 HD 
DOCKED: ENDBRANCH   4   5
DOCKED: BRANCH   4   7
DOCKED: ATOM      7  N   UNL     1     140.038  71.917 223.921 -0.20 +0.06    -0.327 N  
DOCKED: ATOM      8  H   UNL     1     139.594  72.860 223.850 -0.28 -0.07    +0.170 HD 
DOCKED: BRANCH   7   9
DOCKED: ATOM      9  C   UNL     1     140.145  71.318 225.226 -0.48 -0.01    +0.041 A  
DOCKED: ATOM     10  C   UNL     1     140.946  71.935 226.201 -0.57 -0.00    +0.026 A  
DOCKED: ATOM     11  C   UNL     1     139.439  70.145 225.566 -0.41 -0.00    +0.026 A  
DOCKED: ATOM     12  C   UNL     1     141.069  71.378 227.477 -0.76 -0.00    +0.002 A  
DOCKED: ATOM     13  C   UNL     1     139.564  69.593 226.845 -0.52 -0.00    +0.002 A  
DOCKED: ATOM     14  C   UNL     1     140.381  70.207 227.799 -0.64 -0.00    +0.000 A  
DOCKED: ENDBRANCH   7   9
DOCKED: ENDBRANCH   4   7
DOCKED: ENDBRANCH   3   4
DOCKED: ENDBRANCH   2   3
DOCKED: ENDBRANCH   1   2
DOCKED: BRANCH   1  15
DOCKED: ATOM     15  C   UNL     1     136.649  71.447 220.442 -0.02 -0.00    +0.009 C  
DOCKED: BRANCH  15  16
DOCKED: ATOM     16  C   UNL     1     137.461  72.745 220.304 -0.04 -0.02    +0.086 C  
DOCKED: BRANCH  16  17
DOCKED: ATOM     17  C   UNL     1     137.491  73.553 221.570 -0.09 -0.06    +0.219 C  
DOCKED: ATOM     18  O   UNL     1     136.518  73.490 222.370 -0.09 +0.08    -0.289 OA 
DOCKED: BRANCH  17  19
DOCKED: ATOM     19  C   UNL     1     138.628  74.426 221.887 -0.13 -0.08    +0.284 A  
DOCKED: ATOM     20  N   UNL     1     139.896  73.992 222.019 -0.81 +0.01    -0.104 NA 
DOCKED: ATOM     21  O   UNL     1     138.543  75.718 222.090 -0.16 +0.10    -0.411 OA 
DOCKED: ATOM     22  N   UNL     1     140.623  75.058 222.317 -0.52 +0.00    -0.104 NA 
DOCKED: ATOM     23  C   UNL     1     139.767  76.099 222.359 -0.22 -0.05    +0.284 A  
DOCKED: BRANCH  23  24
DOCKED: ATOM     24  C   UNL     1     140.148  77.480 222.688 -0.24 -0.05    +0.199 A  
DOCKED: ATOM     25  N   UNL     1     139.190  78.353 223.101 -0.22 +0.03    -0.183 NA 
DOCKED: ATOM     26  N   UNL     1     141.447  77.889 222.602 -0.21 +0.16    -0.339 N  
DOCKED: ATOM     27  C   UNL     1     139.501  79.634 223.429 -0.23 -0.05    +0.309 A  
DOCKED: ATOM     28  C   UNL     1     141.796  79.164 222.922 -0.47 -0.05    +0.129 A  
DOCKED: ATOM     29  C   UNL     1     140.824  80.069 223.346 -0.35 -0.04    +0.206 A  
DOCKED: ATOM     30  H   UNL     1     142.192  77.227 222.290 -0.44 -0.17    +0.168 HD 
DOCKED: ATOM     31  O   UNL     1     138.594  80.421 223.807 -0.27 +0.03    -0.264 OA 
DOCKED: ATOM     32  F   UNL     1     141.163  81.344 223.665 -0.14 +0.02    -0.199 F  
DOCKED: ENDBRANCH  23  24
DOCKED: ENDBRANCH  17  19
DOCKED: ENDBRANCH  16  17
DOCKED: ENDBRANCH  15  16
DOCKED: ENDBRANCH   1  15
DOCKED: TORSDOF 11
DOCKED: TER
DOCKED: ENDMDL
________________________________________________________________________________


    FINAL DOCKED STATE:
    ________________________


Run:   11 / 20
Time taken for this run:   0.026s

DOCKED: MODEL        11
DOCKED: USER    Run = 11
DOCKED: USER
DOCKED: USER    Estimated Free Energy of Binding    =  -3.08 kcal/mol  [=(1)+(2)+(3)-(4)]
DOCKED: USER
DOCKED: USER    (1) Final Intermolecular Energy     =  -6.36 kcal/mol
DOCKED: USER        vdW + Hbond + desolv Energy     =  -6.32 kcal/mol
DOCKED: USER        Electrostatic Energy            =  -0.04 kcal/mol
DOCKED: USER        Moving Ligand-Fixed Receptor    =  -6.36 kcal/mol
DOCKED: USER        Moving Ligand-Moving Receptor   =  +0.00 kcal/mol
DOCKED: USER    (2) Final Total Internal Energy     =  -5.18 kcal/mol
DOCKED: USER    (3) Torsional Free Energy           =  +3.28 kcal/mol
DOCKED: USER    (4) Unbound System's Energy         =  -5.18 kcal/mol
DOCKED: USER
DOCKED: USER
DOCKED: REMARK SMILES O=C(CCCC/C=C(/O)Nc1ccccc1)c1nnc(-c2nc(=O)c(F)c[nH]2)o1
DOCKED: REMARK SMILES IDX 5 1 6 2 7 3 8 4 9 5 10 7 11 9 12 10 16 11 13 12 15 13 14 14
DOCKED: REMARK SMILES IDX 4 15 3 16 2 17 1 18 17 19 18 20 29 21 19 22 20 23 21 24
DOCKED: REMARK SMILES IDX 22 25 28 26 23 27 27 28 25 29 24 31 26 32
DOCKED: REMARK H PARENT 9 6 10 8 28 30
DOCKED: USER                              x       y       z     vdW  Elec       q    Type
DOCKED: USER                           _______ _______ _______ _____ _____    ______ ____
DOCKED: ROOT
DOCKED: ATOM      1  C   UNL     1     143.381  82.404 216.758 -0.36 -0.00    +0.005 C  
DOCKED: ENDROOT
DOCKED: BRANCH   1   2
DOCKED: ATOM      2  C   UNL     1     142.562  81.105 216.826 -0.16 -0.04    +0.033 C  
DOCKED: BRANCH   2   3
DOCKED: ATOM      3  C   UNL     1     142.453  80.608 218.247 -0.32 -0.03    +0.039 C  
DOCKED: BRANCH   3   4
DOCKED: ATOM      4  C   UNL     1     141.384  80.792 219.039 -0.19 -0.08    +0.184 C  
DOCKED: BRANCH   4   5
DOCKED: ATOM      5  O   UNL     1     140.108  80.506 218.554 +0.00 +0.18    -0.495 OA 
DOCKED: ATOM      6  H   UNL     1     139.441  81.236 218.329 +0.04 -0.09    +0.295 HD 
DOCKED: ENDBRANCH   4   5
DOCKED: BRANCH   4   7
DOCKED: ATOM      7  N   UNL     1     141.499  81.313 220.372 -0.15 +0.11    -0.327 N  
DOCKED: ATOM      8  H   UNL     1     141.258  82.321 220.499 +0.06 -0.04    +0.170 HD 
DOCKED: BRANCH   7   9
DOCKED: ATOM      9  C   UNL     1     141.636  80.498 221.552 -0.39 -0.01    +0.041 A  
DOCKED: ATOM     10  C   UNL     1     141.188  79.167 221.521 -0.34 -0.01    +0.026 A  
DOCKED: ATOM     11  C   UNL     1     142.238  80.988 222.729 -0.54 -0.01    +0.026 A  
DOCKED: ATOM     12  C   UNL     1     141.307  78.350 222.650 -0.49 -0.00    +0.002 A  
DOCKED: ATOM     13  C   UNL     1     142.357  80.167 223.855 -0.65 -0.00    +0.002 A  
DOCKED: ATOM     14  C   UNL     1     141.889  78.850 223.817 -0.61 -0.00    +0.000 A  
DOCKED: ENDBRANCH   7   9
DOCKED: ENDBRANCH   4   7
DOCKED: ENDBRANCH   3   4
DOCKED: ENDBRANCH   2   3
DOCKED: ENDBRANCH   1   2
DOCKED: BRANCH   1  15
DOCKED: ATOM     15  C   UNL     1     142.771  83.536 217.615 -0.21 -0.00    +0.009 C  
DOCKED: BRANCH  15  16
DOCKED: ATOM     16  C   UNL     1     141.455  84.092 217.050 -0.11 -0.03    +0.086 C  
DOCKED: BRANCH  16  17
DOCKED: ATOM     17  C   UNL     1     140.240  83.488 217.695 -0.05 -0.06    +0.219 C  
DOCKED: ATOM     18  O   UNL     1     139.369  82.929 216.974 -0.01 +0.08    -0.289 OA 
DOCKED: BRANCH  17  19
DOCKED: ATOM     19  C   UNL     1     140.043  83.547 219.148 -0.07 -0.07    +0.284 A  
DOCKED: ATOM     20  N   UNL     1     140.734  84.360 219.970 -0.15 +0.02    -0.104 NA 
DOCKED: ATOM     21  O   UNL     1     139.189  82.810 219.815 -0.02 +0.09    -0.411 OA 
DOCKED: ATOM     22  N   UNL     1     140.290  84.116 221.193 -0.21 +0.02    -0.104 NA 
DOCKED: ATOM     23  C   UNL     1     139.348  83.159 221.068 -0.11 -0.05    +0.284 A  
DOCKED: BRANCH  23  24
DOCKED: ATOM     24  C   UNL     1     138.611  82.563 222.191 -0.07 -0.02    +0.199 A  
DOCKED: ATOM     25  N   UNL     1     139.070  81.410 222.751 -0.17 +0.02    -0.183 NA 
DOCKED: ATOM     26  N   UNL     1     137.487  83.157 222.687 -0.05 +0.03    -0.339 N  
DOCKED: ATOM     27  C   UNL     1     138.427  80.833 223.799 -0.22 -0.03    +0.309 A  
DOCKED: ATOM     28  C   UNL     1     136.817  82.608 223.736 -0.14 -0.01    +0.129 A  
DOCKED: ATOM     29  C   UNL     1     137.276  81.428 224.317 -0.23 -0.02    +0.206 A  
DOCKED: ATOM     30  H   UNL     1     137.127  84.044 222.269 +0.03 -0.02    +0.168 HD 
DOCKED: ATOM     31  O   UNL     1     138.873  79.767 224.296 -0.30 +0.03    -0.264 OA 
DOCKED: ATOM     32  F   UNL     1     136.612  80.872 225.363 -0.11 +0.02    -0.199 F  
DOCKED: ENDBRANCH  23  24
DOCKED: ENDBRANCH  17  19
DOCKED: ENDBRANCH  16  17
DOCKED: ENDBRANCH  15  16
DOCKED: ENDBRANCH   1  15
DOCKED: TORSDOF 11
DOCKED: TER
DOCKED: ENDMDL
________________________________________________________________________________


    FINAL DOCKED STATE:
    ________________________


Run:   12 / 20
Time taken for this run:   0.026s

DOCKED: MODEL        12
DOCKED: USER    Run = 12
DOCKED: USER
DOCKED: USER    Estimated Free Energy of Binding    =  -7.20 kcal/mol  [=(1)+(2)+(3)-(4)]
DOCKED: USER
DOCKED: USER    (1) Final Intermolecular Energy     = -10.48 kcal/mol
DOCKED: USER        vdW + Hbond + desolv Energy     = -10.25 kcal/mol
DOCKED: USER        Electrostatic Energy            =  -0.23 kcal/mol
DOCKED: USER        Moving Ligand-Fixed Receptor    = -10.48 kcal/mol
DOCKED: USER        Moving Ligand-Moving Receptor   =  +0.00 kcal/mol
DOCKED: USER    (2) Final Total Internal Energy     =  -1.32 kcal/mol
DOCKED: USER    (3) Torsional Free Energy           =  +3.28 kcal/mol
DOCKED: USER    (4) Unbound System's Energy         =  -1.32 kcal/mol
DOCKED: USER
DOCKED: USER
DOCKED: REMARK SMILES O=C(CCCC/C=C(/O)Nc1ccccc1)c1nnc(-c2nc(=O)c(F)c[nH]2)o1
DOCKED: REMARK SMILES IDX 5 1 6 2 7 3 8 4 9 5 10 7 11 9 12 10 16 11 13 12 15 13 14 14
DOCKED: REMARK SMILES IDX 4 15 3 16 2 17 1 18 17 19 18 20 29 21 19 22 20 23 21 24
DOCKED: REMARK SMILES IDX 22 25 28 26 23 27 27 28 25 29 24 31 26 32
DOCKED: REMARK H PARENT 9 6 10 8 28 30
DOCKED: USER                              x       y       z     vdW  Elec       q    Type
DOCKED: USER                           _______ _______ _______ _____ _____    ______ ____
DOCKED: ROOT
DOCKED: ATOM      1  C   UNL     1     137.946  70.370 222.804 -0.19 -0.00    +0.005 C  
DOCKED: ENDROOT
DOCKED: BRANCH   1   2
DOCKED: ATOM      2  C   UNL     1     137.933  68.934 223.354 -0.24 -0.00    +0.033 C  
DOCKED: BRANCH   2   3
DOCKED: ATOM      3  C   UNL     1     138.118  68.927 224.851 -0.33 -0.00    +0.039 C  
DOCKED: BRANCH   3   4
DOCKED: ATOM      4  C   UNL     1     139.070  68.233 225.499 -0.34 -0.01    +0.184 C  
DOCKED: BRANCH   4   5
DOCKED: ATOM      5  O   UNL     1     139.541  67.037 224.957 -0.63 -0.00    -0.495 OA 
DOCKED: ATOM      6  H   UNL     1     140.513  66.757 225.034 +0.09 -0.08    +0.295 HD 
DOCKED: ENDBRANCH   4   5
DOCKED: BRANCH   4   7
DOCKED: ATOM      7  N   UNL     1     139.604  68.660 226.761 -0.26 +0.05    -0.327 N  
DOCKED: ATOM      8  H   UNL     1     139.784  67.912 227.465 +0.02 -0.04    +0.170 HD 
DOCKED: BRANCH   7   9
DOCKED: ATOM      9  C   UNL     1     140.160  69.966 227.006 -0.54 -0.01    +0.041 A  
DOCKED: ATOM     10  C   UNL     1     139.953  70.576 228.254 -0.61 -0.00    +0.026 A  
DOCKED: ATOM     11  C   UNL     1     140.937  70.638 226.039 -0.58 -0.00    +0.026 A  
DOCKED: ATOM     12  C   UNL     1     140.481  71.843 228.523 -0.64 -0.00    +0.002 A  
DOCKED: ATOM     13  C   UNL     1     141.465  71.903 226.314 -0.64 -0.00    +0.002 A  
DOCKED: ATOM     14  C   UNL     1     141.234  72.507 227.553 -0.73 -0.00    +0.000 A  
DOCKED: ENDBRANCH   7   9
DOCKED: ENDBRANCH   4   7
DOCKED: ENDBRANCH   3   4
DOCKED: ENDBRANCH   2   3
DOCKED: ENDBRANCH   1   2
DOCKED: BRANCH   1  15
DOCKED: ATOM     15  C   UNL     1     136.634  71.131 223.099 -0.16 -0.00    +0.009 C  
DOCKED: BRANCH  15  16
DOCKED: ATOM     16  C   UNL     1     136.763  72.655 222.952 -0.06 -0.03    +0.086 C  
DOCKED: BRANCH  16  17
DOCKED: ATOM     17  C   UNL     1     137.635  73.059 221.796 -0.10 -0.06    +0.219 C  
DOCKED: ATOM     18  O   UNL     1     137.434  72.551 220.660 -0.02 +0.06    -0.289 OA 
DOCKED: BRANCH  17  19
DOCKED: ATOM     19  C   UNL     1     138.725  74.026 221.971 -0.12 -0.08    +0.284 A  
DOCKED: ATOM     20  N   UNL     1     140.032  73.700 221.951 -0.75 +0.01    -0.104 NA 
DOCKED: ATOM     21  O   UNL     1     138.557  75.309 222.179 -0.19 +0.11    -0.411 OA 
DOCKED: ATOM     22  N   UNL     1     140.697  74.827 222.156 -0.60 +0.00    -0.104 NA 
DOCKED: ATOM     23  C   UNL     1     139.769  75.793 222.297 -0.20 -0.05    +0.284 A  
DOCKED: BRANCH  23  24
DOCKED: ATOM     24  C   UNL     1     140.070  77.205 222.574 -0.24 -0.05    +0.199 A  
DOCKED: ATOM     25  N   UNL     1     139.079  78.019 223.030 -0.19 +0.03    -0.183 NA 
DOCKED: ATOM     26  N   UNL     1     141.328  77.702 222.396 -0.17 +0.16    -0.339 N  
DOCKED: ATOM     27  C   UNL     1     139.318  79.327 223.312 -0.21 -0.05    +0.309 A  
DOCKED: ATOM     28  C   UNL     1     141.605  79.006 222.668 -0.43 -0.05    +0.129 A  
DOCKED: ATOM     29  C   UNL     1     140.599  79.851 223.135 -0.32 -0.04    +0.206 A  
DOCKED: ATOM     30  H   UNL     1     142.098  77.087 222.051 -0.47 -0.16    +0.168 HD 
DOCKED: ATOM     31  O   UNL     1     138.383  80.057 223.731 -0.26 +0.03    -0.264 OA 
DOCKED: ATOM     32  F   UNL     1     140.865  81.154 223.406 -0.13 +0.03    -0.199 F  
DOCKED: ENDBRANCH  23  24
DOCKED: ENDBRANCH  17  19
DOCKED: ENDBRANCH  16  17
DOCKED: ENDBRANCH  15  16
DOCKED: ENDBRANCH   1  15
DOCKED: TORSDOF 11
DOCKED: TER
DOCKED: ENDMDL
________________________________________________________________________________


    FINAL DOCKED STATE:
    ________________________


Run:   13 / 20
Time taken for this run:   0.026s

DOCKED: MODEL        13
DOCKED: USER    Run = 13
DOCKED: USER
DOCKED: USER    Estimated Free Energy of Binding    =  -5.37 kcal/mol  [=(1)+(2)+(3)-(4)]
DOCKED: USER
DOCKED: USER    (1) Final Intermolecular Energy     =  -8.65 kcal/mol
DOCKED: USER        vdW + Hbond + desolv Energy     =  -8.57 kcal/mol
DOCKED: USER        Electrostatic Energy            =  -0.08 kcal/mol
DOCKED: USER        Moving Ligand-Fixed Receptor    =  -8.65 kcal/mol
DOCKED: USER        Moving Ligand-Moving Receptor   =  +0.00 kcal/mol
DOCKED: USER    (2) Final Total Internal Energy     =  -3.90 kcal/mol
DOCKED: USER    (3) Torsional Free Energy           =  +3.28 kcal/mol
DOCKED: USER    (4) Unbound System's Energy         =  -3.90 kcal/mol
DOCKED: USER
DOCKED: USER
DOCKED: REMARK SMILES O=C(CCCC/C=C(/O)Nc1ccccc1)c1nnc(-c2nc(=O)c(F)c[nH]2)o1
DOCKED: REMARK SMILES IDX 5 1 6 2 7 3 8 4 9 5 10 7 11 9 12 10 16 11 13 12 15 13 14 14
DOCKED: REMARK SMILES IDX 4 15 3 16 2 17 1 18 17 19 18 20 29 21 19 22 20 23 21 24
DOCKED: REMARK SMILES IDX 22 25 28 26 23 27 27 28 25 29 24 31 26 32
DOCKED: REMARK H PARENT 9 6 10 8 28 30
DOCKED: USER                              x       y       z     vdW  Elec       q    Type
DOCKED: USER                           _______ _______ _______ _____ _____    ______ ____
DOCKED: ROOT
DOCKED: ATOM      1  C   UNL     1     143.336  77.024 217.320 -0.22 -0.00    +0.005 C  
DOCKED: ENDROOT
DOCKED: BRANCH   1   2
DOCKED: ATOM      2  C   UNL     1     141.969  77.676 217.589 -0.20 -0.02    +0.033 C  
DOCKED: BRANCH   2   3
DOCKED: ATOM      3  C   UNL     1     141.981  78.439 218.891 -0.26 -0.03    +0.039 C  
DOCKED: BRANCH   3   4
DOCKED: ATOM      4  C   UNL     1     141.176  78.178 219.935 -0.17 -0.09    +0.184 C  
DOCKED: BRANCH   4   5
DOCKED: ATOM      5  O   UNL     1     139.803  78.042 219.730 +0.02 +0.16    -0.495 OA 
DOCKED: ATOM      6  H   UNL     1     139.245  77.372 220.248 +0.07 -0.08    +0.295 HD 
DOCKED: ENDBRANCH   4   5
DOCKED: BRANCH   4   7
DOCKED: ATOM      7  N   UNL     1     141.673  78.070 221.276 -0.15 +0.19    -0.327 N  
DOCKED: ATOM      8  H   UNL     1     142.177  77.187 221.514 -0.47 -0.15    +0.170 HD 
DOCKED: BRANCH   7   9
DOCKED: ATOM      9  C   UNL     1     141.775  79.174 222.195 -0.46 -0.02    +0.041 A  
DOCKED: ATOM     10  C   UNL     1     143.033  79.518 222.717 -0.50 -0.01    +0.026 A  
DOCKED: ATOM     11  C   UNL     1     140.652  79.945 222.561 -0.38 -0.01    +0.026 A  
DOCKED: ATOM     12  C   UNL     1     143.165  80.585 223.610 -0.65 -0.00    +0.002 A  
DOCKED: ATOM     13  C   UNL     1     140.789  81.013 223.453 -0.46 -0.00    +0.002 A  
DOCKED: ATOM     14  C   UNL     1     142.044  81.331 223.981 -0.59 -0.00    +0.000 A  
DOCKED: ENDBRANCH   7   9
DOCKED: ENDBRANCH   4   7
DOCKED: ENDBRANCH   3   4
DOCKED: ENDBRANCH   2   3
DOCKED: ENDBRANCH   1   2
DOCKED: BRANCH   1  15
DOCKED: ATOM     15  C   UNL     1     143.654  75.881 218.309 -0.19 -0.01    +0.009 C  
DOCKED: BRANCH  15  16
DOCKED: ATOM     16  C   UNL     1     142.405  75.135 218.805 -0.17 -0.03    +0.086 C  
DOCKED: BRANCH  16  17
DOCKED: ATOM     17  C   UNL     1     142.459  74.816 220.273 -0.21 -0.08    +0.219 C  
DOCKED: ATOM     18  O   UNL     1     143.566  74.534 220.806 -0.26 +0.12    -0.289 OA 
DOCKED: BRANCH  17  19
DOCKED: ATOM     19  C   UNL     1     141.243  74.816 221.095 -0.19 -0.07    +0.284 A  
DOCKED: ATOM     20  N   UNL     1     140.818  73.759 221.813 -0.64 +0.01    -0.104 NA 
DOCKED: ATOM     21  O   UNL     1     140.425  75.834 221.216 -0.15 +0.11    -0.411 OA 
DOCKED: ATOM     22  N   UNL     1     139.693  74.138 222.399 -0.74 +0.01    -0.104 NA 
DOCKED: ATOM     23  C   UNL     1     139.474  75.410 222.012 -0.20 -0.05    +0.284 A  
DOCKED: BRANCH  23  24
DOCKED: ATOM     24  C   UNL     1     138.309  76.214 222.406 -0.22 -0.04    +0.199 A  
DOCKED: ATOM     25  N   UNL     1     138.318  77.555 222.177 -0.16 +0.03    -0.183 NA 
DOCKED: ATOM     26  N   UNL     1     137.217  75.632 222.980 -0.11 +0.10    -0.339 N  
DOCKED: ATOM     27  C   UNL     1     137.256  78.333 222.513 -0.11 -0.05    +0.309 A  
DOCKED: ATOM     28  C   UNL     1     136.135  76.378 223.330 -0.20 -0.02    +0.129 A  
DOCKED: ATOM     29  C   UNL     1     136.132  77.753 223.101 -0.11 -0.03    +0.206 A  
DOCKED: ATOM     30  H   UNL     1     137.195  74.603 223.158 -0.39 -0.09    +0.168 HD 
DOCKED: ATOM     31  O   UNL     1     137.293  79.571 222.290 -0.08 +0.04    -0.264 OA 
DOCKED: ATOM     32  F   UNL     1     135.058  78.507 223.449 -0.04 +0.02    -0.199 F  
DOCKED: ENDBRANCH  23  24
DOCKED: ENDBRANCH  17  19
DOCKED: ENDBRANCH  16  17
DOCKED: ENDBRANCH  15  16
DOCKED: ENDBRANCH   1  15
DOCKED: TORSDOF 11
DOCKED: TER
DOCKED: ENDMDL
________________________________________________________________________________


    FINAL DOCKED STATE:
    ________________________


Run:   14 / 20
Time taken for this run:   0.026s

DOCKED: MODEL        14
DOCKED: USER    Run = 14
DOCKED: USER
DOCKED: USER    Estimated Free Energy of Binding    =  -3.79 kcal/mol  [=(1)+(2)+(3)-(4)]
DOCKED: USER
DOCKED: USER    (1) Final Intermolecular Energy     =  -7.07 kcal/mol
DOCKED: USER        vdW + Hbond + desolv Energy     =  -6.96 kcal/mol
DOCKED: USER        Electrostatic Energy            =  -0.11 kcal/mol
DOCKED: USER        Moving Ligand-Fixed Receptor    =  -7.07 kcal/mol
DOCKED: USER        Moving Ligand-Moving Receptor   =  +0.00 kcal/mol
DOCKED: USER    (2) Final Total Internal Energy     =  -5.09 kcal/mol
DOCKED: USER    (3) Torsional Free Energy           =  +3.28 kcal/mol
DOCKED: USER    (4) Unbound System's Energy         =  -5.09 kcal/mol
DOCKED: USER
DOCKED: USER
DOCKED: REMARK SMILES O=C(CCCC/C=C(/O)Nc1ccccc1)c1nnc(-c2nc(=O)c(F)c[nH]2)o1
DOCKED: REMARK SMILES IDX 5 1 6 2 7 3 8 4 9 5 10 7 11 9 12 10 16 11 13 12 15 13 14 14
DOCKED: REMARK SMILES IDX 4 15 3 16 2 17 1 18 17 19 18 20 29 21 19 22 20 23 21 24
DOCKED: REMARK SMILES IDX 22 25 28 26 23 27 27 28 25 29 24 31 26 32
DOCKED: REMARK H PARENT 9 6 10 8 28 30
DOCKED: USER                              x       y       z     vdW  Elec       q    Type
DOCKED: USER                           _______ _______ _______ _____ _____    ______ ____
DOCKED: ROOT
DOCKED: ATOM      1  C   UNL     1     142.086  73.774 217.842 -0.05 -0.00    +0.005 C  
DOCKED: ENDROOT
DOCKED: BRANCH   1   2
DOCKED: ATOM      2  C   UNL     1     143.098  74.932 217.815 -0.16 -0.01    +0.033 C  
DOCKED: BRANCH   2   3
DOCKED: ATOM      3  C   UNL     1     142.398  76.264 217.926 -0.19 -0.02    +0.039 C  
DOCKED: BRANCH   3   4
DOCKED: ATOM      4  C   UNL     1     142.125  76.888 219.085 -0.21 -0.10    +0.184 C  
DOCKED: BRANCH   4   5
DOCKED: ATOM      5  O   UNL     1     143.037  76.818 220.138 -0.10 +0.41    -0.495 OA 
DOCKED: ATOM      6  H   UNL     1     142.773  76.483 221.058 -0.34 -0.30    +0.295 HD 
DOCKED: ENDBRANCH   4   5
DOCKED: BRANCH   4   7
DOCKED: ATOM      7  N   UNL     1     140.899  77.603 219.298 -0.04 +0.14    -0.327 N  
DOCKED: ATOM      8  H   UNL     1     140.080  77.037 219.613 +0.05 -0.05    +0.170 HD 
DOCKED: BRANCH   7   9
DOCKED: ATOM      9  C   UNL     1     140.802  79.037 219.388 -0.16 -0.02    +0.041 A  
DOCKED: ATOM     10  C   UNL     1     139.563  79.623 219.695 -0.08 -0.01    +0.026 A  
DOCKED: ATOM     11  C   UNL     1     141.925  79.872 219.210 -0.29 -0.02    +0.026 A  
DOCKED: ATOM     12  C   UNL     1     139.437  81.012 219.790 -0.09 -0.00    +0.002 A  
DOCKED: ATOM     13  C   UNL     1     141.794  81.261 219.308 -0.28 -0.00    +0.002 A  
DOCKED: ATOM     14  C   UNL     1     140.551  81.831 219.594 -0.18 -0.00    +0.000 A  
DOCKED: ENDBRANCH   7   9
DOCKED: ENDBRANCH   4   7
DOCKED: ENDBRANCH   3   4
DOCKED: ENDBRANCH   2   3
DOCKED: ENDBRANCH   1   2
DOCKED: BRANCH   1  15
DOCKED: ATOM     15  C   UNL     1     141.042  73.924 218.970 -0.07 -0.00    +0.009 C  
DOCKED: BRANCH  15  16
DOCKED: ATOM     16  C   UNL     1     141.382  73.115 220.232 -0.15 -0.02    +0.086 C  
DOCKED: BRANCH  16  17
DOCKED: ATOM     17  C   UNL     1     140.690  73.632 221.462 -0.21 -0.03    +0.219 C  
DOCKED: ATOM     18  O   UNL     1     140.399  72.832 222.392 -0.58 +0.02    -0.289 OA 
DOCKED: BRANCH  17  19
DOCKED: ATOM     19  C   UNL     1     140.337  75.050 221.595 -0.22 -0.05    +0.284 A  
DOCKED: ATOM     20  N   UNL     1     139.197  75.591 221.123 -0.15 +0.02    -0.104 NA 
DOCKED: ATOM     21  O   UNL     1     141.091  75.955 222.171 -0.30 +0.12    -0.411 OA 
DOCKED: ATOM     22  N   UNL     1     139.250  76.881 221.419 -0.16 +0.02    -0.104 NA 
DOCKED: ATOM     23  C   UNL     1     140.421  77.076 222.055 -0.24 -0.09    +0.284 A  
DOCKED: BRANCH  23  24
DOCKED: ATOM     24  C   UNL     1     140.904  78.378 222.535 -0.33 -0.07    +0.199 A  
DOCKED: ATOM     25  N   UNL     1     140.034  79.225 223.150 -0.27 +0.04    -0.183 NA 
DOCKED: ATOM     26  N   UNL     1     142.211  78.739 222.388 -0.18 +0.20    -0.339 N  
DOCKED: ATOM     27  C   UNL     1     140.441  80.431 223.622 -0.24 -0.05    +0.309 A  
DOCKED: ATOM     28  C   UNL     1     142.657  79.940 222.847 -0.53 -0.05    +0.129 A  
DOCKED: ATOM     29  C   UNL     1     141.775  80.816 223.478 -0.44 -0.04    +0.206 A  
DOCKED: ATOM     30  H   UNL     1     142.890  78.097 221.921 -0.46 -0.19    +0.168 HD 
DOCKED: ATOM     31  O   UNL     1     139.615  81.195 224.185 -0.14 +0.02    -0.264 OA 
DOCKED: ATOM     32  F   UNL     1     142.209  82.017 223.938 -0.17 +0.01    -0.199 F  
DOCKED: ENDBRANCH  23  24
DOCKED: ENDBRANCH  17  19
DOCKED: ENDBRANCH  16  17
DOCKED: ENDBRANCH  15  16
DOCKED: ENDBRANCH   1  15
DOCKED: TORSDOF 11
DOCKED: TER
DOCKED: ENDMDL
________________________________________________________________________________


    FINAL DOCKED STATE:
    ________________________


Run:   15 / 20
Time taken for this run:   0.026s

DOCKED: MODEL        15
DOCKED: USER    Run = 15
DOCKED: USER
DOCKED: USER    Estimated Free Energy of Binding    =  -5.28 kcal/mol  [=(1)+(2)+(3)-(4)]
DOCKED: USER
DOCKED: USER    (1) Final Intermolecular Energy     =  -8.57 kcal/mol
DOCKED: USER        vdW + Hbond + desolv Energy     =  -8.37 kcal/mol
DOCKED: USER        Electrostatic Energy            =  -0.20 kcal/mol
DOCKED: USER        Moving Ligand-Fixed Receptor    =  -8.57 kcal/mol
DOCKED: USER        Moving Ligand-Moving Receptor   =  +0.00 kcal/mol
DOCKED: USER    (2) Final Total Internal Energy     =  -4.41 kcal/mol
DOCKED: USER    (3) Torsional Free Energy           =  +3.28 kcal/mol
DOCKED: USER    (4) Unbound System's Energy         =  -4.41 kcal/mol
DOCKED: USER
DOCKED: USER
DOCKED: REMARK SMILES O=C(CCCC/C=C(/O)Nc1ccccc1)c1nnc(-c2nc(=O)c(F)c[nH]2)o1
DOCKED: REMARK SMILES IDX 5 1 6 2 7 3 8 4 9 5 10 7 11 9 12 10 16 11 13 12 15 13 14 14
DOCKED: REMARK SMILES IDX 4 15 3 16 2 17 1 18 17 19 18 20 29 21 19 22 20 23 21 24
DOCKED: REMARK SMILES IDX 22 25 28 26 23 27 27 28 25 29 24 31 26 32
DOCKED: REMARK H PARENT 9 6 10 8 28 30
DOCKED: USER                              x       y       z     vdW  Elec       q    Type
DOCKED: USER                           _______ _______ _______ _____ _____    ______ ____
DOCKED: ROOT
DOCKED: ATOM      1  C   UNL     1     141.400  74.285 221.585 -0.16 -0.00    +0.005 C  
DOCKED: ENDROOT
DOCKED: BRANCH   1   2
DOCKED: ATOM      2  C   UNL     1     139.944  74.713 221.338 -0.27 -0.01    +0.033 C  
DOCKED: BRANCH   2   3
DOCKED: ATOM      3  C   UNL     1     139.637  76.016 222.034 -0.33 -0.01    +0.039 C  
DOCKED: BRANCH   3   4
DOCKED: ATOM      4  C   UNL     1     139.986  77.229 221.571 -0.22 -0.05    +0.184 C  
DOCKED: BRANCH   4   5
DOCKED: ATOM      5  O   UNL     1     139.073  77.970 220.822 +0.01 +0.12    -0.495 OA 
DOCKED: ATOM      6  H   UNL     1     139.368  78.696 220.178 +0.08 -0.08    +0.295 HD 
DOCKED: ENDBRANCH   4   5
DOCKED: BRANCH   4   7
DOCKED: ATOM      7  N   UNL     1     141.291  77.785 221.789 -0.17 +0.16    -0.327 N  
DOCKED: ATOM      8  H   UNL     1     142.060  77.413 221.189 -0.30 -0.13    +0.170 HD 
DOCKED: BRANCH   7   9
DOCKED: ATOM      9  C   UNL     1     141.546  78.982 222.548 -0.48 -0.02    +0.041 A  
DOCKED: ATOM     10  C   UNL     1     142.872  79.404 222.739 -0.54 -0.01    +0.026 A  
DOCKED: ATOM     11  C   UNL     1     140.499  79.765 223.078 -0.43 -0.01    +0.026 A  
DOCKED: ATOM     12  C   UNL     1     143.152  80.562 223.470 -0.66 -0.00    +0.002 A  
DOCKED: ATOM     13  C   UNL     1     140.784  80.924 223.806 -0.42 -0.00    +0.002 A  
DOCKED: ATOM     14  C   UNL     1     142.109  81.321 224.005 -0.60 -0.00    +0.000 A  
DOCKED: ENDBRANCH   7   9
DOCKED: ENDBRANCH   4   7
DOCKED: ENDBRANCH   3   4
DOCKED: ENDBRANCH   2   3
DOCKED: ENDBRANCH   1   2
DOCKED: BRANCH   1  15
DOCKED: ATOM     15  C   UNL     1     141.934  73.335 220.490 -0.24 -0.00    +0.009 C  
DOCKED: BRANCH  15  16
DOCKED: ATOM     16  C   UNL     1     143.450  73.098 220.571 -0.28 -0.02    +0.086 C  
DOCKED: BRANCH  16  17
DOCKED: ATOM     17  C   UNL     1     144.252  74.289 220.129 -0.31 -0.08    +0.219 C  
DOCKED: ATOM     18  O   UNL     1     145.457  74.394 220.486 -0.42 +0.09    -0.289 OA 
DOCKED: BRANCH  17  19
DOCKED: ATOM     19  C   UNL     1     143.654  75.340 219.297 -0.21 -0.15    +0.284 A  
DOCKED: ATOM     20  N   UNL     1     143.352  75.189 217.993 -0.16 +0.05    -0.104 NA 
DOCKED: ATOM     21  O   UNL     1     143.358  76.546 219.717 -0.25 +0.30    -0.411 OA 
DOCKED: ATOM     22  N   UNL     1     142.850  76.347 217.592 -0.18 +0.06    -0.104 NA 
DOCKED: ATOM     23  C   UNL     1     142.871  77.160 218.667 -0.22 -0.19    +0.284 A  
DOCKED: BRANCH  23  24
DOCKED: ATOM     24  C   UNL     1     142.431  78.562 218.661 -0.21 -0.15    +0.199 A  
DOCKED: ATOM     25  N   UNL     1     141.397  78.938 219.463 -0.15 +0.09    -0.183 NA 
DOCKED: ATOM     26  N   UNL     1     143.055  79.490 217.879 -0.11 +0.41    -0.339 N  
DOCKED: ATOM     27  C   UNL     1     140.968  80.226 219.499 -0.11 -0.13    +0.309 A  
DOCKED: ATOM     28  C   UNL     1     142.653  80.790 217.889 -0.29 -0.12    +0.129 A  
DOCKED: ATOM     29  C   UNL     1     141.595  81.187 218.704 -0.18 -0.10    +0.206 A  
DOCKED: ATOM     30  H   UNL     1     143.852  79.215 217.263 -0.47 -0.38    +0.168 HD 
DOCKED: ATOM     31  O   UNL     1     140.009  80.546 220.248 -0.06 +0.07    -0.264 OA 
DOCKED: ATOM     32  F   UNL     1     141.186  82.482 218.719 -0.05 +0.07    -0.199 F  
DOCKED: ENDBRANCH  23  24
DOCKED: ENDBRANCH  17  19
DOCKED: ENDBRANCH  16  17
DOCKED: ENDBRANCH  15  16
DOCKED: ENDBRANCH   1  15
DOCKED: TORSDOF 11
DOCKED: TER
DOCKED: ENDMDL
________________________________________________________________________________


    FINAL DOCKED STATE:
    ________________________


Run:   16 / 20
Time taken for this run:   0.026s

DOCKED: MODEL        16
DOCKED: USER    Run = 16
DOCKED: USER
DOCKED: USER    Estimated Free Energy of Binding    =  -5.86 kcal/mol  [=(1)+(2)+(3)-(4)]
DOCKED: USER
DOCKED: USER    (1) Final Intermolecular Energy     =  -9.14 kcal/mol
DOCKED: USER        vdW + Hbond + desolv Energy     =  -9.16 kcal/mol
DOCKED: USER        Electrostatic Energy            =  +0.02 kcal/mol
DOCKED: USER        Moving Ligand-Fixed Receptor    =  -9.14 kcal/mol
DOCKED: USER        Moving Ligand-Moving Receptor   =  +0.00 kcal/mol
DOCKED: USER    (2) Final Total Internal Energy     =  -2.63 kcal/mol
DOCKED: USER    (3) Torsional Free Energy           =  +3.28 kcal/mol
DOCKED: USER    (4) Unbound System's Energy         =  -2.63 kcal/mol
DOCKED: USER
DOCKED: USER
DOCKED: REMARK SMILES O=C(CCCC/C=C(/O)Nc1ccccc1)c1nnc(-c2nc(=O)c(F)c[nH]2)o1
DOCKED: REMARK SMILES IDX 5 1 6 2 7 3 8 4 9 5 10 7 11 9 12 10 16 11 13 12 15 13 14 14
DOCKED: REMARK SMILES IDX 4 15 3 16 2 17 1 18 17 19 18 20 29 21 19 22 20 23 21 24
DOCKED: REMARK SMILES IDX 22 25 28 26 23 27 27 28 25 29 24 31 26 32
DOCKED: REMARK H PARENT 9 6 10 8 28 30
DOCKED: USER                              x       y       z     vdW  Elec       q    Type
DOCKED: USER                           _______ _______ _______ _____ _____    ______ ____
DOCKED: ROOT
DOCKED: ATOM      1  C   UNL     1     137.311  75.685 222.754 -0.21 -0.00    +0.005 C  
DOCKED: ENDROOT
DOCKED: BRANCH   1   2
DOCKED: ATOM      2  C   UNL     1     138.214  76.142 221.597 -0.21 -0.01    +0.033 C  
DOCKED: BRANCH   2   3
DOCKED: ATOM      3  C   UNL     1     139.408  76.908 222.111 -0.31 -0.01    +0.039 C  
DOCKED: BRANCH   3   4
DOCKED: ATOM      4  C   UNL     1     140.687  76.597 221.842 -0.30 -0.06    +0.184 C  
DOCKED: BRANCH   4   5
DOCKED: ATOM      5  O   UNL     1     141.111  75.272 221.946 -0.41 +0.09    -0.495 OA 
DOCKED: ATOM      6  H   UNL     1     140.521  74.546 222.339 +0.09 +0.02    +0.295 HD 
DOCKED: ENDBRANCH   4   5
DOCKED: BRANCH   4   7
DOCKED: ATOM      7  N   UNL     1     141.658  77.590 221.482 -0.05 +0.20    -0.327 N  
DOCKED: ATOM      8  H   UNL     1     142.121  77.472 220.555 -0.03 -0.12    +0.170 HD 
DOCKED: BRANCH   7   9
DOCKED: ATOM      9  C   UNL     1     141.816  78.852 222.159 -0.45 -0.02    +0.041 A  
DOCKED: ATOM     10  C   UNL     1     141.629  80.044 221.440 -0.39 -0.01    +0.026 A  
DOCKED: ATOM     11  C   UNL     1     142.119  78.926 223.534 -0.56 -0.01    +0.026 A  
DOCKED: ATOM     12  C   UNL     1     141.775  81.284 222.068 -0.47 -0.00    +0.002 A  
DOCKED: ATOM     13  C   UNL     1     142.262  80.169 224.159 -0.52 -0.00    +0.002 A  
DOCKED: ATOM     14  C   UNL     1     142.093  81.348 223.427 -0.59 -0.00    +0.000 A  
DOCKED: ENDBRANCH   7   9
DOCKED: ENDBRANCH   4   7
DOCKED: ENDBRANCH   3   4
DOCKED: ENDBRANCH   2   3
DOCKED: ENDBRANCH   1   2
DOCKED: BRANCH   1  15
DOCKED: ATOM     15  C   UNL     1     136.477  74.435 222.399 -0.16 -0.00    +0.009 C  
DOCKED: BRANCH  15  16
DOCKED: ATOM     16  C   UNL     1     136.711  73.928 220.967 -0.07 -0.02    +0.086 C  
DOCKED: BRANCH  16  17
DOCKED: ATOM     17  C   UNL     1     137.584  72.706 220.915 -0.05 -0.05    +0.219 C  
DOCKED: ATOM     18  O   UNL     1     137.460  71.895 219.957 -0.01 +0.05    -0.289 OA 
DOCKED: BRANCH  17  19
DOCKED: ATOM     19  C   UNL     1     138.571  72.433 221.966 -0.11 -0.07    +0.284 A  
DOCKED: ATOM     20  N   UNL     1     139.716  73.124 222.123 -0.49 +0.02    -0.104 NA 
DOCKED: ATOM     21  O   UNL     1     138.462  71.481 222.862 -0.09 +0.10    -0.411 OA 
DOCKED: ATOM     22  N   UNL     1     140.339  72.578 223.156 -0.50 +0.01    -0.104 NA 
DOCKED: ATOM     23  C   UNL     1     139.551  71.572 223.584 -0.21 -0.06    +0.284 A  
DOCKED: BRANCH  23  24
DOCKED: ATOM     24  C   UNL     1     139.878  70.673 224.700 -0.32 -0.03    +0.199 A  
DOCKED: ATOM     25  N   UNL     1     139.365  69.412 224.711 -0.23 +0.03    -0.183 NA 
DOCKED: ATOM     26  N   UNL     1     140.699  71.079 225.711 -0.29 +0.05    -0.339 N  
DOCKED: ATOM     27  C   UNL     1     139.654  68.545 225.715 -0.29 -0.04    +0.309 A  
DOCKED: ATOM     28  C   UNL     1     141.011  70.238 226.734 -0.48 -0.02    +0.129 A  
DOCKED: ATOM     29  C   UNL     1     140.491  68.945 226.757 -0.42 -0.04    +0.206 A  
DOCKED: ATOM     30  H   UNL     1     141.103  72.043 225.713 +0.10 -0.02    +0.168 HD 
DOCKED: ATOM     31  O   UNL     1     139.164  67.385 225.701 -0.93 -0.01    -0.264 OA 
DOCKED: ATOM     32  F   UNL     1     140.794  68.100 227.775 -0.20 +0.05    -0.199 F  
DOCKED: ENDBRANCH  23  24
DOCKED: ENDBRANCH  17  19
DOCKED: ENDBRANCH  16  17
DOCKED: ENDBRANCH  15  16
DOCKED: ENDBRANCH   1  15
DOCKED: TORSDOF 11
DOCKED: TER
DOCKED: ENDMDL
________________________________________________________________________________


    FINAL DOCKED STATE:
    ________________________


Run:   17 / 20
Time taken for this run:   0.026s

DOCKED: MODEL        17
DOCKED: USER    Run = 17
DOCKED: USER
DOCKED: USER    Estimated Free Energy of Binding    =  -5.21 kcal/mol  [=(1)+(2)+(3)-(4)]
DOCKED: USER
DOCKED: USER    (1) Final Intermolecular Energy     =  -8.50 kcal/mol
DOCKED: USER        vdW + Hbond + desolv Energy     =  -8.44 kcal/mol
DOCKED: USER        Electrostatic Energy            =  -0.06 kcal/mol
DOCKED: USER        Moving Ligand-Fixed Receptor    =  -8.50 kcal/mol
DOCKED: USER        Moving Ligand-Moving Receptor   =  +0.00 kcal/mol
DOCKED: USER    (2) Final Total Internal Energy     =  -4.33 kcal/mol
DOCKED: USER    (3) Torsional Free Energy           =  +3.28 kcal/mol
DOCKED: USER    (4) Unbound System's Energy         =  -4.33 kcal/mol
DOCKED: USER
DOCKED: USER
DOCKED: REMARK SMILES O=C(CCCC/C=C(/O)Nc1ccccc1)c1nnc(-c2nc(=O)c(F)c[nH]2)o1
DOCKED: REMARK SMILES IDX 5 1 6 2 7 3 8 4 9 5 10 7 11 9 12 10 16 11 13 12 15 13 14 14
DOCKED: REMARK SMILES IDX 4 15 3 16 2 17 1 18 17 19 18 20 29 21 19 22 20 23 21 24
DOCKED: REMARK SMILES IDX 22 25 28 26 23 27 27 28 25 29 24 31 26 32
DOCKED: REMARK H PARENT 9 6 10 8 28 30
DOCKED: USER                              x       y       z     vdW  Elec       q    Type
DOCKED: USER                           _______ _______ _______ _____ _____    ______ ____
DOCKED: ROOT
DOCKED: ATOM      1  C   UNL     1     138.054  78.812 219.718 -0.03 -0.00    +0.005 C  
DOCKED: ENDROOT
DOCKED: BRANCH   1   2
DOCKED: ATOM      2  C   UNL     1     137.925  77.542 220.574 -0.07 -0.01    +0.033 C  
DOCKED: BRANCH   2   3
DOCKED: ATOM      3  C   UNL     1     139.261  76.856 220.728 -0.14 -0.01    +0.039 C  
DOCKED: BRANCH   3   4
DOCKED: ATOM      4  C   UNL     1     139.872  76.633 221.904 -0.27 -0.04    +0.184 C  
DOCKED: BRANCH   4   5
DOCKED: ATOM      5  O   UNL     1     139.281  75.782 222.838 -0.23 +0.09    -0.495 OA 
DOCKED: ATOM      6  H   UNL     1     139.554  74.809 222.930 -0.31 -0.02    +0.295 HD 
DOCKED: ENDBRANCH   4   5
DOCKED: BRANCH   4   7
DOCKED: ATOM      7  N   UNL     1     141.108  77.270 222.258 -0.20 +0.14    -0.327 N  
DOCKED: ATOM      8  H   UNL     1     141.981  76.811 221.917 -0.50 -0.14    +0.170 HD 
DOCKED: BRANCH   7   9
DOCKED: ATOM      9  C   UNL     1     141.209  78.608 222.781 -0.48 -0.01    +0.041 A  
DOCKED: ATOM     10  C   UNL     1     140.065  79.225 223.313 -0.42 -0.00    +0.026 A  
DOCKED: ATOM     11  C   UNL     1     142.434  79.307 222.806 -0.56 -0.01    +0.026 A  
DOCKED: ATOM     12  C   UNL     1     140.131  80.523 223.829 -0.41 -0.00    +0.002 A  
DOCKED: ATOM     13  C   UNL     1     142.496  80.604 223.325 -0.66 -0.00    +0.002 A  
DOCKED: ATOM     14  C   UNL     1     141.345  81.213 223.833 -0.50 -0.00    +0.000 A  
DOCKED: ENDBRANCH   7   9
DOCKED: ENDBRANCH   4   7
DOCKED: ENDBRANCH   3   4
DOCKED: ENDBRANCH   2   3
DOCKED: ENDBRANCH   1   2
DOCKED: BRANCH   1  15
DOCKED: ATOM     15  C   UNL     1     139.106  79.798 220.272 -0.09 -0.00    +0.009 C  
DOCKED: BRANCH  15  16
DOCKED: ATOM     16  C   UNL     1     139.981  80.438 219.181 -0.09 -0.03    +0.086 C  
DOCKED: BRANCH  16  17
DOCKED: ATOM     17  C   UNL     1     141.450  80.221 219.408 -0.18 -0.10    +0.219 C  
DOCKED: ATOM     18  O   UNL     1     142.164  81.180 219.809 -0.15 +0.12    -0.289 OA 
DOCKED: BRANCH  17  19
DOCKED: ATOM     19  C   UNL     1     142.071  78.915 219.160 -0.15 -0.19    +0.284 A  
DOCKED: ATOM     20  N   UNL     1     142.826  78.632 218.081 -0.28 +0.10    -0.104 NA 
DOCKED: ATOM     21  O   UNL     1     141.954  77.872 219.946 -0.13 +0.26    -0.411 OA 
DOCKED: ATOM     22  N   UNL     1     143.189  77.365 218.204 -0.25 +0.08    -0.104 NA 
DOCKED: ATOM     23  C   UNL     1     142.637  76.924 219.352 -0.22 -0.18    +0.284 A  
DOCKED: BRANCH  23  24
DOCKED: ATOM     24  C   UNL     1     142.758  75.552 219.864 -0.24 -0.10    +0.199 A  
DOCKED: ATOM     25  N   UNL     1     141.820  75.079 220.729 -0.21 +0.06    -0.183 NA 
DOCKED: ATOM     26  N   UNL     1     143.785  74.745 219.470 -0.16 +0.14    -0.339 N  
DOCKED: ATOM     27  C   UNL     1     141.887  73.812 221.214 -0.08 -0.05    +0.309 A  
DOCKED: ATOM     28  C   UNL     1     143.886  73.470 219.935 -0.28 -0.03    +0.129 A  
DOCKED: ATOM     29  C   UNL     1     142.932  72.974 220.822 -0.18 -0.03    +0.206 A  
DOCKED: ATOM     30  H   UNL     1     144.510  75.094 218.803 -0.31 -0.11    +0.168 HD 
DOCKED: ATOM     31  O   UNL     1     141.007  73.401 222.015 -0.60 +0.00    -0.264 OA 
DOCKED: ATOM     32  F   UNL     1     143.025  71.704 221.294 -0.05 +0.02    -0.199 F  
DOCKED: ENDBRANCH  23  24
DOCKED: ENDBRANCH  17  19
DOCKED: ENDBRANCH  16  17
DOCKED: ENDBRANCH  15  16
DOCKED: ENDBRANCH   1  15
DOCKED: TORSDOF 11
DOCKED: TER
DOCKED: ENDMDL
________________________________________________________________________________


    FINAL DOCKED STATE:
    ________________________


Run:   18 / 20
Time taken for this run:   0.026s

DOCKED: MODEL        18
DOCKED: USER    Run = 18
DOCKED: USER
DOCKED: USER    Estimated Free Energy of Binding    =  -4.11 kcal/mol  [=(1)+(2)+(3)-(4)]
DOCKED: USER
DOCKED: USER    (1) Final Intermolecular Energy     =  -7.39 kcal/mol
DOCKED: USER        vdW + Hbond + desolv Energy     =  -7.37 kcal/mol
DOCKED: USER        Electrostatic Energy            =  -0.02 kcal/mol
DOCKED: USER        Moving Ligand-Fixed Receptor    =  -7.39 kcal/mol
DOCKED: USER        Moving Ligand-Moving Receptor   =  +0.00 kcal/mol
DOCKED: USER    (2) Final Total Internal Energy     =  -5.22 kcal/mol
DOCKED: USER    (3) Torsional Free Energy           =  +3.28 kcal/mol
DOCKED: USER    (4) Unbound System's Energy         =  -5.22 kcal/mol
DOCKED: USER
DOCKED: USER
DOCKED: REMARK SMILES O=C(CCCC/C=C(/O)Nc1ccccc1)c1nnc(-c2nc(=O)c(F)c[nH]2)o1
DOCKED: REMARK SMILES IDX 5 1 6 2 7 3 8 4 9 5 10 7 11 9 12 10 16 11 13 12 15 13 14 14
DOCKED: REMARK SMILES IDX 4 15 3 16 2 17 1 18 17 19 18 20 29 21 19 22 20 23 21 24
DOCKED: REMARK SMILES IDX 22 25 28 26 23 27 27 28 25 29 24 31 26 32
DOCKED: REMARK H PARENT 9 6 10 8 28 30
DOCKED: USER                              x       y       z     vdW  Elec       q    Type
DOCKED: USER                           _______ _______ _______ _____ _____    ______ ____
DOCKED: ROOT
DOCKED: ATOM      1  C   UNL     1     142.298  80.628 221.665 -0.40 -0.00    +0.005 C  
DOCKED: ENDROOT
DOCKED: BRANCH   1   2
DOCKED: ATOM      2  C   UNL     1     141.445  80.305 220.428 -0.30 -0.01    +0.033 C  
DOCKED: BRANCH   2   3
DOCKED: ATOM      3  C   UNL     1     141.824  78.966 219.843 -0.27 -0.02    +0.039 C  
DOCKED: BRANCH   3   4
DOCKED: ATOM      4  C   UNL     1     141.220  77.804 220.143 -0.18 -0.09    +0.184 C  
DOCKED: BRANCH   4   5
DOCKED: ATOM      5  O   UNL     1     139.833  77.701 220.041 +0.02 +0.15    -0.495 OA 
DOCKED: ATOM      6  H   UNL     1     139.239  77.598 220.857 +0.09 -0.08    +0.295 HD 
DOCKED: ENDBRANCH   4   5
DOCKED: BRANCH   4   7
DOCKED: ATOM      7  N   UNL     1     141.951  76.658 220.604 -0.08 +0.20    -0.327 N  
DOCKED: ATOM      8  H   UNL     1     141.810  76.389 221.603 -0.47 -0.11    +0.170 HD 
DOCKED: BRANCH   7   9
DOCKED: ATOM      9  C   UNL     1     142.613  75.716 219.739 -0.31 -0.02    +0.041 A  
DOCKED: ATOM     10  C   UNL     1     142.038  75.406 218.495 -0.14 -0.01    +0.026 A  
DOCKED: ATOM     11  C   UNL     1     143.842  75.120 220.089 -0.41 -0.01    +0.026 A  
DOCKED: ATOM     12  C   UNL     1     142.657  74.497 217.632 -0.10 -0.00    +0.002 A  
DOCKED: ATOM     13  C   UNL     1     144.458  74.212 219.222 -0.26 -0.00    +0.002 A  
DOCKED: ATOM     14  C   UNL     1     143.865  73.898 217.996 -0.16 -0.00    +0.000 A  
DOCKED: ENDBRANCH   7   9
DOCKED: ENDBRANCH   4   7
DOCKED: ENDBRANCH   3   4
DOCKED: ENDBRANCH   2   3
DOCKED: ENDBRANCH   1   2
DOCKED: BRANCH   1  15
DOCKED: ATOM     15  C   UNL     1     142.385  79.443 222.653 -0.58 -0.00    +0.009 C  
DOCKED: BRANCH  15  16
DOCKED: ATOM     16  C   UNL     1     141.388  79.543 223.818 -0.52 -0.02    +0.086 C  
DOCKED: BRANCH  16  17
DOCKED: ATOM     17  C   UNL     1     139.957  79.422 223.375 -0.31 -0.04    +0.219 C  
DOCKED: ATOM     18  O   UNL     1     139.218  80.443 223.378 -0.23 +0.04    -0.289 OA 
DOCKED: BRANCH  17  19
DOCKED: ATOM     19  C   UNL     1     139.401  78.131 222.949 -0.13 -0.05    +0.284 A  
DOCKED: ATOM     20  N   UNL     1     138.096  77.922 222.688 -0.21 +0.02    -0.104 NA 
DOCKED: ATOM     21  O   UNL     1     140.102  77.035 222.787 -0.16 +0.09    -0.411 OA 
DOCKED: ATOM     22  N   UNL     1     137.987  76.646 222.353 -0.22 +0.02    -0.104 NA 
DOCKED: ATOM     23  C   UNL     1     139.228  76.127 222.427 -0.20 -0.06    +0.284 A  
DOCKED: BRANCH  23  24
DOCKED: ATOM     24  C   UNL     1     139.562  74.720 222.165 -0.13 -0.03    +0.199 A  
DOCKED: ATOM     25  N   UNL     1     140.827  74.396 221.783 -0.61 +0.01    -0.183 NA 
DOCKED: ATOM     26  N   UNL     1     138.627  73.737 222.317 +0.04 +0.12    -0.339 N  
DOCKED: ATOM     27  C   UNL     1     141.181  73.107 221.545 -0.15 -0.03    +0.309 A  
DOCKED: ATOM     28  C   UNL     1     138.945  72.434 222.088 -0.18 -0.03    +0.129 A  
DOCKED: ATOM     29  C   UNL     1     140.237  72.090 221.695 -0.18 -0.03    +0.206 A  
DOCKED: ATOM     30  H   UNL     1     137.654  73.971 222.614 -0.40 -0.08    +0.168 HD 
DOCKED: ATOM     31  O   UNL     1     142.358  72.836 221.190 -0.19 +0.03    -0.264 OA 
DOCKED: ATOM     32  F   UNL     1     140.563  70.793 221.461 -0.03 +0.03    -0.199 F  
DOCKED: ENDBRANCH  23  24
DOCKED: ENDBRANCH  17  19
DOCKED: ENDBRANCH  16  17
DOCKED: ENDBRANCH  15  16
DOCKED: ENDBRANCH   1  15
DOCKED: TORSDOF 11
DOCKED: TER
DOCKED: ENDMDL
________________________________________________________________________________


    FINAL DOCKED STATE:
    ________________________


Run:   19 / 20
Time taken for this run:   0.026s

DOCKED: MODEL        19
DOCKED: USER    Run = 19
DOCKED: USER
DOCKED: USER    Estimated Free Energy of Binding    =  -6.29 kcal/mol  [=(1)+(2)+(3)-(4)]
DOCKED: USER
DOCKED: USER    (1) Final Intermolecular Energy     =  -9.58 kcal/mol
DOCKED: USER        vdW + Hbond + desolv Energy     =  -9.53 kcal/mol
DOCKED: USER        Electrostatic Energy            =  -0.05 kcal/mol
DOCKED: USER        Moving Ligand-Fixed Receptor    =  -9.58 kcal/mol
DOCKED: USER        Moving Ligand-Moving Receptor   =  +0.00 kcal/mol
DOCKED: USER    (2) Final Total Internal Energy     =  -2.67 kcal/mol
DOCKED: USER    (3) Torsional Free Energy           =  +3.28 kcal/mol
DOCKED: USER    (4) Unbound System's Energy         =  -2.67 kcal/mol
DOCKED: USER
DOCKED: USER
DOCKED: REMARK SMILES O=C(CCCC/C=C(/O)Nc1ccccc1)c1nnc(-c2nc(=O)c(F)c[nH]2)o1
DOCKED: REMARK SMILES IDX 5 1 6 2 7 3 8 4 9 5 10 7 11 9 12 10 16 11 13 12 15 13 14 14
DOCKED: REMARK SMILES IDX 4 15 3 16 2 17 1 18 17 19 18 20 29 21 19 22 20 23 21 24
DOCKED: REMARK SMILES IDX 22 25 28 26 23 27 27 28 25 29 24 31 26 32
DOCKED: REMARK H PARENT 9 6 10 8 28 30
DOCKED: USER                              x       y       z     vdW  Elec       q    Type
DOCKED: USER                           _______ _______ _______ _____ _____    ______ ____
DOCKED: ROOT
DOCKED: ATOM      1  C   UNL     1     136.295  71.725 222.782 -0.14 -0.00    +0.005 C  
DOCKED: ENDROOT
DOCKED: BRANCH   1   2
DOCKED: ATOM      2  C   UNL     1     137.455  71.145 223.606 -0.22 -0.01    +0.033 C  
DOCKED: BRANCH   2   3
DOCKED: ATOM      3  C   UNL     1     138.752  71.210 222.836 -0.23 -0.01    +0.039 C  
DOCKED: BRANCH   3   4
DOCKED: ATOM      4  C   UNL     1     139.829  71.918 223.215 -0.24 -0.04    +0.184 C  
DOCKED: BRANCH   4   5
DOCKED: ATOM      5  O   UNL     1     140.012  73.211 222.725 -0.61 +0.03    -0.495 OA 
DOCKED: ATOM      6  H   UNL     1     139.339  73.951 222.892 -0.43 -0.08    +0.295 HD 
DOCKED: ENDBRANCH   4   5
DOCKED: BRANCH   4   7
DOCKED: ATOM      7  N   UNL     1     140.832  71.377 224.087 -0.17 +0.03    -0.327 N  
DOCKED: ATOM      8  H   UNL     1     141.812  71.378 223.725 +0.14 +0.00    +0.170 HD 
DOCKED: BRANCH   7   9
DOCKED: ATOM      9  C   UNL     1     140.632  71.114 225.489 -0.55 -0.01    +0.041 A  
DOCKED: ATOM     10  C   UNL     1     139.919  69.967 225.875 -0.47 -0.00    +0.026 A  
DOCKED: ATOM     11  C   UNL     1     141.161  71.956 226.488 -0.67 -0.00    +0.026 A  
DOCKED: ATOM     12  C   UNL     1     139.708  69.682 227.228 -0.56 -0.00    +0.002 A  
DOCKED: ATOM     13  C   UNL     1     140.949  71.667 227.840 -0.82 -0.00    +0.002 A  
DOCKED: ATOM     14  C   UNL     1     140.220  70.533 228.210 -0.63 -0.00    +0.000 A  
DOCKED: ENDBRANCH   7   9
DOCKED: ENDBRANCH   4   7
DOCKED: ENDBRANCH   3   4
DOCKED: ENDBRANCH   2   3
DOCKED: ENDBRANCH   1   2
DOCKED: BRANCH   1  15
DOCKED: ATOM     15  C   UNL     1     135.769  73.060 223.355 -0.19 -0.00    +0.009 C  
DOCKED: BRANCH  15  16
DOCKED: ATOM     16  C   UNL     1     135.598  74.158 222.293 -0.11 -0.02    +0.086 C  
DOCKED: BRANCH  16  17
DOCKED: ATOM     17  C   UNL     1     135.958  75.525 222.802 -0.15 -0.05    +0.219 C  
DOCKED: ATOM     18  O   UNL     1     135.068  76.245 223.331 -0.11 +0.04    -0.289 OA 
DOCKED: BRANCH  17  19
DOCKED: ATOM     19  C   UNL     1     137.326  76.043 222.684 -0.18 -0.07    +0.284 A  
DOCKED: ATOM     20  N   UNL     1     138.389  75.292 222.336 -0.24 +0.03    -0.104 NA 
DOCKED: ATOM     21  O   UNL     1     137.676  77.285 222.914 -0.14 +0.07    -0.411 OA 
DOCKED: ATOM     22  N   UNL     1     139.436  76.102 222.354 -0.35 +0.02    -0.104 NA 
DOCKED: ATOM     23  C   UNL     1     138.971  77.313 222.716 -0.16 -0.05    +0.284 A  
DOCKED: BRANCH  23  24
DOCKED: ATOM     24  C   UNL     1     139.806  78.510 222.892 -0.25 -0.04    +0.199 A  
DOCKED: ATOM     25  N   UNL     1     141.154  78.409 222.736 -0.33 +0.07    -0.183 NA 
DOCKED: ATOM     26  N   UNL     1     139.247  79.717 223.193 -0.16 +0.05    -0.339 N  
DOCKED: ATOM     27  C   UNL     1     141.961  79.493 222.876 -0.35 -0.11    +0.309 A  
DOCKED: ATOM     28  C   UNL     1     140.023  80.825 223.341 -0.33 -0.02    +0.129 A  
DOCKED: ATOM     29  C   UNL     1     141.405  80.735 223.184 -0.39 -0.04    +0.206 A  
DOCKED: ATOM     30  H   UNL     1     138.213  79.809 223.311 +0.07 -0.02    +0.168 HD 
DOCKED: ATOM     31  O   UNL     1     143.205  79.371 222.728 -0.42 +0.15    -0.264 OA 
DOCKED: ATOM     32  F   UNL     1     142.187  81.835 223.333 -0.16 +0.02    -0.199 F  
DOCKED: ENDBRANCH  23  24
DOCKED: ENDBRANCH  17  19
DOCKED: ENDBRANCH  16  17
DOCKED: ENDBRANCH  15  16
DOCKED: ENDBRANCH   1  15
DOCKED: TORSDOF 11
DOCKED: TER
DOCKED: ENDMDL
________________________________________________________________________________


    FINAL DOCKED STATE:
    ________________________


Run:   20 / 20
Time taken for this run:   0.026s

DOCKED: MODEL        20
DOCKED: USER    Run = 20
DOCKED: USER
DOCKED: USER    Estimated Free Energy of Binding    =  -7.17 kcal/mol  [=(1)+(2)+(3)-(4)]
DOCKED: USER
DOCKED: USER    (1) Final Intermolecular Energy     = -10.45 kcal/mol
DOCKED: USER        vdW + Hbond + desolv Energy     = -10.20 kcal/mol
DOCKED: USER        Electrostatic Energy            =  -0.25 kcal/mol
DOCKED: USER        Moving Ligand-Fixed Receptor    = -10.45 kcal/mol
DOCKED: USER        Moving Ligand-Moving Receptor   =  +0.00 kcal/mol
DOCKED: USER    (2) Final Total Internal Energy     =  -1.62 kcal/mol
DOCKED: USER    (3) Torsional Free Energy           =  +3.28 kcal/mol
DOCKED: USER    (4) Unbound System's Energy         =  -1.62 kcal/mol
DOCKED: USER
DOCKED: USER
DOCKED: REMARK SMILES O=C(CCCC/C=C(/O)Nc1ccccc1)c1nnc(-c2nc(=O)c(F)c[nH]2)o1
DOCKED: REMARK SMILES IDX 5 1 6 2 7 3 8 4 9 5 10 7 11 9 12 10 16 11 13 12 15 13 14 14
DOCKED: REMARK SMILES IDX 4 15 3 16 2 17 1 18 17 19 18 20 29 21 19 22 20 23 21 24
DOCKED: REMARK SMILES IDX 22 25 28 26 23 27 27 28 25 29 24 31 26 32
DOCKED: REMARK H PARENT 9 6 10 8 28 30
DOCKED: USER                              x       y       z     vdW  Elec       q    Type
DOCKED: USER                           _______ _______ _______ _____ _____    ______ ____
DOCKED: ROOT
DOCKED: ATOM      1  C   UNL     1     143.130  74.964 219.232 -0.30 -0.00    +0.005 C  
DOCKED: ENDROOT
DOCKED: BRANCH   1   2
DOCKED: ATOM      2  C   UNL     1     143.322  76.428 219.660 -0.36 -0.02    +0.033 C  
DOCKED: BRANCH   2   3
DOCKED: ATOM      3  C   UNL     1     142.931  77.372 218.549 -0.31 -0.03    +0.039 C  
DOCKED: BRANCH   3   4
DOCKED: ATOM      4  C   UNL     1     142.276  78.532 218.729 -0.21 -0.13    +0.184 C  
DOCKED: BRANCH   4   5
DOCKED: ATOM      5  O   UNL     1     142.598  79.635 217.938 -0.17 +0.48    -0.495 OA 
DOCKED: ATOM      6  H   UNL     1     143.430  79.658 217.359 -0.47 -0.55    +0.295 HD 
DOCKED: ENDBRANCH   4   5
DOCKED: BRANCH   4   7
DOCKED: ATOM      7  N   UNL     1     141.271  78.695 219.740 -0.09 +0.16    -0.327 N  
DOCKED: ATOM      8  H   UNL     1     140.311  78.364 219.497 +0.05 -0.06    +0.170 HD 
DOCKED: BRANCH   7   9
DOCKED: ATOM      9  C   UNL     1     141.550  79.003 221.119 -0.33 -0.02    +0.041 A  
DOCKED: ATOM     10  C   UNL     1     141.214  78.068 222.112 -0.40 -0.01    +0.026 A  
DOCKED: ATOM     11  C   UNL     1     142.183  80.204 221.500 -0.42 -0.01    +0.026 A  
DOCKED: ATOM     12  C   UNL     1     141.473  78.337 223.459 -0.55 -0.00    +0.002 A  
DOCKED: ATOM     13  C   UNL     1     142.441  80.469 222.849 -0.62 -0.00    +0.002 A  
DOCKED: ATOM     14  C   UNL     1     142.084  79.538 223.828 -0.62 -0.00    +0.000 A  
DOCKED: ENDBRANCH   7   9
DOCKED: ENDBRANCH   4   7
DOCKED: ENDBRANCH   3   4
DOCKED: ENDBRANCH   2   3
DOCKED: ENDBRANCH   1   2
DOCKED: BRANCH   1  15
DOCKED: ATOM     15  C   UNL     1     142.316  74.147 220.261 -0.27 -0.00    +0.009 C  
DOCKED: BRANCH  15  16
DOCKED: ATOM     16  C   UNL     1     140.836  74.557 220.336 -0.17 -0.02    +0.086 C  
DOCKED: BRANCH  16  17
DOCKED: ATOM     17  C   UNL     1     140.221  74.282 221.679 -0.19 -0.03    +0.219 C  
DOCKED: ATOM     18  O   UNL     1     139.730  75.234 222.343 -0.63 +0.04    -0.289 OA 
DOCKED: BRANCH  17  19
DOCKED: ATOM     19  C   UNL     1     140.192  72.924 222.236 -0.19 -0.03    +0.284 A  
DOCKED: ATOM     20  N   UNL     1     140.064  71.807 221.495 -0.15 +0.02    -0.104 NA 
DOCKED: ATOM     21  O   UNL     1     140.273  72.641 223.514 -0.29 +0.04    -0.411 OA 
DOCKED: ATOM     22  N   UNL     1     140.064  70.795 222.348 -0.16 +0.02    -0.104 NA 
DOCKED: ATOM     23  C   UNL     1     140.189  71.335 223.576 -0.24 -0.04    +0.284 A  
DOCKED: BRANCH  23  24
DOCKED: ATOM     24  C   UNL     1     140.202  70.567 224.829 -0.33 -0.03    +0.199 A  
DOCKED: ATOM     25  N   UNL     1     139.671  69.314 224.847 -0.23 +0.03    -0.183 NA 
DOCKED: ATOM     26  N   UNL     1     140.754  71.086 225.964 -0.30 +0.05    -0.339 N  
DOCKED: ATOM     27  C   UNL     1     139.676  68.565 225.980 -0.31 -0.04    +0.309 A  
DOCKED: ATOM     28  C   UNL     1     140.777  70.365 227.117 -0.50 -0.02    +0.129 A  
DOCKED: ATOM     29  C   UNL     1     140.236  69.081 227.149 -0.43 -0.04    +0.206 A  
DOCKED: ATOM     30  H   UNL     1     141.168  72.044 225.962 +0.10 -0.02    +0.168 HD 
DOCKED: ATOM     31  O   UNL     1     139.177  67.409 225.968 -0.92 -0.00    -0.264 OA 
DOCKED: ATOM     32  F   UNL     1     140.252  68.355 228.296 -0.19 +0.05    -0.199 F  
DOCKED: ENDBRANCH  23  24
DOCKED: ENDBRANCH  17  19
DOCKED: ENDBRANCH  16  17
DOCKED: ENDBRANCH  15  16
DOCKED: ENDBRANCH   1  15
DOCKED: TORSDOF 11
DOCKED: TER
DOCKED: ENDMDL
________________________________________________________________________________


    CLUSTERING HISTOGRAM
    ____________________


________________________________________________________________________________
     |           |     |           |     |
Clus | Lowest    | Run | Mean      | Num | Histogram
-ter | Binding   |     | Binding   | in  |
Rank | Energy    |     | Energy    | Clus|    5    10   15   20   25   30   35
_____|___________|_____|___________|_____|____:____|____:____|____:____|____:___
   1 |     -7.20 |  12 |     -6.37 |   4 |####
   2 |     -7.17 |  20 |     -6.91 |   3 |###
   3 |     -6.29 |  19 |     -6.29 |   1 |#
   4 |     -5.86 |  16 |     -5.86 |   1 |#
   5 |     -5.78 |   3 |     -5.58 |   2 |##
   6 |     -5.52 |   5 |     -5.39 |   2 |##
   7 |     -5.28 |  15 |     -5.28 |   1 |#
   8 |     -5.21 |  17 |     -4.77 |   2 |##
   9 |     -5.09 |   4 |     -5.09 |   1 |#
  10 |     -4.11 |  18 |     -4.11 |   1 |#
  11 |     -3.79 |  14 |     -3.79 |   1 |#
  12 |     -3.08 |  11 |     -3.08 |   1 |#
_____|___________|_____|___________|_____|______________________________________


    RMSD TABLE
    __________


_______________________________________________________________________
     |      |      |           |         |                 |
Rank | Sub- | Run  | Binding   | Cluster | Reference       | Grep
     | Rank |      | Energy    | RMSD    | RMSD            | Pattern
_____|______|______|___________|_________|_________________|___________
   1      1     12       -7.20      0.00    271.25           RANKING
   1      2      9       -6.31      1.62    271.14           RANKING
   1      3      6       -6.07      1.78    270.88           RANKING
   1      4     10       -5.91      1.93    270.79           RANKING
   2      1     20       -7.17      0.00    271.10           RANKING
   2      2      1       -6.85      1.10    271.26           RANKING
   2      3      8       -6.72      1.77    271.32           RANKING
   3      1     19       -6.29      0.00    271.30           RANKING
   4      1     16       -5.86      0.00    271.00           RANKING
   5      1      3       -5.78      0.00    270.59           RANKING
   5      2     13       -5.37      1.56    270.57           RANKING
   6      1      5       -5.52      0.00    270.86           RANKING
   6      2      2       -5.27      1.99    270.76           RANKING
   7      1     15       -5.28      0.00    270.73           RANKING
   8      1     17       -5.21      0.00    270.74           RANKING
   8      2      7       -4.33      1.84    270.31           RANKING
   9      1      4       -5.09      0.00    269.60           RANKING
  10      1     18       -4.11      0.00    270.44           RANKING
  11      1     14       -3.79      0.00    270.66           RANKING
  12      1     11       -3.08      0.00    271.30           RANKING

Run time 0.538 sec
Idle time 0.240 sec
