AutoDock-GPU version: v1.6

**********************************************************
**    AutoDock-GPU AUTODOCKTOOLS-COMPATIBLE DLG FILE    **
**********************************************************


    DOCKING PARAMETERS
    ________________________


Ligand file:                               /home/a/REINVENT4/ReinventStudies/pleaseWork/justRnve/graph-dock-3mta9a/graph-DockGPU/node-autodockgpu/inputs/QVTIEDAELODWLO-WYUMXYHSNA-N.pdbqt
Grid fld file:                             /home/a/REINVENT4/ReinventStudies/mols/Rad51/maps/rad51_receptor.maps.fld

Random seed:                               42
Number of runs:                            20
Number of energy evaluations:              1132076
Number of generations:                     42000
Size of population:                        150
Rate of crossover:                         80.000000%
Tournament selection probability limit:    60.000000%
Rate of mutation:                          2.000000%
Maximal allowed delta movement:            +/- 6.000000A
Maximal allowed delta angle:               +/- 90.000000

Rate of local search:                      100.000000%
Maximal number of local search iterations: 300
Rho lower bound:                           0.010000
Spread of local search delta movement:     2.000000A
Spread of local search delta angle:        74.999999
Limit of consecutive successes/failures:   4

Handle symmetry during clustering:         YES
RMSD tolerance:                            2.000000A

Program call in command line was:          /home/a/REINVENT4/ReinventStudies/adgpu-v1.6_linux_x64_cuda12_128wi --filelist batch.txt --heuristics 1 --nrun 20 --psize 150 --lsit 300 --seed 42 --heurmax 12000000 


    GRID PARAMETERS
    ________________________


Receptor name:                             rad51_receptor
Number of grid points (x, y, z):           53, 53, 53
Grid center (x, y, z):                     139.950000, 75.640000, 221.970000A
Grid size (x, y, z):                       19.500000, 19.500000, 19.500000A
Grid spacing:                              0.375000A


    LIGAND PARAMETERS
    ________________________


Ligand name:                               /home/a/REINVENT4/ReinventStudies/pleaseWork/justRnve/graph-dock-3mta9a/graph-DockGPU/node-autodockgpu/inputs/QVTIEDAELODWLO-WYUMXYHSNA-N
Number of atoms:                           19
Number of rotatable bonds:                 1
Number of atom types:                      4


    DUMMY DATA (only for ADT-compatibility)
    ________________________


DPF> outlev 1
DPF> ga_run 20
DPF> fld /home/a/REINVENT4/ReinventStudies/mols/Rad51/maps/rad51_receptor.maps.fld
DPF> move /home/a/REINVENT4/ReinventStudies/pleaseWork/justRnve/graph-dock-3mta9a/graph-DockGPU/node-autodockgpu/inputs/QVTIEDAELODWLO-WYUMXYHSNA-N.pdbqt


    COUNTER STATES
    ________________________


Number of energy evaluations performed:    707763
Number of generations used:                30


    INPUT LIGAND PDBQT FILE:
    ________________________


INPUT-LIGAND-PDBQT: REMARK SMILES c1cc(-c2ccc3nccn3n2)c2cc[nH]c2n1
INPUT-LIGAND-PDBQT: REMARK SMILES IDX 1 1 2 2 3 3 13 4 14 5 15 6 16 7 17 8 18 9 4 11 5 12 12 13
INPUT-LIGAND-PDBQT: REMARK SMILES IDX 6 14 11 15 7 16 10 17 8 18 9 19
INPUT-LIGAND-PDBQT: REMARK H PARENT 16 10
INPUT-LIGAND-PDBQT: ROOT
INPUT-LIGAND-PDBQT: ATOM      1  C   UNL     1       1.639   2.663   1.989  1.00  0.00     0.114 A 
INPUT-LIGAND-PDBQT: ATOM      2  C   UNL     1       0.711   1.861   1.290  1.00  0.00     0.031 A 
INPUT-LIGAND-PDBQT: ATOM      3  C   UNL     1       1.160   0.920   0.338  1.00  0.00     0.014 A 
INPUT-LIGAND-PDBQT: ATOM      4  C   UNL     1       2.548   0.819   0.157  1.00  0.00     0.028 A 
INPUT-LIGAND-PDBQT: ATOM      5  C   UNL     1       3.331  -0.026  -0.609  1.00  0.00     0.030 A 
INPUT-LIGAND-PDBQT: ATOM      6  C   UNL     1       4.647   0.332  -0.328  1.00  0.00     0.085 A 
INPUT-LIGAND-PDBQT: ATOM      7  N   UNL     1       4.689   1.339   0.573  1.00  0.00    -0.346 N 
INPUT-LIGAND-PDBQT: ATOM      8  C   UNL     1       3.409   1.616   0.860  1.00  0.00     0.137 A 
INPUT-LIGAND-PDBQT: ATOM      9  N   UNL     1       2.980   2.528   1.766  1.00  0.00    -0.239 NA
INPUT-LIGAND-PDBQT: ATOM     10  H   UNL     1       5.541   1.788   0.976  1.00  0.00     0.167 HD
INPUT-LIGAND-PDBQT: ENDROOT
INPUT-LIGAND-PDBQT: BRANCH   3  11
INPUT-LIGAND-PDBQT: ATOM     11  C   UNL     1       0.189   0.084  -0.400  1.00  0.00     0.092 A 
INPUT-LIGAND-PDBQT: ATOM     12  C   UNL     1       0.321  -0.151  -1.790  1.00  0.00     0.035 A 
INPUT-LIGAND-PDBQT: ATOM     13  N   UNL     1      -0.887  -0.435   0.262  1.00  0.00    -0.166 NA
INPUT-LIGAND-PDBQT: ATOM     14  C   UNL     1      -0.631  -0.932  -2.463  1.00  0.00     0.051 A 
INPUT-LIGAND-PDBQT: ATOM     15  N   UNL     1      -1.771  -1.171  -0.408  1.00  0.00    -0.221 N 
INPUT-LIGAND-PDBQT: ATOM     16  C   UNL     1      -1.685  -1.436  -1.714  1.00  0.00     0.153 A 
INPUT-LIGAND-PDBQT: ATOM     17  C   UNL     1      -2.878  -1.768   0.044  1.00  0.00     0.135 A 
INPUT-LIGAND-PDBQT: ATOM     18  N   UNL     1      -2.703  -2.197  -2.163  1.00  0.00    -0.236 NA
INPUT-LIGAND-PDBQT: ATOM     19  C   UNL     1      -3.451  -2.404  -1.048  1.00  0.00     0.134 A 
INPUT-LIGAND-PDBQT: ENDBRANCH   3  11
INPUT-LIGAND-PDBQT: TORSDOF 1


    FINAL DOCKED STATE:
    ________________________


Run:   1 / 20
Time taken for this run:   0.020s

DOCKED: MODEL        1
DOCKED: USER    Run = 1
DOCKED: USER
DOCKED: USER    Estimated Free Energy of Binding    =  -6.47 kcal/mol  [=(1)+(2)+(3)-(4)]
DOCKED: USER
DOCKED: USER    (1) Final Intermolecular Energy     =  -6.77 kcal/mol
DOCKED: USER        vdW + Hbond + desolv Energy     =  -6.71 kcal/mol
DOCKED: USER        Electrostatic Energy            =  -0.06 kcal/mol
DOCKED: USER        Moving Ligand-Fixed Receptor    =  -6.77 kcal/mol
DOCKED: USER        Moving Ligand-Moving Receptor   =  +0.00 kcal/mol
DOCKED: USER    (2) Final Total Internal Energy     =  -0.33 kcal/mol
DOCKED: USER    (3) Torsional Free Energy           =  +0.30 kcal/mol
DOCKED: USER    (4) Unbound System's Energy         =  -0.33 kcal/mol
DOCKED: USER
DOCKED: USER
DOCKED: REMARK SMILES c1cc(-c2ccc3nccn3n2)c2cc[nH]c2n1
DOCKED: REMARK SMILES IDX 1 1 2 2 3 3 13 4 14 5 15 6 16 7 17 8 18 9 4 11 5 12 12 13
DOCKED: REMARK SMILES IDX 6 14 11 15 7 16 10 17 8 18 9 19
DOCKED: REMARK H PARENT 16 10
DOCKED: USER                              x       y       z     vdW  Elec       q    Type
DOCKED: USER                           _______ _______ _______ _____ _____    ______ ____
DOCKED: ROOT
DOCKED: ATOM      1  C   UNL     1     141.116  71.360 228.057 -0.64 -0.02    +0.114 A  
DOCKED: ATOM      2  C   UNL     1     140.701  71.840 226.796 -0.68 -0.01    +0.031 A  
DOCKED: ATOM      3  C   UNL     1     140.255  70.940 225.804 -0.55 -0.00    +0.014 A  
DOCKED: ATOM      4  C   UNL     1     140.227  69.581 226.153 -0.49 -0.00    +0.028 A  
DOCKED: ATOM      5  C   UNL     1     139.785  68.454 225.484 -0.45 -0.00    +0.030 A  
DOCKED: ATOM      6  C   UNL     1     139.974  67.398 226.371 -0.59 -0.01    +0.085 A  
DOCKED: ATOM      7  N   UNL     1     140.497  67.838 227.538 -0.29 +0.10    -0.346 N  
DOCKED: ATOM      8  C   UNL     1     140.637  69.163 227.389 -0.50 -0.03    +0.137 A  
DOCKED: ATOM      9  N   UNL     1     141.076  70.024 228.339 -0.32 +0.05    -0.239 NA 
DOCKED: ATOM     10  H   UNL     1     140.721  67.267 228.382 -0.27 -0.08    +0.167 HD 
DOCKED: ENDROOT
DOCKED: BRANCH   3  11
DOCKED: ATOM     11  C   UNL     1     139.827  71.440 224.481 -0.37 -0.02    +0.092 A  
DOCKED: ATOM     12  C   UNL     1     138.548  71.137 223.953 -0.29 -0.01    +0.035 A  
DOCKED: ATOM     13  N   UNL     1     140.700  72.172 223.727 -0.26 +0.01    -0.166 NA 
DOCKED: ATOM     14  C   UNL     1     138.183  71.611 222.684 -0.19 -0.01    +0.051 A  
DOCKED: ATOM     15  N   UNL     1     140.320  72.605 222.527 -0.23 +0.02    -0.221 N  
DOCKED: ATOM     16  C   UNL     1     139.121  72.361 221.990 -0.18 -0.03    +0.153 A  
DOCKED: ATOM     17  C   UNL     1     141.009  73.330 221.641 -0.24 -0.01    +0.135 A  
DOCKED: ATOM     18  N   UNL     1     138.977  72.901 220.763 -0.05 +0.05    -0.236 NA 
DOCKED: ATOM     19  C   UNL     1     140.171  73.512 220.550 -0.12 -0.03    +0.134 A  
DOCKED: ENDBRANCH   3  11
DOCKED: TORSDOF 1
DOCKED: TER
DOCKED: ENDMDL
________________________________________________________________________________


    FINAL DOCKED STATE:
    ________________________


Run:   2 / 20
Time taken for this run:   0.020s

DOCKED: MODEL        2
DOCKED: USER    Run = 2
DOCKED: USER
DOCKED: USER    Estimated Free Energy of Binding    =  -6.47 kcal/mol  [=(1)+(2)+(3)-(4)]
DOCKED: USER
DOCKED: USER    (1) Final Intermolecular Energy     =  -6.77 kcal/mol
DOCKED: USER        vdW + Hbond + desolv Energy     =  -6.71 kcal/mol
DOCKED: USER        Electrostatic Energy            =  -0.06 kcal/mol
DOCKED: USER        Moving Ligand-Fixed Receptor    =  -6.77 kcal/mol
DOCKED: USER        Moving Ligand-Moving Receptor   =  +0.00 kcal/mol
DOCKED: USER    (2) Final Total Internal Energy     =  -0.33 kcal/mol
DOCKED: USER    (3) Torsional Free Energy           =  +0.30 kcal/mol
DOCKED: USER    (4) Unbound System's Energy         =  -0.33 kcal/mol
DOCKED: USER
DOCKED: USER
DOCKED: REMARK SMILES c1cc(-c2ccc3nccn3n2)c2cc[nH]c2n1
DOCKED: REMARK SMILES IDX 1 1 2 2 3 3 13 4 14 5 15 6 16 7 17 8 18 9 4 11 5 12 12 13
DOCKED: REMARK SMILES IDX 6 14 11 15 7 16 10 17 8 18 9 19
DOCKED: REMARK H PARENT 16 10
DOCKED: USER                              x       y       z     vdW  Elec       q    Type
DOCKED: USER                           _______ _______ _______ _____ _____    ______ ____
DOCKED: ROOT
DOCKED: ATOM      1  C   UNL     1     141.110  71.357 228.052 -0.65 -0.02    +0.114 A  
DOCKED: ATOM      2  C   UNL     1     140.698  71.837 226.790 -0.68 -0.01    +0.031 A  
DOCKED: ATOM      3  C   UNL     1     140.249  70.938 225.799 -0.55 -0.00    +0.014 A  
DOCKED: ATOM      4  C   UNL     1     140.215  69.579 226.149 -0.49 -0.00    +0.028 A  
DOCKED: ATOM      5  C   UNL     1     139.767  68.453 225.480 -0.45 -0.00    +0.030 A  
DOCKED: ATOM      6  C   UNL     1     139.951  67.397 226.369 -0.59 -0.01    +0.085 A  
DOCKED: ATOM      7  N   UNL     1     140.475  67.836 227.536 -0.29 +0.10    -0.346 N  
DOCKED: ATOM      8  C   UNL     1     140.621  69.161 227.386 -0.50 -0.03    +0.137 A  
DOCKED: ATOM      9  N   UNL     1     141.064  70.021 228.335 -0.32 +0.05    -0.239 NA 
DOCKED: ATOM     10  H   UNL     1     140.695  67.265 228.381 -0.27 -0.08    +0.167 HD 
DOCKED: ENDROOT
DOCKED: BRANCH   3  11
DOCKED: ATOM     11  C   UNL     1     139.824  71.439 224.474 -0.36 -0.02    +0.092 A  
DOCKED: ATOM     12  C   UNL     1     138.544  71.140 223.946 -0.29 -0.01    +0.035 A  
DOCKED: ATOM     13  N   UNL     1     140.700  72.166 223.721 -0.26 +0.01    -0.166 NA 
DOCKED: ATOM     14  C   UNL     1     138.182  71.614 222.676 -0.19 -0.01    +0.051 A  
DOCKED: ATOM     15  N   UNL     1     140.323  72.600 222.520 -0.23 +0.02    -0.221 N  
DOCKED: ATOM     16  C   UNL     1     139.124  72.360 221.982 -0.17 -0.03    +0.153 A  
DOCKED: ATOM     17  C   UNL     1     141.016  73.321 221.634 -0.24 -0.01    +0.135 A  
DOCKED: ATOM     18  N   UNL     1     138.983  72.899 220.754 -0.05 +0.05    -0.236 NA 
DOCKED: ATOM     19  C   UNL     1     140.180  73.505 220.542 -0.12 -0.03    +0.134 A  
DOCKED: ENDBRANCH   3  11
DOCKED: TORSDOF 1
DOCKED: TER
DOCKED: ENDMDL
________________________________________________________________________________


    FINAL DOCKED STATE:
    ________________________


Run:   3 / 20
Time taken for this run:   0.020s

DOCKED: MODEL        3
DOCKED: USER    Run = 3
DOCKED: USER
DOCKED: USER    Estimated Free Energy of Binding    =  -6.47 kcal/mol  [=(1)+(2)+(3)-(4)]
DOCKED: USER
DOCKED: USER    (1) Final Intermolecular Energy     =  -6.77 kcal/mol
DOCKED: USER        vdW + Hbond + desolv Energy     =  -6.71 kcal/mol
DOCKED: USER        Electrostatic Energy            =  -0.06 kcal/mol
DOCKED: USER        Moving Ligand-Fixed Receptor    =  -6.77 kcal/mol
DOCKED: USER        Moving Ligand-Moving Receptor   =  +0.00 kcal/mol
DOCKED: USER    (2) Final Total Internal Energy     =  -0.33 kcal/mol
DOCKED: USER    (3) Torsional Free Energy           =  +0.30 kcal/mol
DOCKED: USER    (4) Unbound System's Energy         =  -0.33 kcal/mol
DOCKED: USER
DOCKED: USER
DOCKED: REMARK SMILES c1cc(-c2ccc3nccn3n2)c2cc[nH]c2n1
DOCKED: REMARK SMILES IDX 1 1 2 2 3 3 13 4 14 5 15 6 16 7 17 8 18 9 4 11 5 12 12 13
DOCKED: REMARK SMILES IDX 6 14 11 15 7 16 10 17 8 18 9 19
DOCKED: REMARK H PARENT 16 10
DOCKED: USER                              x       y       z     vdW  Elec       q    Type
DOCKED: USER                           _______ _______ _______ _____ _____    ______ ____
DOCKED: ROOT
DOCKED: ATOM      1  C   UNL     1     141.116  71.362 228.051 -0.64 -0.02    +0.114 A  
DOCKED: ATOM      2  C   UNL     1     140.703  71.838 226.787 -0.68 -0.01    +0.031 A  
DOCKED: ATOM      3  C   UNL     1     140.253  70.935 225.800 -0.55 -0.00    +0.014 A  
DOCKED: ATOM      4  C   UNL     1     140.218  69.577 226.156 -0.49 -0.00    +0.028 A  
DOCKED: ATOM      5  C   UNL     1     139.769  68.449 225.493 -0.46 -0.00    +0.030 A  
DOCKED: ATOM      6  C   UNL     1     139.953  67.397 226.385 -0.59 -0.01    +0.085 A  
DOCKED: ATOM      7  N   UNL     1     140.478  67.840 227.549 -0.29 +0.10    -0.346 N  
DOCKED: ATOM      8  C   UNL     1     140.625  69.164 227.394 -0.50 -0.03    +0.137 A  
DOCKED: ATOM      9  N   UNL     1     141.069  70.028 228.340 -0.32 +0.05    -0.239 NA 
DOCKED: ATOM     10  H   UNL     1     140.700  67.273 228.397 -0.27 -0.08    +0.167 HD 
DOCKED: ENDROOT
DOCKED: BRANCH   3  11
DOCKED: ATOM     11  C   UNL     1     139.827  71.430 224.474 -0.37 -0.02    +0.092 A  
DOCKED: ATOM     12  C   UNL     1     138.549  71.124 223.945 -0.29 -0.01    +0.035 A  
DOCKED: ATOM     13  N   UNL     1     140.700  72.160 223.720 -0.27 +0.01    -0.166 NA 
DOCKED: ATOM     14  C   UNL     1     138.186  71.594 222.674 -0.19 -0.01    +0.051 A  
DOCKED: ATOM     15  N   UNL     1     140.322  72.589 222.517 -0.23 +0.02    -0.221 N  
DOCKED: ATOM     16  C   UNL     1     139.125  72.342 221.979 -0.17 -0.03    +0.153 A  
DOCKED: ATOM     17  C   UNL     1     141.013  73.312 221.631 -0.24 -0.01    +0.135 A  
DOCKED: ATOM     18  N   UNL     1     138.983  72.878 220.750 -0.05 +0.05    -0.236 NA 
DOCKED: ATOM     19  C   UNL     1     140.177  73.489 220.537 -0.12 -0.02    +0.134 A  
DOCKED: ENDBRANCH   3  11
DOCKED: TORSDOF 1
DOCKED: TER
DOCKED: ENDMDL
________________________________________________________________________________


    FINAL DOCKED STATE:
    ________________________


Run:   4 / 20
Time taken for this run:   0.020s

DOCKED: MODEL        4
DOCKED: USER    Run = 4
DOCKED: USER
DOCKED: USER    Estimated Free Energy of Binding    =  -6.47 kcal/mol  [=(1)+(2)+(3)-(4)]
DOCKED: USER
DOCKED: USER    (1) Final Intermolecular Energy     =  -6.77 kcal/mol
DOCKED: USER        vdW + Hbond + desolv Energy     =  -6.71 kcal/mol
DOCKED: USER        Electrostatic Energy            =  -0.06 kcal/mol
DOCKED: USER        Moving Ligand-Fixed Receptor    =  -6.77 kcal/mol
DOCKED: USER        Moving Ligand-Moving Receptor   =  +0.00 kcal/mol
DOCKED: USER    (2) Final Total Internal Energy     =  -0.33 kcal/mol
DOCKED: USER    (3) Torsional Free Energy           =  +0.30 kcal/mol
DOCKED: USER    (4) Unbound System's Energy         =  -0.33 kcal/mol
DOCKED: USER
DOCKED: USER
DOCKED: REMARK SMILES c1cc(-c2ccc3nccn3n2)c2cc[nH]c2n1
DOCKED: REMARK SMILES IDX 1 1 2 2 3 3 13 4 14 5 15 6 16 7 17 8 18 9 4 11 5 12 12 13
DOCKED: REMARK SMILES IDX 6 14 11 15 7 16 10 17 8 18 9 19
DOCKED: REMARK H PARENT 16 10
DOCKED: USER                              x       y       z     vdW  Elec       q    Type
DOCKED: USER                           _______ _______ _______ _____ _____    ______ ____
DOCKED: ROOT
DOCKED: ATOM      1  C   UNL     1     141.107  71.353 228.057 -0.65 -0.02    +0.114 A  
DOCKED: ATOM      2  C   UNL     1     140.696  71.833 226.795 -0.68 -0.01    +0.031 A  
DOCKED: ATOM      3  C   UNL     1     140.248  70.934 225.803 -0.55 -0.00    +0.014 A  
DOCKED: ATOM      4  C   UNL     1     140.216  69.575 226.153 -0.49 -0.00    +0.028 A  
DOCKED: ATOM      5  C   UNL     1     139.771  68.449 225.484 -0.45 -0.00    +0.030 A  
DOCKED: ATOM      6  C   UNL     1     139.956  67.392 226.372 -0.59 -0.01    +0.085 A  
DOCKED: ATOM      7  N   UNL     1     140.478  67.832 227.539 -0.29 +0.10    -0.346 N  
DOCKED: ATOM      8  C   UNL     1     140.622  69.157 227.390 -0.50 -0.03    +0.137 A  
DOCKED: ATOM      9  N   UNL     1     141.063  70.017 228.340 -0.32 +0.05    -0.239 NA 
DOCKED: ATOM     10  H   UNL     1     140.699  67.261 228.385 -0.27 -0.08    +0.167 HD 
DOCKED: ENDROOT
DOCKED: BRANCH   3  11
DOCKED: ATOM     11  C   UNL     1     139.823  71.434 224.479 -0.37 -0.02    +0.092 A  
DOCKED: ATOM     12  C   UNL     1     138.543  71.137 223.951 -0.29 -0.01    +0.035 A  
DOCKED: ATOM     13  N   UNL     1     140.700  72.160 223.724 -0.26 +0.01    -0.166 NA 
DOCKED: ATOM     14  C   UNL     1     138.180  71.611 222.681 -0.19 -0.01    +0.051 A  
DOCKED: ATOM     15  N   UNL     1     140.322  72.594 222.524 -0.23 +0.02    -0.221 N  
DOCKED: ATOM     16  C   UNL     1     139.123  72.355 221.987 -0.17 -0.03    +0.153 A  
DOCKED: ATOM     17  C   UNL     1     141.016  73.314 221.637 -0.24 -0.01    +0.135 A  
DOCKED: ATOM     18  N   UNL     1     138.982  72.894 220.759 -0.05 +0.05    -0.236 NA 
DOCKED: ATOM     19  C   UNL     1     140.179  73.498 220.545 -0.12 -0.02    +0.134 A  
DOCKED: ENDBRANCH   3  11
DOCKED: TORSDOF 1
DOCKED: TER
DOCKED: ENDMDL
________________________________________________________________________________


    FINAL DOCKED STATE:
    ________________________


Run:   5 / 20
Time taken for this run:   0.020s

DOCKED: MODEL        5
DOCKED: USER    Run = 5
DOCKED: USER
DOCKED: USER    Estimated Free Energy of Binding    =  -6.47 kcal/mol  [=(1)+(2)+(3)-(4)]
DOCKED: USER
DOCKED: USER    (1) Final Intermolecular Energy     =  -6.77 kcal/mol
DOCKED: USER        vdW + Hbond + desolv Energy     =  -6.71 kcal/mol
DOCKED: USER        Electrostatic Energy            =  -0.06 kcal/mol
DOCKED: USER        Moving Ligand-Fixed Receptor    =  -6.77 kcal/mol
DOCKED: USER        Moving Ligand-Moving Receptor   =  +0.00 kcal/mol
DOCKED: USER    (2) Final Total Internal Energy     =  -0.33 kcal/mol
DOCKED: USER    (3) Torsional Free Energy           =  +0.30 kcal/mol
DOCKED: USER    (4) Unbound System's Energy         =  -0.33 kcal/mol
DOCKED: USER
DOCKED: USER
DOCKED: REMARK SMILES c1cc(-c2ccc3nccn3n2)c2cc[nH]c2n1
DOCKED: REMARK SMILES IDX 1 1 2 2 3 3 13 4 14 5 15 6 16 7 17 8 18 9 4 11 5 12 12 13
DOCKED: REMARK SMILES IDX 6 14 11 15 7 16 10 17 8 18 9 19
DOCKED: REMARK H PARENT 16 10
DOCKED: USER                              x       y       z     vdW  Elec       q    Type
DOCKED: USER                           _______ _______ _______ _____ _____    ______ ____
DOCKED: ROOT
DOCKED: ATOM      1  C   UNL     1     141.110  71.346 228.056 -0.64 -0.02    +0.114 A  
DOCKED: ATOM      2  C   UNL     1     140.697  71.830 226.796 -0.68 -0.01    +0.031 A  
DOCKED: ATOM      3  C   UNL     1     140.248  70.933 225.803 -0.55 -0.00    +0.014 A  
DOCKED: ATOM      4  C   UNL     1     140.215  69.573 226.149 -0.49 -0.00    +0.028 A  
DOCKED: ATOM      5  C   UNL     1     139.768  68.449 225.477 -0.45 -0.00    +0.030 A  
DOCKED: ATOM      6  C   UNL     1     139.954  67.390 226.363 -0.59 -0.01    +0.085 A  
DOCKED: ATOM      7  N   UNL     1     140.478  67.826 227.530 -0.29 +0.10    -0.346 N  
DOCKED: ATOM      8  C   UNL     1     140.623  69.151 227.384 -0.50 -0.03    +0.137 A  
DOCKED: ATOM      9  N   UNL     1     141.065  70.009 228.336 -0.32 +0.05    -0.239 NA 
DOCKED: ATOM     10  H   UNL     1     140.699  67.253 228.374 -0.28 -0.09    +0.167 HD 
DOCKED: ENDROOT
DOCKED: BRANCH   3  11
DOCKED: ATOM     11  C   UNL     1     139.821  71.437 224.480 -0.36 -0.02    +0.092 A  
DOCKED: ATOM     12  C   UNL     1     138.545  71.132 223.948 -0.29 -0.01    +0.035 A  
DOCKED: ATOM     13  N   UNL     1     140.694  72.174 223.731 -0.26 +0.01    -0.166 NA 
DOCKED: ATOM     14  C   UNL     1     138.181  71.610 222.680 -0.19 -0.01    +0.051 A  
DOCKED: ATOM     15  N   UNL     1     140.316  72.611 222.532 -0.23 +0.02    -0.221 N  
DOCKED: ATOM     16  C   UNL     1     139.120  72.366 221.991 -0.18 -0.03    +0.153 A  
DOCKED: ATOM     17  C   UNL     1     141.005  73.341 221.650 -0.23 -0.01    +0.135 A  
DOCKED: ATOM     18  N   UNL     1     138.976  72.910 220.766 -0.05 +0.05    -0.236 NA 
DOCKED: ATOM     19  C   UNL     1     140.170  73.525 220.558 -0.12 -0.03    +0.134 A  
DOCKED: ENDBRANCH   3  11
DOCKED: TORSDOF 1
DOCKED: TER
DOCKED: ENDMDL
________________________________________________________________________________


    FINAL DOCKED STATE:
    ________________________


Run:   6 / 20
Time taken for this run:   0.020s

DOCKED: MODEL        6
DOCKED: USER    Run = 6
DOCKED: USER
DOCKED: USER    Estimated Free Energy of Binding    =  -6.47 kcal/mol  [=(1)+(2)+(3)-(4)]
DOCKED: USER
DOCKED: USER    (1) Final Intermolecular Energy     =  -6.77 kcal/mol
DOCKED: USER        vdW + Hbond + desolv Energy     =  -6.71 kcal/mol
DOCKED: USER        Electrostatic Energy            =  -0.06 kcal/mol
DOCKED: USER        Moving Ligand-Fixed Receptor    =  -6.77 kcal/mol
DOCKED: USER        Moving Ligand-Moving Receptor   =  +0.00 kcal/mol
DOCKED: USER    (2) Final Total Internal Energy     =  -0.33 kcal/mol
DOCKED: USER    (3) Torsional Free Energy           =  +0.30 kcal/mol
DOCKED: USER    (4) Unbound System's Energy         =  -0.33 kcal/mol
DOCKED: USER
DOCKED: USER
DOCKED: REMARK SMILES c1cc(-c2ccc3nccn3n2)c2cc[nH]c2n1
DOCKED: REMARK SMILES IDX 1 1 2 2 3 3 13 4 14 5 15 6 16 7 17 8 18 9 4 11 5 12 12 13
DOCKED: REMARK SMILES IDX 6 14 11 15 7 16 10 17 8 18 9 19
DOCKED: REMARK H PARENT 16 10
DOCKED: USER                              x       y       z     vdW  Elec       q    Type
DOCKED: USER                           _______ _______ _______ _____ _____    ______ ____
DOCKED: ROOT
DOCKED: ATOM      1  C   UNL     1     141.114  71.372 228.061 -0.65 -0.02    +0.114 A  
DOCKED: ATOM      2  C   UNL     1     140.698  71.850 226.799 -0.68 -0.01    +0.031 A  
DOCKED: ATOM      3  C   UNL     1     140.253  70.947 225.809 -0.55 -0.00    +0.014 A  
DOCKED: ATOM      4  C   UNL     1     140.227  69.589 226.160 -0.49 -0.00    +0.028 A  
DOCKED: ATOM      5  C   UNL     1     139.785  68.460 225.493 -0.45 -0.00    +0.030 A  
DOCKED: ATOM      6  C   UNL     1     139.976  67.405 226.381 -0.59 -0.01    +0.085 A  
DOCKED: ATOM      7  N   UNL     1     140.499  67.848 227.547 -0.29 +0.10    -0.346 N  
DOCKED: ATOM      8  C   UNL     1     140.637  69.173 227.397 -0.50 -0.03    +0.137 A  
DOCKED: ATOM      9  N   UNL     1     141.076  70.036 228.345 -0.32 +0.05    -0.239 NA 
DOCKED: ATOM     10  H   UNL     1     140.724  67.279 228.392 -0.27 -0.08    +0.167 HD 
DOCKED: ENDROOT
DOCKED: BRANCH   3  11
DOCKED: ATOM     11  C   UNL     1     139.823  71.445 224.485 -0.36 -0.02    +0.092 A  
DOCKED: ATOM     12  C   UNL     1     138.544  71.139 223.959 -0.29 -0.01    +0.035 A  
DOCKED: ATOM     13  N   UNL     1     140.694  72.177 223.730 -0.26 +0.01    -0.166 NA 
DOCKED: ATOM     14  C   UNL     1     138.177  71.611 222.689 -0.19 -0.01    +0.051 A  
DOCKED: ATOM     15  N   UNL     1     140.312  72.608 222.529 -0.23 +0.02    -0.221 N  
DOCKED: ATOM     16  C   UNL     1     139.114  72.362 221.993 -0.17 -0.03    +0.153 A  
DOCKED: ATOM     17  C   UNL     1     141.000  73.333 221.642 -0.24 -0.01    +0.135 A  
DOCKED: ATOM     18  N   UNL     1     138.968  72.899 220.766 -0.05 +0.05    -0.236 NA 
DOCKED: ATOM     19  C   UNL     1     140.161  73.512 220.551 -0.12 -0.03    +0.134 A  
DOCKED: ENDBRANCH   3  11
DOCKED: TORSDOF 1
DOCKED: TER
DOCKED: ENDMDL
________________________________________________________________________________


    FINAL DOCKED STATE:
    ________________________


Run:   7 / 20
Time taken for this run:   0.020s

DOCKED: MODEL        7
DOCKED: USER    Run = 7
DOCKED: USER
DOCKED: USER    Estimated Free Energy of Binding    =  -6.47 kcal/mol  [=(1)+(2)+(3)-(4)]
DOCKED: USER
DOCKED: USER    (1) Final Intermolecular Energy     =  -6.77 kcal/mol
DOCKED: USER        vdW + Hbond + desolv Energy     =  -6.71 kcal/mol
DOCKED: USER        Electrostatic Energy            =  -0.06 kcal/mol
DOCKED: USER        Moving Ligand-Fixed Receptor    =  -6.77 kcal/mol
DOCKED: USER        Moving Ligand-Moving Receptor   =  +0.00 kcal/mol
DOCKED: USER    (2) Final Total Internal Energy     =  -0.33 kcal/mol
DOCKED: USER    (3) Torsional Free Energy           =  +0.30 kcal/mol
DOCKED: USER    (4) Unbound System's Energy         =  -0.33 kcal/mol
DOCKED: USER
DOCKED: USER
DOCKED: REMARK SMILES c1cc(-c2ccc3nccn3n2)c2cc[nH]c2n1
DOCKED: REMARK SMILES IDX 1 1 2 2 3 3 13 4 14 5 15 6 16 7 17 8 18 9 4 11 5 12 12 13
DOCKED: REMARK SMILES IDX 6 14 11 15 7 16 10 17 8 18 9 19
DOCKED: REMARK H PARENT 16 10
DOCKED: USER                              x       y       z     vdW  Elec       q    Type
DOCKED: USER                           _______ _______ _______ _____ _____    ______ ____
DOCKED: ROOT
DOCKED: ATOM      1  C   UNL     1     141.116  71.363 228.047 -0.65 -0.02    +0.114 A  
DOCKED: ATOM      2  C   UNL     1     140.702  71.843 226.785 -0.68 -0.01    +0.031 A  
DOCKED: ATOM      3  C   UNL     1     140.251  70.943 225.795 -0.55 -0.00    +0.014 A  
DOCKED: ATOM      4  C   UNL     1     140.219  69.585 226.145 -0.49 -0.00    +0.028 A  
DOCKED: ATOM      5  C   UNL     1     139.771  68.459 225.478 -0.45 -0.00    +0.030 A  
DOCKED: ATOM      6  C   UNL     1     139.957  67.403 226.367 -0.59 -0.01    +0.085 A  
DOCKED: ATOM      7  N   UNL     1     140.482  67.843 227.532 -0.29 +0.10    -0.346 N  
DOCKED: ATOM      8  C   UNL     1     140.627  69.167 227.382 -0.50 -0.03    +0.137 A  
DOCKED: ATOM      9  N   UNL     1     141.071  70.028 228.330 -0.32 +0.05    -0.239 NA 
DOCKED: ATOM     10  H   UNL     1     140.704  67.272 228.378 -0.27 -0.08    +0.167 HD 
DOCKED: ENDROOT
DOCKED: BRANCH   3  11
DOCKED: ATOM     11  C   UNL     1     139.824  71.444 224.471 -0.36 -0.02    +0.092 A  
DOCKED: ATOM     12  C   UNL     1     138.548  71.137 223.941 -0.29 -0.01    +0.035 A  
DOCKED: ATOM     13  N   UNL     1     140.696  72.179 223.720 -0.26 +0.01    -0.166 NA 
DOCKED: ATOM     14  C   UNL     1     138.183  71.610 222.671 -0.18 -0.01    +0.051 A  
DOCKED: ATOM     15  N   UNL     1     140.317  72.612 222.519 -0.23 +0.02    -0.221 N  
DOCKED: ATOM     16  C   UNL     1     139.120  72.365 221.980 -0.17 -0.03    +0.153 A  
DOCKED: ATOM     17  C   UNL     1     141.005  73.341 221.636 -0.24 -0.01    +0.135 A  
DOCKED: ATOM     18  N   UNL     1     138.976  72.905 220.753 -0.05 +0.05    -0.236 NA 
DOCKED: ATOM     19  C   UNL     1     140.169  73.520 220.543 -0.12 -0.03    +0.134 A  
DOCKED: ENDBRANCH   3  11
DOCKED: TORSDOF 1
DOCKED: TER
DOCKED: ENDMDL
________________________________________________________________________________


    FINAL DOCKED STATE:
    ________________________


Run:   8 / 20
Time taken for this run:   0.020s

DOCKED: MODEL        8
DOCKED: USER    Run = 8
DOCKED: USER
DOCKED: USER    Estimated Free Energy of Binding    =  -6.33 kcal/mol  [=(1)+(2)+(3)-(4)]
DOCKED: USER
DOCKED: USER    (1) Final Intermolecular Energy     =  -6.63 kcal/mol
DOCKED: USER        vdW + Hbond + desolv Energy     =  -6.60 kcal/mol
DOCKED: USER        Electrostatic Energy            =  -0.03 kcal/mol
DOCKED: USER        Moving Ligand-Fixed Receptor    =  -6.63 kcal/mol
DOCKED: USER        Moving Ligand-Moving Receptor   =  +0.00 kcal/mol
DOCKED: USER    (2) Final Total Internal Energy     =  -0.31 kcal/mol
DOCKED: USER    (3) Torsional Free Energy           =  +0.30 kcal/mol
DOCKED: USER    (4) Unbound System's Energy         =  -0.31 kcal/mol
DOCKED: USER
DOCKED: USER
DOCKED: REMARK SMILES c1cc(-c2ccc3nccn3n2)c2cc[nH]c2n1
DOCKED: REMARK SMILES IDX 1 1 2 2 3 3 13 4 14 5 15 6 16 7 17 8 18 9 4 11 5 12 12 13
DOCKED: REMARK SMILES IDX 6 14 11 15 7 16 10 17 8 18 9 19
DOCKED: REMARK H PARENT 16 10
DOCKED: USER                              x       y       z     vdW  Elec       q    Type
DOCKED: USER                           _______ _______ _______ _____ _____    ______ ____
DOCKED: ROOT
DOCKED: ATOM      1  C   UNL     1     140.602  68.127 228.423 -0.50 -0.03    +0.114 A  
DOCKED: ATOM      2  C   UNL     1     139.915  67.900 227.211 -0.61 -0.01    +0.031 A  
DOCKED: ATOM      3  C   UNL     1     139.733  68.955 226.290 -0.52 -0.00    +0.014 A  
DOCKED: ATOM      4  C   UNL     1     140.285  70.198 226.637 -0.54 -0.00    +0.028 A  
DOCKED: ATOM      5  C   UNL     1     140.371  71.402 225.962 -0.56 -0.01    +0.030 A  
DOCKED: ATOM      6  C   UNL     1     141.080  72.251 226.808 -0.62 -0.02    +0.085 A  
DOCKED: ATOM      7  N   UNL     1     141.429  71.613 227.947 -0.38 +0.07    -0.346 N  
DOCKED: ATOM      8  C   UNL     1     140.945  70.368 227.822 -0.50 -0.02    +0.137 A  
DOCKED: ATOM      9  N   UNL     1     141.111  69.361 228.713 -0.26 +0.05    -0.239 NA 
DOCKED: ATOM     10  H   UNL     1     141.979  72.002 228.744 +0.13 -0.04    +0.167 HD 
DOCKED: ENDROOT
DOCKED: BRANCH   3  11
DOCKED: ATOM     11  C   UNL     1     139.009  68.721 225.022 -0.36 -0.01    +0.092 A  
DOCKED: ATOM     12  C   UNL     1     138.074  69.659 224.521 -0.30 -0.00    +0.035 A  
DOCKED: ATOM     13  N   UNL     1     139.208  67.554 224.342 -0.66 +0.01    -0.166 NA 
DOCKED: ATOM     14  C   UNL     1     137.388  69.395 223.325 -0.19 -0.01    +0.051 A  
DOCKED: ATOM     15  N   UNL     1     138.540  67.336 223.211 -0.11 +0.02    -0.221 N  
DOCKED: ATOM     16  C   UNL     1     137.660  68.193 222.687 -0.16 -0.02    +0.153 A  
DOCKED: ATOM     17  C   UNL     1     138.590  66.276 222.400 -0.23 -0.02    +0.135 A  
DOCKED: ATOM     18  N   UNL     1     137.110  67.745 221.541 -0.07 +0.04    -0.236 NA 
DOCKED: ATOM     19  C   UNL     1     137.703  66.535 221.365 -0.15 -0.03    +0.134 A  
DOCKED: ENDBRANCH   3  11
DOCKED: TORSDOF 1
DOCKED: TER
DOCKED: ENDMDL
________________________________________________________________________________


    FINAL DOCKED STATE:
    ________________________


Run:   9 / 20
Time taken for this run:   0.020s

DOCKED: MODEL        9
DOCKED: USER    Run = 9
DOCKED: USER
DOCKED: USER    Estimated Free Energy of Binding    =  -6.47 kcal/mol  [=(1)+(2)+(3)-(4)]
DOCKED: USER
DOCKED: USER    (1) Final Intermolecular Energy     =  -6.77 kcal/mol
DOCKED: USER        vdW + Hbond + desolv Energy     =  -6.71 kcal/mol
DOCKED: USER        Electrostatic Energy            =  -0.06 kcal/mol
DOCKED: USER        Moving Ligand-Fixed Receptor    =  -6.77 kcal/mol
DOCKED: USER        Moving Ligand-Moving Receptor   =  +0.00 kcal/mol
DOCKED: USER    (2) Final Total Internal Energy     =  -0.33 kcal/mol
DOCKED: USER    (3) Torsional Free Energy           =  +0.30 kcal/mol
DOCKED: USER    (4) Unbound System's Energy         =  -0.33 kcal/mol
DOCKED: USER
DOCKED: USER
DOCKED: REMARK SMILES c1cc(-c2ccc3nccn3n2)c2cc[nH]c2n1
DOCKED: REMARK SMILES IDX 1 1 2 2 3 3 13 4 14 5 15 6 16 7 17 8 18 9 4 11 5 12 12 13
DOCKED: REMARK SMILES IDX 6 14 11 15 7 16 10 17 8 18 9 19
DOCKED: REMARK H PARENT 16 10
DOCKED: USER                              x       y       z     vdW  Elec       q    Type
DOCKED: USER                           _______ _______ _______ _____ _____    ______ ____
DOCKED: ROOT
DOCKED: ATOM      1  C   UNL     1     141.105  71.362 228.062 -0.65 -0.02    +0.114 A  
DOCKED: ATOM      2  C   UNL     1     140.691  71.840 226.800 -0.68 -0.01    +0.031 A  
DOCKED: ATOM      3  C   UNL     1     140.251  70.937 225.808 -0.55 -0.00    +0.014 A  
DOCKED: ATOM      4  C   UNL     1     140.228  69.578 226.157 -0.49 -0.00    +0.028 A  
DOCKED: ATOM      5  C   UNL     1     139.791  68.449 225.487 -0.45 -0.00    +0.030 A  
DOCKED: ATOM      6  C   UNL     1     139.983  67.394 226.376 -0.59 -0.01    +0.085 A  
DOCKED: ATOM      7  N   UNL     1     140.501  67.837 227.543 -0.29 +0.10    -0.346 N  
DOCKED: ATOM      8  C   UNL     1     140.636  69.163 227.395 -0.50 -0.03    +0.137 A  
DOCKED: ATOM      9  N   UNL     1     141.070  70.026 228.345 -0.32 +0.05    -0.239 NA 
DOCKED: ATOM     10  H   UNL     1     140.725  67.267 228.389 -0.27 -0.08    +0.167 HD 
DOCKED: ENDROOT
DOCKED: BRANCH   3  11
DOCKED: ATOM     11  C   UNL     1     139.824  71.435 224.483 -0.37 -0.02    +0.092 A  
DOCKED: ATOM     12  C   UNL     1     138.543  71.135 223.957 -0.29 -0.01    +0.035 A  
DOCKED: ATOM     13  N   UNL     1     140.699  72.160 223.726 -0.26 +0.01    -0.166 NA 
DOCKED: ATOM     14  C   UNL     1     138.179  71.606 222.687 -0.19 -0.01    +0.051 A  
DOCKED: ATOM     15  N   UNL     1     140.320  72.591 222.525 -0.23 +0.02    -0.221 N  
DOCKED: ATOM     16  C   UNL     1     139.120  72.350 221.989 -0.17 -0.03    +0.153 A  
DOCKED: ATOM     17  C   UNL     1     141.011  73.311 221.636 -0.24 -0.01    +0.135 A  
DOCKED: ATOM     18  N   UNL     1     138.977  72.886 220.761 -0.05 +0.05    -0.236 NA 
DOCKED: ATOM     19  C   UNL     1     140.173  73.492 220.545 -0.12 -0.02    +0.134 A  
DOCKED: ENDBRANCH   3  11
DOCKED: TORSDOF 1
DOCKED: TER
DOCKED: ENDMDL
________________________________________________________________________________


    FINAL DOCKED STATE:
    ________________________


Run:   10 / 20
Time taken for this run:   0.020s

DOCKED: MODEL        10
DOCKED: USER    Run = 10
DOCKED: USER
DOCKED: USER    Estimated Free Energy of Binding    =  -6.47 kcal/mol  [=(1)+(2)+(3)-(4)]
DOCKED: USER
DOCKED: USER    (1) Final Intermolecular Energy     =  -6.76 kcal/mol
DOCKED: USER        vdW + Hbond + desolv Energy     =  -6.71 kcal/mol
DOCKED: USER        Electrostatic Energy            =  -0.06 kcal/mol
DOCKED: USER        Moving Ligand-Fixed Receptor    =  -6.76 kcal/mol
DOCKED: USER        Moving Ligand-Moving Receptor   =  +0.00 kcal/mol
DOCKED: USER    (2) Final Total Internal Energy     =  -0.33 kcal/mol
DOCKED: USER    (3) Torsional Free Energy           =  +0.30 kcal/mol
DOCKED: USER    (4) Unbound System's Energy         =  -0.33 kcal/mol
DOCKED: USER
DOCKED: USER
DOCKED: REMARK SMILES c1cc(-c2ccc3nccn3n2)c2cc[nH]c2n1
DOCKED: REMARK SMILES IDX 1 1 2 2 3 3 13 4 14 5 15 6 16 7 17 8 18 9 4 11 5 12 12 13
DOCKED: REMARK SMILES IDX 6 14 11 15 7 16 10 17 8 18 9 19
DOCKED: REMARK H PARENT 16 10
DOCKED: USER                              x       y       z     vdW  Elec       q    Type
DOCKED: USER                           _______ _______ _______ _____ _____    ______ ____
DOCKED: ROOT
DOCKED: ATOM      1  C   UNL     1     141.119  71.354 228.056 -0.64 -0.02    +0.114 A  
DOCKED: ATOM      2  C   UNL     1     140.702  71.834 226.796 -0.68 -0.01    +0.031 A  
DOCKED: ATOM      3  C   UNL     1     140.250  70.934 225.807 -0.55 -0.00    +0.014 A  
DOCKED: ATOM      4  C   UNL     1     140.220  69.575 226.157 -0.49 -0.00    +0.028 A  
DOCKED: ATOM      5  C   UNL     1     139.772  68.449 225.490 -0.45 -0.00    +0.030 A  
DOCKED: ATOM      6  C   UNL     1     139.961  67.393 226.378 -0.59 -0.01    +0.085 A  
DOCKED: ATOM      7  N   UNL     1     140.489  67.833 227.542 -0.29 +0.10    -0.346 N  
DOCKED: ATOM      8  C   UNL     1     140.632  69.158 227.392 -0.50 -0.03    +0.137 A  
DOCKED: ATOM      9  N   UNL     1     141.077  70.018 228.340 -0.32 +0.05    -0.239 NA 
DOCKED: ATOM     10  H   UNL     1     140.714  67.262 228.387 -0.27 -0.08    +0.167 HD 
DOCKED: ENDROOT
DOCKED: BRANCH   3  11
DOCKED: ATOM     11  C   UNL     1     139.819  71.434 224.484 -0.36 -0.02    +0.092 A  
DOCKED: ATOM     12  C   UNL     1     138.538  71.133 223.961 -0.29 -0.01    +0.035 A  
DOCKED: ATOM     13  N   UNL     1     140.691  72.164 223.727 -0.27 +0.01    -0.166 NA 
DOCKED: ATOM     14  C   UNL     1     138.169  71.607 222.692 -0.19 -0.01    +0.051 A  
DOCKED: ATOM     15  N   UNL     1     140.308  72.597 222.528 -0.23 +0.02    -0.221 N  
DOCKED: ATOM     16  C   UNL     1     139.107  72.355 221.995 -0.17 -0.03    +0.153 A  
DOCKED: ATOM     17  C   UNL     1     140.996  73.320 221.639 -0.24 -0.01    +0.135 A  
DOCKED: ATOM     18  N   UNL     1     138.960  72.894 220.768 -0.05 +0.05    -0.236 NA 
DOCKED: ATOM     19  C   UNL     1     140.155  73.502 220.551 -0.12 -0.03    +0.134 A  
DOCKED: ENDBRANCH   3  11
DOCKED: TORSDOF 1
DOCKED: TER
DOCKED: ENDMDL
________________________________________________________________________________


    FINAL DOCKED STATE:
    ________________________


Run:   11 / 20
Time taken for this run:   0.020s

DOCKED: MODEL        11
DOCKED: USER    Run = 11
DOCKED: USER
DOCKED: USER    Estimated Free Energy of Binding    =  -6.47 kcal/mol  [=(1)+(2)+(3)-(4)]
DOCKED: USER
DOCKED: USER    (1) Final Intermolecular Energy     =  -6.76 kcal/mol
DOCKED: USER        vdW + Hbond + desolv Energy     =  -6.71 kcal/mol
DOCKED: USER        Electrostatic Energy            =  -0.06 kcal/mol
DOCKED: USER        Moving Ligand-Fixed Receptor    =  -6.76 kcal/mol
DOCKED: USER        Moving Ligand-Moving Receptor   =  +0.00 kcal/mol
DOCKED: USER    (2) Final Total Internal Energy     =  -0.33 kcal/mol
DOCKED: USER    (3) Torsional Free Energy           =  +0.30 kcal/mol
DOCKED: USER    (4) Unbound System's Energy         =  -0.33 kcal/mol
DOCKED: USER
DOCKED: USER
DOCKED: REMARK SMILES c1cc(-c2ccc3nccn3n2)c2cc[nH]c2n1
DOCKED: REMARK SMILES IDX 1 1 2 2 3 3 13 4 14 5 15 6 16 7 17 8 18 9 4 11 5 12 12 13
DOCKED: REMARK SMILES IDX 6 14 11 15 7 16 10 17 8 18 9 19
DOCKED: REMARK H PARENT 16 10
DOCKED: USER                              x       y       z     vdW  Elec       q    Type
DOCKED: USER                           _______ _______ _______ _____ _____    ______ ____
DOCKED: ROOT
DOCKED: ATOM      1  C   UNL     1     141.108  71.359 228.061 -0.65 -0.02    +0.114 A  
DOCKED: ATOM      2  C   UNL     1     140.692  71.839 226.801 -0.68 -0.01    +0.031 A  
DOCKED: ATOM      3  C   UNL     1     140.256  70.937 225.806 -0.55 -0.00    +0.014 A  
DOCKED: ATOM      4  C   UNL     1     140.239  69.577 226.151 -0.49 -0.00    +0.028 A  
DOCKED: ATOM      5  C   UNL     1     139.808  68.448 225.477 -0.45 -0.00    +0.030 A  
DOCKED: ATOM      6  C   UNL     1     140.004  67.391 226.362 -0.59 -0.01    +0.085 A  
DOCKED: ATOM      7  N   UNL     1     140.520  67.833 227.531 -0.29 +0.10    -0.346 N  
DOCKED: ATOM      8  C   UNL     1     140.649  69.159 227.387 -0.50 -0.03    +0.137 A  
DOCKED: ATOM      9  N   UNL     1     141.079  70.021 228.340 -0.32 +0.05    -0.239 NA 
DOCKED: ATOM     10  H   UNL     1     140.748  67.261 228.375 -0.27 -0.08    +0.167 HD 
DOCKED: ENDROOT
DOCKED: BRANCH   3  11
DOCKED: ATOM     11  C   UNL     1     139.826  71.437 224.482 -0.37 -0.02    +0.092 A  
DOCKED: ATOM     12  C   UNL     1     138.543  71.142 223.961 -0.29 -0.01    +0.035 A  
DOCKED: ATOM     13  N   UNL     1     140.701  72.161 223.723 -0.26 +0.01    -0.166 NA 
DOCKED: ATOM     14  C   UNL     1     138.176  71.615 222.692 -0.19 -0.01    +0.051 A  
DOCKED: ATOM     15  N   UNL     1     140.319  72.594 222.524 -0.23 +0.02    -0.221 N  
DOCKED: ATOM     16  C   UNL     1     139.117  72.357 221.992 -0.17 -0.03    +0.153 A  
DOCKED: ATOM     17  C   UNL     1     141.010  73.312 221.633 -0.24 -0.01    +0.135 A  
DOCKED: ATOM     18  N   UNL     1     138.971  72.895 220.765 -0.05 +0.05    -0.236 NA 
DOCKED: ATOM     19  C   UNL     1     140.169  73.497 220.545 -0.12 -0.02    +0.134 A  
DOCKED: ENDBRANCH   3  11
DOCKED: TORSDOF 1
DOCKED: TER
DOCKED: ENDMDL
________________________________________________________________________________


    FINAL DOCKED STATE:
    ________________________


Run:   12 / 20
Time taken for this run:   0.020s

DOCKED: MODEL        12
DOCKED: USER    Run = 12
DOCKED: USER
DOCKED: USER    Estimated Free Energy of Binding    =  -6.47 kcal/mol  [=(1)+(2)+(3)-(4)]
DOCKED: USER
DOCKED: USER    (1) Final Intermolecular Energy     =  -6.77 kcal/mol
DOCKED: USER        vdW + Hbond + desolv Energy     =  -6.71 kcal/mol
DOCKED: USER        Electrostatic Energy            =  -0.06 kcal/mol
DOCKED: USER        Moving Ligand-Fixed Receptor    =  -6.77 kcal/mol
DOCKED: USER        Moving Ligand-Moving Receptor   =  +0.00 kcal/mol
DOCKED: USER    (2) Final Total Internal Energy     =  -0.33 kcal/mol
DOCKED: USER    (3) Torsional Free Energy           =  +0.30 kcal/mol
DOCKED: USER    (4) Unbound System's Energy         =  -0.33 kcal/mol
DOCKED: USER
DOCKED: USER
DOCKED: REMARK SMILES c1cc(-c2ccc3nccn3n2)c2cc[nH]c2n1
DOCKED: REMARK SMILES IDX 1 1 2 2 3 3 13 4 14 5 15 6 16 7 17 8 18 9 4 11 5 12 12 13
DOCKED: REMARK SMILES IDX 6 14 11 15 7 16 10 17 8 18 9 19
DOCKED: REMARK H PARENT 16 10
DOCKED: USER                              x       y       z     vdW  Elec       q    Type
DOCKED: USER                           _______ _______ _______ _____ _____    ______ ____
DOCKED: ROOT
DOCKED: ATOM      1  C   UNL     1     141.111  71.360 228.063 -0.64 -0.02    +0.114 A  
DOCKED: ATOM      2  C   UNL     1     140.698  71.838 226.801 -0.68 -0.01    +0.031 A  
DOCKED: ATOM      3  C   UNL     1     140.252  70.936 225.810 -0.55 -0.00    +0.014 A  
DOCKED: ATOM      4  C   UNL     1     140.222  69.578 226.162 -0.49 -0.00    +0.028 A  
DOCKED: ATOM      5  C   UNL     1     139.779  68.450 225.494 -0.46 -0.00    +0.030 A  
DOCKED: ATOM      6  C   UNL     1     139.967  67.395 226.384 -0.59 -0.01    +0.085 A  
DOCKED: ATOM      7  N   UNL     1     140.488  67.838 227.550 -0.29 +0.10    -0.346 N  
DOCKED: ATOM      8  C   UNL     1     140.630  69.162 227.399 -0.50 -0.03    +0.137 A  
DOCKED: ATOM      9  N   UNL     1     141.069  70.025 228.348 -0.32 +0.05    -0.239 NA 
DOCKED: ATOM     10  H   UNL     1     140.711  67.268 228.396 -0.27 -0.08    +0.167 HD 
DOCKED: ENDROOT
DOCKED: BRANCH   3  11
DOCKED: ATOM     11  C   UNL     1     139.825  71.435 224.485 -0.37 -0.02    +0.092 A  
DOCKED: ATOM     12  C   UNL     1     138.547  71.132 223.957 -0.29 -0.01    +0.035 A  
DOCKED: ATOM     13  N   UNL     1     140.700  72.163 223.731 -0.26 +0.01    -0.166 NA 
DOCKED: ATOM     14  C   UNL     1     138.183  71.604 222.687 -0.19 -0.01    +0.051 A  
DOCKED: ATOM     15  N   UNL     1     140.321  72.594 222.529 -0.23 +0.02    -0.221 N  
DOCKED: ATOM     16  C   UNL     1     139.123  72.351 221.992 -0.18 -0.03    +0.153 A  
DOCKED: ATOM     17  C   UNL     1     141.012  73.317 221.643 -0.24 -0.01    +0.135 A  
DOCKED: ATOM     18  N   UNL     1     138.980  72.888 220.764 -0.05 +0.05    -0.236 NA 
DOCKED: ATOM     19  C   UNL     1     140.176  73.497 220.551 -0.12 -0.02    +0.134 A  
DOCKED: ENDBRANCH   3  11
DOCKED: TORSDOF 1
DOCKED: TER
DOCKED: ENDMDL
________________________________________________________________________________


    FINAL DOCKED STATE:
    ________________________


Run:   13 / 20
Time taken for this run:   0.020s

DOCKED: MODEL        13
DOCKED: USER    Run = 13
DOCKED: USER
DOCKED: USER    Estimated Free Energy of Binding    =  -6.47 kcal/mol  [=(1)+(2)+(3)-(4)]
DOCKED: USER
DOCKED: USER    (1) Final Intermolecular Energy     =  -6.76 kcal/mol
DOCKED: USER        vdW + Hbond + desolv Energy     =  -6.71 kcal/mol
DOCKED: USER        Electrostatic Energy            =  -0.06 kcal/mol
DOCKED: USER        Moving Ligand-Fixed Receptor    =  -6.76 kcal/mol
DOCKED: USER        Moving Ligand-Moving Receptor   =  +0.00 kcal/mol
DOCKED: USER    (2) Final Total Internal Energy     =  -0.33 kcal/mol
DOCKED: USER    (3) Torsional Free Energy           =  +0.30 kcal/mol
DOCKED: USER    (4) Unbound System's Energy         =  -0.33 kcal/mol
DOCKED: USER
DOCKED: USER
DOCKED: REMARK SMILES c1cc(-c2ccc3nccn3n2)c2cc[nH]c2n1
DOCKED: REMARK SMILES IDX 1 1 2 2 3 3 13 4 14 5 15 6 16 7 17 8 18 9 4 11 5 12 12 13
DOCKED: REMARK SMILES IDX 6 14 11 15 7 16 10 17 8 18 9 19
DOCKED: REMARK H PARENT 16 10
DOCKED: USER                              x       y       z     vdW  Elec       q    Type
DOCKED: USER                           _______ _______ _______ _____ _____    ______ ____
DOCKED: ROOT
DOCKED: ATOM      1  C   UNL     1     141.106  71.368 228.056 -0.65 -0.02    +0.114 A  
DOCKED: ATOM      2  C   UNL     1     140.692  71.847 226.794 -0.68 -0.01    +0.031 A  
DOCKED: ATOM      3  C   UNL     1     140.250  70.945 225.801 -0.55 -0.00    +0.014 A  
DOCKED: ATOM      4  C   UNL     1     140.225  69.586 226.150 -0.49 -0.00    +0.028 A  
DOCKED: ATOM      5  C   UNL     1     139.786  68.458 225.480 -0.45 -0.00    +0.030 A  
DOCKED: ATOM      6  C   UNL     1     139.976  67.402 226.369 -0.59 -0.01    +0.085 A  
DOCKED: ATOM      7  N   UNL     1     140.495  67.844 227.536 -0.29 +0.10    -0.346 N  
DOCKED: ATOM      8  C   UNL     1     140.633  69.169 227.387 -0.50 -0.03    +0.137 A  
DOCKED: ATOM      9  N   UNL     1     141.069  70.032 228.338 -0.32 +0.05    -0.239 NA 
DOCKED: ATOM     10  H   UNL     1     140.719  67.274 228.381 -0.27 -0.08    +0.167 HD 
DOCKED: ENDROOT
DOCKED: BRANCH   3  11
DOCKED: ATOM     11  C   UNL     1     139.823  71.444 224.477 -0.36 -0.02    +0.092 A  
DOCKED: ATOM     12  C   UNL     1     138.544  71.143 223.950 -0.29 -0.01    +0.035 A  
DOCKED: ATOM     13  N   UNL     1     140.697  72.173 223.722 -0.26 +0.01    -0.166 NA 
DOCKED: ATOM     14  C   UNL     1     138.179  71.615 222.680 -0.19 -0.01    +0.051 A  
DOCKED: ATOM     15  N   UNL     1     140.318  72.605 222.521 -0.23 +0.02    -0.221 N  
DOCKED: ATOM     16  C   UNL     1     139.120  72.362 221.984 -0.17 -0.03    +0.153 A  
DOCKED: ATOM     17  C   UNL     1     141.009  73.327 221.634 -0.24 -0.01    +0.135 A  
DOCKED: ATOM     18  N   UNL     1     138.976  72.900 220.757 -0.05 +0.05    -0.236 NA 
DOCKED: ATOM     19  C   UNL     1     140.172  73.509 220.543 -0.12 -0.03    +0.134 A  
DOCKED: ENDBRANCH   3  11
DOCKED: TORSDOF 1
DOCKED: TER
DOCKED: ENDMDL
________________________________________________________________________________


    FINAL DOCKED STATE:
    ________________________


Run:   14 / 20
Time taken for this run:   0.020s

DOCKED: MODEL        14
DOCKED: USER    Run = 14
DOCKED: USER
DOCKED: USER    Estimated Free Energy of Binding    =  -6.47 kcal/mol  [=(1)+(2)+(3)-(4)]
DOCKED: USER
DOCKED: USER    (1) Final Intermolecular Energy     =  -6.76 kcal/mol
DOCKED: USER        vdW + Hbond + desolv Energy     =  -6.71 kcal/mol
DOCKED: USER        Electrostatic Energy            =  -0.05 kcal/mol
DOCKED: USER        Moving Ligand-Fixed Receptor    =  -6.76 kcal/mol
DOCKED: USER        Moving Ligand-Moving Receptor   =  +0.00 kcal/mol
DOCKED: USER    (2) Final Total Internal Energy     =  -0.33 kcal/mol
DOCKED: USER    (3) Torsional Free Energy           =  +0.30 kcal/mol
DOCKED: USER    (4) Unbound System's Energy         =  -0.33 kcal/mol
DOCKED: USER
DOCKED: USER
DOCKED: REMARK SMILES c1cc(-c2ccc3nccn3n2)c2cc[nH]c2n1
DOCKED: REMARK SMILES IDX 1 1 2 2 3 3 13 4 14 5 15 6 16 7 17 8 18 9 4 11 5 12 12 13
DOCKED: REMARK SMILES IDX 6 14 11 15 7 16 10 17 8 18 9 19
DOCKED: REMARK H PARENT 16 10
DOCKED: USER                              x       y       z     vdW  Elec       q    Type
DOCKED: USER                           _______ _______ _______ _____ _____    ______ ____
DOCKED: ROOT
DOCKED: ATOM      1  C   UNL     1     141.115  71.380 228.052 -0.65 -0.02    +0.114 A  
DOCKED: ATOM      2  C   UNL     1     140.700  71.856 226.789 -0.68 -0.01    +0.031 A  
DOCKED: ATOM      3  C   UNL     1     140.248  70.953 225.803 -0.55 -0.00    +0.014 A  
DOCKED: ATOM      4  C   UNL     1     140.215  69.596 226.158 -0.49 -0.00    +0.028 A  
DOCKED: ATOM      5  C   UNL     1     139.766  68.468 225.494 -0.46 -0.00    +0.030 A  
DOCKED: ATOM      6  C   UNL     1     139.953  67.415 226.386 -0.59 -0.01    +0.085 A  
DOCKED: ATOM      7  N   UNL     1     140.480  67.858 227.550 -0.29 +0.10    -0.346 N  
DOCKED: ATOM      8  C   UNL     1     140.625  69.182 227.395 -0.50 -0.03    +0.137 A  
DOCKED: ATOM      9  N   UNL     1     141.070  70.045 228.340 -0.32 +0.05    -0.239 NA 
DOCKED: ATOM     10  H   UNL     1     140.703  67.290 228.396 -0.27 -0.08    +0.167 HD 
DOCKED: ENDROOT
DOCKED: BRANCH   3  11
DOCKED: ATOM     11  C   UNL     1     139.819  71.449 224.478 -0.36 -0.02    +0.092 A  
DOCKED: ATOM     12  C   UNL     1     138.543  71.139 223.949 -0.29 -0.01    +0.035 A  
DOCKED: ATOM     13  N   UNL     1     140.689  72.184 223.724 -0.26 +0.01    -0.166 NA 
DOCKED: ATOM     14  C   UNL     1     138.176  71.609 222.678 -0.19 -0.01    +0.051 A  
DOCKED: ATOM     15  N   UNL     1     140.308  72.614 222.523 -0.23 +0.02    -0.221 N  
DOCKED: ATOM     16  C   UNL     1     139.112  72.363 221.985 -0.17 -0.03    +0.153 A  
DOCKED: ATOM     17  C   UNL     1     140.995  73.341 221.637 -0.24 -0.01    +0.135 A  
DOCKED: ATOM     18  N   UNL     1     138.966  72.900 220.757 -0.05 +0.05    -0.236 NA 
DOCKED: ATOM     19  C   UNL     1     140.158  73.517 220.545 -0.12 -0.03    +0.134 A  
DOCKED: ENDBRANCH   3  11
DOCKED: TORSDOF 1
DOCKED: TER
DOCKED: ENDMDL
________________________________________________________________________________


    FINAL DOCKED STATE:
    ________________________


Run:   15 / 20
Time taken for this run:   0.020s

DOCKED: MODEL        15
DOCKED: USER    Run = 15
DOCKED: USER
DOCKED: USER    Estimated Free Energy of Binding    =  -6.47 kcal/mol  [=(1)+(2)+(3)-(4)]
DOCKED: USER
DOCKED: USER    (1) Final Intermolecular Energy     =  -6.77 kcal/mol
DOCKED: USER        vdW + Hbond + desolv Energy     =  -6.71 kcal/mol
DOCKED: USER        Electrostatic Energy            =  -0.06 kcal/mol
DOCKED: USER        Moving Ligand-Fixed Receptor    =  -6.77 kcal/mol
DOCKED: USER        Moving Ligand-Moving Receptor   =  +0.00 kcal/mol
DOCKED: USER    (2) Final Total Internal Energy     =  -0.33 kcal/mol
DOCKED: USER    (3) Torsional Free Energy           =  +0.30 kcal/mol
DOCKED: USER    (4) Unbound System's Energy         =  -0.33 kcal/mol
DOCKED: USER
DOCKED: USER
DOCKED: REMARK SMILES c1cc(-c2ccc3nccn3n2)c2cc[nH]c2n1
DOCKED: REMARK SMILES IDX 1 1 2 2 3 3 13 4 14 5 15 6 16 7 17 8 18 9 4 11 5 12 12 13
DOCKED: REMARK SMILES IDX 6 14 11 15 7 16 10 17 8 18 9 19
DOCKED: REMARK H PARENT 16 10
DOCKED: USER                              x       y       z     vdW  Elec       q    Type
DOCKED: USER                           _______ _______ _______ _____ _____    ______ ____
DOCKED: ROOT
DOCKED: ATOM      1  C   UNL     1     141.116  71.375 228.051 -0.65 -0.02    +0.114 A  
DOCKED: ATOM      2  C   UNL     1     140.703  71.853 226.788 -0.68 -0.01    +0.031 A  
DOCKED: ATOM      3  C   UNL     1     140.253  70.951 225.799 -0.55 -0.00    +0.014 A  
DOCKED: ATOM      4  C   UNL     1     140.218  69.594 226.152 -0.49 -0.00    +0.028 A  
DOCKED: ATOM      5  C   UNL     1     139.770  68.467 225.487 -0.45 -0.00    +0.030 A  
DOCKED: ATOM      6  C   UNL     1     139.954  67.412 226.378 -0.59 -0.01    +0.085 A  
DOCKED: ATOM      7  N   UNL     1     140.479  67.854 227.543 -0.29 +0.10    -0.346 N  
DOCKED: ATOM      8  C   UNL     1     140.626  69.178 227.390 -0.50 -0.03    +0.137 A  
DOCKED: ATOM      9  N   UNL     1     141.070  70.040 228.337 -0.32 +0.05    -0.239 NA 
DOCKED: ATOM     10  H   UNL     1     140.700  67.285 228.389 -0.27 -0.08    +0.167 HD 
DOCKED: ENDROOT
DOCKED: BRANCH   3  11
DOCKED: ATOM     11  C   UNL     1     139.827  71.450 224.474 -0.36 -0.02    +0.092 A  
DOCKED: ATOM     12  C   UNL     1     138.550  71.144 223.944 -0.29 -0.01    +0.035 A  
DOCKED: ATOM     13  N   UNL     1     140.700  72.181 223.721 -0.26 +0.01    -0.166 NA 
DOCKED: ATOM     14  C   UNL     1     138.186  71.616 222.673 -0.19 -0.01    +0.051 A  
DOCKED: ATOM     15  N   UNL     1     140.322  72.612 222.519 -0.23 +0.02    -0.221 N  
DOCKED: ATOM     16  C   UNL     1     139.126  72.366 221.980 -0.17 -0.03    +0.153 A  
DOCKED: ATOM     17  C   UNL     1     141.013  73.337 221.634 -0.24 -0.01    +0.135 A  
DOCKED: ATOM     18  N   UNL     1     138.983  72.904 220.752 -0.05 +0.05    -0.236 NA 
DOCKED: ATOM     19  C   UNL     1     140.177  73.516 220.541 -0.12 -0.03    +0.134 A  
DOCKED: ENDBRANCH   3  11
DOCKED: TORSDOF 1
DOCKED: TER
DOCKED: ENDMDL
________________________________________________________________________________


    FINAL DOCKED STATE:
    ________________________


Run:   16 / 20
Time taken for this run:   0.020s

DOCKED: MODEL        16
DOCKED: USER    Run = 16
DOCKED: USER
DOCKED: USER    Estimated Free Energy of Binding    =  -6.47 kcal/mol  [=(1)+(2)+(3)-(4)]
DOCKED: USER
DOCKED: USER    (1) Final Intermolecular Energy     =  -6.77 kcal/mol
DOCKED: USER        vdW + Hbond + desolv Energy     =  -6.71 kcal/mol
DOCKED: USER        Electrostatic Energy            =  -0.06 kcal/mol
DOCKED: USER        Moving Ligand-Fixed Receptor    =  -6.77 kcal/mol
DOCKED: USER        Moving Ligand-Moving Receptor   =  +0.00 kcal/mol
DOCKED: USER    (2) Final Total Internal Energy     =  -0.33 kcal/mol
DOCKED: USER    (3) Torsional Free Energy           =  +0.30 kcal/mol
DOCKED: USER    (4) Unbound System's Energy         =  -0.33 kcal/mol
DOCKED: USER
DOCKED: USER
DOCKED: REMARK SMILES c1cc(-c2ccc3nccn3n2)c2cc[nH]c2n1
DOCKED: REMARK SMILES IDX 1 1 2 2 3 3 13 4 14 5 15 6 16 7 17 8 18 9 4 11 5 12 12 13
DOCKED: REMARK SMILES IDX 6 14 11 15 7 16 10 17 8 18 9 19
DOCKED: REMARK H PARENT 16 10
DOCKED: USER                              x       y       z     vdW  Elec       q    Type
DOCKED: USER                           _______ _______ _______ _____ _____    ______ ____
DOCKED: ROOT
DOCKED: ATOM      1  C   UNL     1     141.110  71.369 228.051 -0.65 -0.02    +0.114 A  
DOCKED: ATOM      2  C   UNL     1     140.698  71.847 226.789 -0.68 -0.01    +0.031 A  
DOCKED: ATOM      3  C   UNL     1     140.250  70.946 225.798 -0.55 -0.00    +0.014 A  
DOCKED: ATOM      4  C   UNL     1     140.217  69.588 226.150 -0.49 -0.00    +0.028 A  
DOCKED: ATOM      5  C   UNL     1     139.771  68.461 225.483 -0.45 -0.00    +0.030 A  
DOCKED: ATOM      6  C   UNL     1     139.956  67.406 226.373 -0.59 -0.01    +0.085 A  
DOCKED: ATOM      7  N   UNL     1     140.479  67.847 227.539 -0.29 +0.10    -0.346 N  
DOCKED: ATOM      8  C   UNL     1     140.624  69.172 227.388 -0.50 -0.03    +0.137 A  
DOCKED: ATOM      9  N   UNL     1     141.065  70.033 228.336 -0.32 +0.05    -0.239 NA 
DOCKED: ATOM     10  H   UNL     1     140.700  67.278 228.385 -0.27 -0.08    +0.167 HD 
DOCKED: ENDROOT
DOCKED: BRANCH   3  11
DOCKED: ATOM     11  C   UNL     1     139.824  71.445 224.473 -0.36 -0.02    +0.092 A  
DOCKED: ATOM     12  C   UNL     1     138.547  71.141 223.943 -0.29 -0.01    +0.035 A  
DOCKED: ATOM     13  N   UNL     1     140.699  72.175 223.720 -0.26 +0.01    -0.166 NA 
DOCKED: ATOM     14  C   UNL     1     138.184  71.613 222.672 -0.18 -0.01    +0.051 A  
DOCKED: ATOM     15  N   UNL     1     140.322  72.607 222.519 -0.23 +0.02    -0.221 N  
DOCKED: ATOM     16  C   UNL     1     139.125  72.363 221.980 -0.17 -0.03    +0.153 A  
DOCKED: ATOM     17  C   UNL     1     141.013  73.331 221.634 -0.24 -0.01    +0.135 A  
DOCKED: ATOM     18  N   UNL     1     138.983  72.900 220.752 -0.05 +0.05    -0.236 NA 
DOCKED: ATOM     19  C   UNL     1     140.178  73.511 220.541 -0.12 -0.03    +0.134 A  
DOCKED: ENDBRANCH   3  11
DOCKED: TORSDOF 1
DOCKED: TER
DOCKED: ENDMDL
________________________________________________________________________________


    FINAL DOCKED STATE:
    ________________________


Run:   17 / 20
Time taken for this run:   0.020s

DOCKED: MODEL        17
DOCKED: USER    Run = 17
DOCKED: USER
DOCKED: USER    Estimated Free Energy of Binding    =  -6.47 kcal/mol  [=(1)+(2)+(3)-(4)]
DOCKED: USER
DOCKED: USER    (1) Final Intermolecular Energy     =  -6.77 kcal/mol
DOCKED: USER        vdW + Hbond + desolv Energy     =  -6.71 kcal/mol
DOCKED: USER        Electrostatic Energy            =  -0.06 kcal/mol
DOCKED: USER        Moving Ligand-Fixed Receptor    =  -6.77 kcal/mol
DOCKED: USER        Moving Ligand-Moving Receptor   =  +0.00 kcal/mol
DOCKED: USER    (2) Final Total Internal Energy     =  -0.33 kcal/mol
DOCKED: USER    (3) Torsional Free Energy           =  +0.30 kcal/mol
DOCKED: USER    (4) Unbound System's Energy         =  -0.33 kcal/mol
DOCKED: USER
DOCKED: USER
DOCKED: REMARK SMILES c1cc(-c2ccc3nccn3n2)c2cc[nH]c2n1
DOCKED: REMARK SMILES IDX 1 1 2 2 3 3 13 4 14 5 15 6 16 7 17 8 18 9 4 11 5 12 12 13
DOCKED: REMARK SMILES IDX 6 14 11 15 7 16 10 17 8 18 9 19
DOCKED: REMARK H PARENT 16 10
DOCKED: USER                              x       y       z     vdW  Elec       q    Type
DOCKED: USER                           _______ _______ _______ _____ _____    ______ ____
DOCKED: ROOT
DOCKED: ATOM      1  C   UNL     1     141.113  71.370 228.046 -0.65 -0.02    +0.114 A  
DOCKED: ATOM      2  C   UNL     1     140.700  71.850 226.784 -0.68 -0.01    +0.031 A  
DOCKED: ATOM      3  C   UNL     1     140.251  70.950 225.793 -0.55 -0.00    +0.014 A  
DOCKED: ATOM      4  C   UNL     1     140.219  69.591 226.144 -0.49 -0.00    +0.028 A  
DOCKED: ATOM      5  C   UNL     1     139.773  68.465 225.476 -0.45 -0.00    +0.030 A  
DOCKED: ATOM      6  C   UNL     1     139.959  67.409 226.365 -0.59 -0.01    +0.085 A  
DOCKED: ATOM      7  N   UNL     1     140.482  67.849 227.531 -0.29 +0.10    -0.346 N  
DOCKED: ATOM      8  C   UNL     1     140.627  69.174 227.380 -0.50 -0.03    +0.137 A  
DOCKED: ATOM      9  N   UNL     1     141.069  70.035 228.329 -0.32 +0.05    -0.239 NA 
DOCKED: ATOM     10  H   UNL     1     140.704  67.279 228.376 -0.27 -0.08    +0.167 HD 
DOCKED: ENDROOT
DOCKED: BRANCH   3  11
DOCKED: ATOM     11  C   UNL     1     139.824  71.450 224.469 -0.36 -0.02    +0.092 A  
DOCKED: ATOM     12  C   UNL     1     138.546  71.147 223.940 -0.29 -0.01    +0.035 A  
DOCKED: ATOM     13  N   UNL     1     140.698  72.181 223.716 -0.26 +0.01    -0.166 NA 
DOCKED: ATOM     14  C   UNL     1     138.182  71.620 222.670 -0.18 -0.01    +0.051 A  
DOCKED: ATOM     15  N   UNL     1     140.319  72.614 222.515 -0.23 +0.02    -0.221 N  
DOCKED: ATOM     16  C   UNL     1     139.122  72.370 221.977 -0.17 -0.03    +0.153 A  
DOCKED: ATOM     17  C   UNL     1     141.010  73.338 221.630 -0.24 -0.01    +0.135 A  
DOCKED: ATOM     18  N   UNL     1     138.979  72.909 220.750 -0.05 +0.05    -0.236 NA 
DOCKED: ATOM     19  C   UNL     1     140.173  73.520 220.538 -0.12 -0.03    +0.134 A  
DOCKED: ENDBRANCH   3  11
DOCKED: TORSDOF 1
DOCKED: TER
DOCKED: ENDMDL
________________________________________________________________________________


    FINAL DOCKED STATE:
    ________________________


Run:   18 / 20
Time taken for this run:   0.020s

DOCKED: MODEL        18
DOCKED: USER    Run = 18
DOCKED: USER
DOCKED: USER    Estimated Free Energy of Binding    =  -6.46 kcal/mol  [=(1)+(2)+(3)-(4)]
DOCKED: USER
DOCKED: USER    (1) Final Intermolecular Energy     =  -6.76 kcal/mol
DOCKED: USER        vdW + Hbond + desolv Energy     =  -6.70 kcal/mol
DOCKED: USER        Electrostatic Energy            =  -0.06 kcal/mol
DOCKED: USER        Moving Ligand-Fixed Receptor    =  -6.76 kcal/mol
DOCKED: USER        Moving Ligand-Moving Receptor   =  +0.00 kcal/mol
DOCKED: USER    (2) Final Total Internal Energy     =  -0.33 kcal/mol
DOCKED: USER    (3) Torsional Free Energy           =  +0.30 kcal/mol
DOCKED: USER    (4) Unbound System's Energy         =  -0.33 kcal/mol
DOCKED: USER
DOCKED: USER
DOCKED: REMARK SMILES c1cc(-c2ccc3nccn3n2)c2cc[nH]c2n1
DOCKED: REMARK SMILES IDX 1 1 2 2 3 3 13 4 14 5 15 6 16 7 17 8 18 9 4 11 5 12 12 13
DOCKED: REMARK SMILES IDX 6 14 11 15 7 16 10 17 8 18 9 19
DOCKED: REMARK H PARENT 16 10
DOCKED: USER                              x       y       z     vdW  Elec       q    Type
DOCKED: USER                           _______ _______ _______ _____ _____    ______ ____
DOCKED: ROOT
DOCKED: ATOM      1  C   UNL     1     141.076  71.349 228.065 -0.66 -0.02    +0.114 A  
DOCKED: ATOM      2  C   UNL     1     140.665  71.832 226.803 -0.67 -0.01    +0.031 A  
DOCKED: ATOM      3  C   UNL     1     140.237  70.932 225.803 -0.55 -0.00    +0.014 A  
DOCKED: ATOM      4  C   UNL     1     140.222  69.571 226.143 -0.49 -0.00    +0.028 A  
DOCKED: ATOM      5  C   UNL     1     139.797  68.443 225.465 -0.45 -0.00    +0.030 A  
DOCKED: ATOM      6  C   UNL     1     139.991  67.384 226.347 -0.59 -0.01    +0.085 A  
DOCKED: ATOM      7  N   UNL     1     140.500  67.823 227.520 -0.29 +0.10    -0.346 N  
DOCKED: ATOM      8  C   UNL     1     140.626  69.151 227.380 -0.50 -0.03    +0.137 A  
DOCKED: ATOM      9  N   UNL     1     141.049  70.011 228.338 -0.32 +0.05    -0.239 NA 
DOCKED: ATOM     10  H   UNL     1     140.724  67.250 228.363 -0.28 -0.08    +0.167 HD 
DOCKED: ENDROOT
DOCKED: BRANCH   3  11
DOCKED: ATOM     11  C   UNL     1     139.812  71.436 224.479 -0.36 -0.02    +0.092 A  
DOCKED: ATOM     12  C   UNL     1     138.532  71.140 223.950 -0.29 -0.01    +0.035 A  
DOCKED: ATOM     13  N   UNL     1     140.690  72.162 223.726 -0.27 +0.01    -0.166 NA 
DOCKED: ATOM     14  C   UNL     1     138.171  71.617 222.681 -0.18 -0.01    +0.051 A  
DOCKED: ATOM     15  N   UNL     1     140.314  72.598 222.526 -0.23 +0.02    -0.221 N  
DOCKED: ATOM     16  C   UNL     1     139.115  72.361 221.988 -0.17 -0.03    +0.153 A  
DOCKED: ATOM     17  C   UNL     1     141.008  73.319 221.640 -0.24 -0.01    +0.135 A  
DOCKED: ATOM     18  N   UNL     1     138.974  72.902 220.761 -0.05 +0.05    -0.236 NA 
DOCKED: ATOM     19  C   UNL     1     140.172  73.506 220.549 -0.12 -0.03    +0.134 A  
DOCKED: ENDBRANCH   3  11
DOCKED: TORSDOF 1
DOCKED: TER
DOCKED: ENDMDL
________________________________________________________________________________


    FINAL DOCKED STATE:
    ________________________


Run:   19 / 20
Time taken for this run:   0.020s

DOCKED: MODEL        19
DOCKED: USER    Run = 19
DOCKED: USER
DOCKED: USER    Estimated Free Energy of Binding    =  -6.47 kcal/mol  [=(1)+(2)+(3)-(4)]
DOCKED: USER
DOCKED: USER    (1) Final Intermolecular Energy     =  -6.76 kcal/mol
DOCKED: USER        vdW + Hbond + desolv Energy     =  -6.71 kcal/mol
DOCKED: USER        Electrostatic Energy            =  -0.06 kcal/mol
DOCKED: USER        Moving Ligand-Fixed Receptor    =  -6.76 kcal/mol
DOCKED: USER        Moving Ligand-Moving Receptor   =  +0.00 kcal/mol
DOCKED: USER    (2) Final Total Internal Energy     =  -0.33 kcal/mol
DOCKED: USER    (3) Torsional Free Energy           =  +0.30 kcal/mol
DOCKED: USER    (4) Unbound System's Energy         =  -0.33 kcal/mol
DOCKED: USER
DOCKED: USER
DOCKED: REMARK SMILES c1cc(-c2ccc3nccn3n2)c2cc[nH]c2n1
DOCKED: REMARK SMILES IDX 1 1 2 2 3 3 13 4 14 5 15 6 16 7 17 8 18 9 4 11 5 12 12 13
DOCKED: REMARK SMILES IDX 6 14 11 15 7 16 10 17 8 18 9 19
DOCKED: REMARK H PARENT 16 10
DOCKED: USER                              x       y       z     vdW  Elec       q    Type
DOCKED: USER                           _______ _______ _______ _____ _____    ______ ____
DOCKED: ROOT
DOCKED: ATOM      1  C   UNL     1     141.094  71.357 228.066 -0.65 -0.02    +0.114 A  
DOCKED: ATOM      2  C   UNL     1     140.684  71.837 226.803 -0.68 -0.01    +0.031 A  
DOCKED: ATOM      3  C   UNL     1     140.245  70.935 225.809 -0.55 -0.00    +0.014 A  
DOCKED: ATOM      4  C   UNL     1     140.218  69.576 226.157 -0.49 -0.00    +0.028 A  
DOCKED: ATOM      5  C   UNL     1     139.781  68.448 225.485 -0.45 -0.00    +0.030 A  
DOCKED: ATOM      6  C   UNL     1     139.968  67.392 226.373 -0.59 -0.01    +0.085 A  
DOCKED: ATOM      7  N   UNL     1     140.484  67.834 227.543 -0.29 +0.10    -0.346 N  
DOCKED: ATOM      8  C   UNL     1     140.623  69.159 227.395 -0.50 -0.03    +0.137 A  
DOCKED: ATOM      9  N   UNL     1     141.056  70.021 228.347 -0.32 +0.05    -0.239 NA 
DOCKED: ATOM     10  H   UNL     1     140.705  67.263 228.388 -0.27 -0.08    +0.167 HD 
DOCKED: ENDROOT
DOCKED: BRANCH   3  11
DOCKED: ATOM     11  C   UNL     1     139.822  71.435 224.483 -0.36 -0.02    +0.092 A  
DOCKED: ATOM     12  C   UNL     1     138.542  71.139 223.954 -0.29 -0.01    +0.035 A  
DOCKED: ATOM     13  N   UNL     1     140.701  72.159 223.729 -0.26 +0.01    -0.166 NA 
DOCKED: ATOM     14  C   UNL     1     138.182  71.612 222.683 -0.19 -0.01    +0.051 A  
DOCKED: ATOM     15  N   UNL     1     140.325  72.592 222.527 -0.23 +0.02    -0.221 N  
DOCKED: ATOM     16  C   UNL     1     139.127  72.354 221.989 -0.18 -0.03    +0.153 A  
DOCKED: ATOM     17  C   UNL     1     141.021  73.310 221.640 -0.24 -0.01    +0.135 A  
DOCKED: ATOM     18  N   UNL     1     138.987  72.891 220.760 -0.05 +0.05    -0.236 NA 
DOCKED: ATOM     19  C   UNL     1     140.186  73.494 220.547 -0.12 -0.02    +0.134 A  
DOCKED: ENDBRANCH   3  11
DOCKED: TORSDOF 1
DOCKED: TER
DOCKED: ENDMDL
________________________________________________________________________________


    FINAL DOCKED STATE:
    ________________________


Run:   20 / 20
Time taken for this run:   0.020s

DOCKED: MODEL        20
DOCKED: USER    Run = 20
DOCKED: USER
DOCKED: USER    Estimated Free Energy of Binding    =  -6.47 kcal/mol  [=(1)+(2)+(3)-(4)]
DOCKED: USER
DOCKED: USER    (1) Final Intermolecular Energy     =  -6.77 kcal/mol
DOCKED: USER        vdW + Hbond + desolv Energy     =  -6.71 kcal/mol
DOCKED: USER        Electrostatic Energy            =  -0.06 kcal/mol
DOCKED: USER        Moving Ligand-Fixed Receptor    =  -6.77 kcal/mol
DOCKED: USER        Moving Ligand-Moving Receptor   =  +0.00 kcal/mol
DOCKED: USER    (2) Final Total Internal Energy     =  -0.33 kcal/mol
DOCKED: USER    (3) Torsional Free Energy           =  +0.30 kcal/mol
DOCKED: USER    (4) Unbound System's Energy         =  -0.33 kcal/mol
DOCKED: USER
DOCKED: USER
DOCKED: REMARK SMILES c1cc(-c2ccc3nccn3n2)c2cc[nH]c2n1
DOCKED: REMARK SMILES IDX 1 1 2 2 3 3 13 4 14 5 15 6 16 7 17 8 18 9 4 11 5 12 12 13
DOCKED: REMARK SMILES IDX 6 14 11 15 7 16 10 17 8 18 9 19
DOCKED: REMARK H PARENT 16 10
DOCKED: USER                              x       y       z     vdW  Elec       q    Type
DOCKED: USER                           _______ _______ _______ _____ _____    ______ ____
DOCKED: ROOT
DOCKED: ATOM      1  C   UNL     1     141.117  71.353 228.052 -0.64 -0.02    +0.114 A  
DOCKED: ATOM      2  C   UNL     1     140.703  71.834 226.791 -0.68 -0.01    +0.031 A  
DOCKED: ATOM      3  C   UNL     1     140.253  70.935 225.799 -0.55 -0.00    +0.014 A  
DOCKED: ATOM      4  C   UNL     1     140.221  69.576 226.148 -0.49 -0.00    +0.028 A  
DOCKED: ATOM      5  C   UNL     1     139.774  68.451 225.479 -0.45 -0.00    +0.030 A  
DOCKED: ATOM      6  C   UNL     1     139.960  67.394 226.367 -0.59 -0.01    +0.085 A  
DOCKED: ATOM      7  N   UNL     1     140.484  67.832 227.533 -0.29 +0.10    -0.346 N  
DOCKED: ATOM      8  C   UNL     1     140.629  69.157 227.384 -0.50 -0.03    +0.137 A  
DOCKED: ATOM      9  N   UNL     1     141.072  70.017 228.334 -0.32 +0.05    -0.239 NA 
DOCKED: ATOM     10  H   UNL     1     140.706  67.261 228.378 -0.27 -0.08    +0.167 HD 
DOCKED: ENDROOT
DOCKED: BRANCH   3  11
DOCKED: ATOM     11  C   UNL     1     139.826  71.437 224.476 -0.37 -0.02    +0.092 A  
DOCKED: ATOM     12  C   UNL     1     138.548  71.135 223.947 -0.29 -0.01    +0.035 A  
DOCKED: ATOM     13  N   UNL     1     140.700  72.169 223.723 -0.26 +0.01    -0.166 NA 
DOCKED: ATOM     14  C   UNL     1     138.183  71.610 222.678 -0.19 -0.01    +0.051 A  
DOCKED: ATOM     15  N   UNL     1     140.321  72.603 222.523 -0.23 +0.02    -0.221 N  
DOCKED: ATOM     16  C   UNL     1     139.123  72.360 221.985 -0.17 -0.03    +0.153 A  
DOCKED: ATOM     17  C   UNL     1     141.011  73.329 221.639 -0.24 -0.01    +0.135 A  
DOCKED: ATOM     18  N   UNL     1     138.980  72.901 220.759 -0.05 +0.05    -0.236 NA 
DOCKED: ATOM     19  C   UNL     1     140.174  73.512 220.547 -0.12 -0.03    +0.134 A  
DOCKED: ENDBRANCH   3  11
DOCKED: TORSDOF 1
DOCKED: TER
DOCKED: ENDMDL
________________________________________________________________________________


    CLUSTERING HISTOGRAM
    ____________________


________________________________________________________________________________
     |           |     |           |     |
Clus | Lowest    | Run | Mean      | Num | Histogram
-ter | Binding   |     | Binding   | in  |
Rank | Energy    |     | Energy    | Clus|    5    10   15   20   25   30   35
_____|___________|_____|___________|_____|____:____|____:____|____:____|____:___
   1 |     -6.47 |   2 |     -6.47 |  19 |###################
   2 |     -6.33 |   8 |     -6.33 |   1 |#
_____|___________|_____|___________|_____|______________________________________


    RMSD TABLE
    __________


_______________________________________________________________________
     |      |      |           |         |                 |
Rank | Sub- | Run  | Binding   | Cluster | Reference       | Grep
     | Rank |      | Energy    | RMSD    | RMSD            | Pattern
_____|______|______|___________|_________|_________________|___________
   1      1      2       -6.47      0.00    270.98           RANKING
   1      2      4       -6.47      0.01    270.98           RANKING
   1      3     20       -6.47      0.01    270.98           RANKING
   1      4     16       -6.47      0.01    270.98           RANKING
   1      5      1       -6.47      0.01    270.98           RANKING
   1      6      3       -6.47      0.01    270.98           RANKING
   1      7      5       -6.47      0.01    270.98           RANKING
   1      8      7       -6.47      0.01    270.98           RANKING
   1      9      9       -6.47      0.02    270.98           RANKING
   1     10     12       -6.47      0.01    270.99           RANKING
   1     11     15       -6.47      0.01    270.98           RANKING
   1     12     17       -6.47      0.01    270.97           RANKING
   1     13      6       -6.47      0.02    270.99           RANKING
   1     14     13       -6.47      0.01    270.98           RANKING
   1     15     19       -6.47      0.01    270.98           RANKING
   1     16     10       -6.47      0.02    270.98           RANKING
   1     17     14       -6.47      0.02    270.98           RANKING
   1     18     11       -6.47      0.03    270.98           RANKING
   1     19     18       -6.46      0.02    270.97           RANKING
   2      1      8       -6.33      0.00    270.73           RANKING

Run time 0.341 sec
Idle time 0.000 sec
