AutoDock-GPU version: v1.6

**********************************************************
**    AutoDock-GPU AUTODOCKTOOLS-COMPATIBLE DLG FILE    **
**********************************************************


    DOCKING PARAMETERS
    ________________________


Ligand file:                               /home/a/REINVENT4/ReinventStudies/pleaseWork/justRnve/graph-dock-3mta9a/graph-DockGPU/node-autodockgpu/inputs/QVTIEDAELODWLO-YAQRNVERNA-N.pdbqt
Grid fld file:                             /home/a/REINVENT4/ReinventStudies/mols/Rad51/maps/rad51_receptor.maps.fld

Random seed:                               42
Number of runs:                            20
Number of energy evaluations:              1132076
Number of generations:                     42000
Size of population:                        150
Rate of crossover:                         80.000000%
Tournament selection probability limit:    60.000000%
Rate of mutation:                          2.000000%
Maximal allowed delta movement:            +/- 6.000000A
Maximal allowed delta angle:               +/- 90.000000

Rate of local search:                      100.000000%
Maximal number of local search iterations: 300
Rho lower bound:                           0.010000
Spread of local search delta movement:     2.000000A
Spread of local search delta angle:        74.999999
Limit of consecutive successes/failures:   4

Handle symmetry during clustering:         YES
RMSD tolerance:                            2.000000A

Program call in command line was:          /home/a/REINVENT4/ReinventStudies/adgpu-v1.6_linux_x64_cuda12_128wi --filelist batch.txt --heuristics 1 --nrun 20 --psize 150 --lsit 300 --seed 42 --heurmax 12000000 


    GRID PARAMETERS
    ________________________


Receptor name:                             rad51_receptor
Number of grid points (x, y, z):           53, 53, 53
Grid center (x, y, z):                     139.950000, 75.640000, 221.970000A
Grid size (x, y, z):                       19.500000, 19.500000, 19.500000A
Grid spacing:                              0.375000A


    LIGAND PARAMETERS
    ________________________


Ligand name:                               /home/a/REINVENT4/ReinventStudies/pleaseWork/justRnve/graph-dock-3mta9a/graph-DockGPU/node-autodockgpu/inputs/QVTIEDAELODWLO-YAQRNVERNA-N
Number of atoms:                           19
Number of rotatable bonds:                 1
Number of atom types:                      4


    DUMMY DATA (only for ADT-compatibility)
    ________________________


DPF> outlev 1
DPF> ga_run 20
DPF> fld /home/a/REINVENT4/ReinventStudies/mols/Rad51/maps/rad51_receptor.maps.fld
DPF> move /home/a/REINVENT4/ReinventStudies/pleaseWork/justRnve/graph-dock-3mta9a/graph-DockGPU/node-autodockgpu/inputs/QVTIEDAELODWLO-YAQRNVERNA-N.pdbqt


    COUNTER STATES
    ________________________


Number of energy evaluations performed:    704028
Number of generations used:                30


    INPUT LIGAND PDBQT FILE:
    ________________________


INPUT-LIGAND-PDBQT: REMARK SMILES c1cc2c(-c3ccc4nccn4n3)cc[nH]c-2n1
INPUT-LIGAND-PDBQT: REMARK SMILES IDX 15 1 14 2 4 3 3 4 2 5 1 6 18 7 17 8 16 9 5 11 6 12 13 13
INPUT-LIGAND-PDBQT: REMARK SMILES IDX 7 14 12 15 8 16 11 17 9 18 10 19
INPUT-LIGAND-PDBQT: REMARK H PARENT 16 10
INPUT-LIGAND-PDBQT: ROOT
INPUT-LIGAND-PDBQT: ATOM      1  C   UNL     1       1.223   0.662  -3.109  1.00  0.00     0.085 A 
INPUT-LIGAND-PDBQT: ATOM      2  C   UNL     1       0.942  -0.061  -1.924  1.00  0.00     0.029 A 
INPUT-LIGAND-PDBQT: ATOM      3  C   UNL     1       1.347   0.426  -0.660  1.00  0.00     0.014 A 
INPUT-LIGAND-PDBQT: ATOM      4  C   UNL     1       2.014   1.654  -0.651  1.00  0.00     0.028 A 
INPUT-LIGAND-PDBQT: ATOM      5  C   UNL     1       2.471   2.487   0.345  1.00  0.00     0.033 A 
INPUT-LIGAND-PDBQT: ATOM      6  C   UNL     1       2.989   3.608  -0.305  1.00  0.00     0.114 A 
INPUT-LIGAND-PDBQT: ATOM      7  N   UNL     1       2.868   3.535  -1.655  1.00  0.00    -0.239 NA
INPUT-LIGAND-PDBQT: ATOM      8  C   UNL     1       2.275   2.350  -1.872  1.00  0.00     0.137 A 
INPUT-LIGAND-PDBQT: ATOM      9  N   UNL     1       1.884   1.858  -3.070  1.00  0.00    -0.346 N 
INPUT-LIGAND-PDBQT: ATOM     10  H   UNL     1       2.071   2.388  -3.950  1.00  0.00     0.167 HD
INPUT-LIGAND-PDBQT: ENDROOT
INPUT-LIGAND-PDBQT: BRANCH   3  11
INPUT-LIGAND-PDBQT: ATOM     11  C   UNL     1       1.044  -0.337   0.570  1.00  0.00     0.092 A 
INPUT-LIGAND-PDBQT: ATOM     12  C   UNL     1       1.993  -0.466   1.614  1.00  0.00     0.035 A 
INPUT-LIGAND-PDBQT: ATOM     13  N   UNL     1      -0.161  -0.970   0.686  1.00  0.00    -0.166 NA
INPUT-LIGAND-PDBQT: ATOM     14  C   UNL     1       1.679  -1.212   2.760  1.00  0.00     0.051 A 
INPUT-LIGAND-PDBQT: ATOM     15  N   UNL     1      -0.425  -1.671   1.786  1.00  0.00    -0.221 N 
INPUT-LIGAND-PDBQT: ATOM     16  C   UNL     1       0.427  -1.810   2.806  1.00  0.00     0.153 A 
INPUT-LIGAND-PDBQT: ATOM     17  C   UNL     1      -1.529  -2.354   2.099  1.00  0.00     0.135 A 
INPUT-LIGAND-PDBQT: ATOM     18  N   UNL     1      -0.068  -2.570   3.803  1.00  0.00    -0.236 NA
INPUT-LIGAND-PDBQT: ATOM     19  C   UNL     1      -1.303  -2.909   3.350  1.00  0.00     0.134 A 
INPUT-LIGAND-PDBQT: ENDBRANCH   3  11
INPUT-LIGAND-PDBQT: TORSDOF 1


    FINAL DOCKED STATE:
    ________________________


Run:   1 / 20
Time taken for this run:   0.017s

DOCKED: MODEL        1
DOCKED: USER    Run = 1
DOCKED: USER
DOCKED: USER    Estimated Free Energy of Binding    =  -6.36 kcal/mol  [=(1)+(2)+(3)-(4)]
DOCKED: USER
DOCKED: USER    (1) Final Intermolecular Energy     =  -6.65 kcal/mol
DOCKED: USER        vdW + Hbond + desolv Energy     =  -6.63 kcal/mol
DOCKED: USER        Electrostatic Energy            =  -0.02 kcal/mol
DOCKED: USER        Moving Ligand-Fixed Receptor    =  -6.65 kcal/mol
DOCKED: USER        Moving Ligand-Moving Receptor   =  +0.00 kcal/mol
DOCKED: USER    (2) Final Total Internal Energy     =  -0.21 kcal/mol
DOCKED: USER    (3) Torsional Free Energy           =  +0.30 kcal/mol
DOCKED: USER    (4) Unbound System's Energy         =  -0.21 kcal/mol
DOCKED: USER
DOCKED: USER
DOCKED: REMARK SMILES c1cc2c(-c3ccc4nccn4n3)cc[nH]c-2n1
DOCKED: REMARK SMILES IDX 15 1 14 2 4 3 3 4 2 5 1 6 18 7 17 8 16 9 5 11 6 12 13 13
DOCKED: REMARK SMILES IDX 7 14 12 15 8 16 11 17 9 18 10 19
DOCKED: REMARK H PARENT 16 10
DOCKED: USER                              x       y       z     vdW  Elec       q    Type
DOCKED: USER                           _______ _______ _______ _____ _____    ______ ____
DOCKED: ROOT
DOCKED: ATOM      1  C   UNL     1     141.037  67.920 228.139 -0.47 -0.03    +0.085 A  
DOCKED: ATOM      2  C   UNL     1     140.341  67.820 226.910 -0.65 -0.01    +0.029 A  
DOCKED: ATOM      3  C   UNL     1     139.987  68.975 226.177 -0.52 -0.00    +0.014 A  
DOCKED: ATOM      4  C   UNL     1     140.377  70.202 226.722 -0.55 -0.00    +0.028 A  
DOCKED: ATOM      5  C   UNL     1     140.311  71.506 226.287 -0.55 -0.01    +0.033 A  
DOCKED: ATOM      6  C   UNL     1     140.944  72.267 227.270 -0.67 -0.02    +0.114 A  
DOCKED: ATOM      7  N   UNL     1     141.420  71.512 228.293 -0.46 +0.05    -0.239 NA 
DOCKED: ATOM      8  C   UNL     1     141.080  70.255 227.965 -0.49 -0.03    +0.137 A  
DOCKED: ATOM      9  N   UNL     1     141.399  69.134 228.652 -0.19 +0.08    -0.346 N  
DOCKED: ATOM     10  H   UNL     1     141.926  69.193 229.552 +0.11 -0.04    +0.167 HD 
DOCKED: ENDROOT
DOCKED: BRANCH   3  11
DOCKED: ATOM     11  C   UNL     1     139.264  68.856 224.892 -0.34 -0.01    +0.092 A  
DOCKED: ATOM     12  C   UNL     1     138.602  69.965 224.310 -0.31 -0.01    +0.035 A  
DOCKED: ATOM     13  N   UNL     1     139.193  67.641 224.274 -0.63 +0.01    -0.166 NA 
DOCKED: ATOM     14  C   UNL     1     137.910  69.813 223.099 -0.19 -0.01    +0.051 A  
DOCKED: ATOM     15  N   UNL     1     138.526  67.532 223.127 -0.17 +0.02    -0.221 N  
DOCKED: ATOM     16  C   UNL     1     137.900  68.548 222.527 -0.15 -0.02    +0.153 A  
DOCKED: ATOM     17  C   UNL     1     138.340  66.450 222.366 -0.20 -0.02    +0.135 A  
DOCKED: ATOM     18  N   UNL     1     137.292  68.187 221.379 -0.05 +0.04    -0.236 NA 
DOCKED: ATOM     19  C   UNL     1     137.575  66.861 221.284 -0.13 -0.03    +0.134 A  
DOCKED: ENDBRANCH   3  11
DOCKED: TORSDOF 1
DOCKED: TER
DOCKED: ENDMDL
________________________________________________________________________________


    FINAL DOCKED STATE:
    ________________________


Run:   2 / 20
Time taken for this run:   0.017s

DOCKED: MODEL        2
DOCKED: USER    Run = 2
DOCKED: USER
DOCKED: USER    Estimated Free Energy of Binding    =  -6.22 kcal/mol  [=(1)+(2)+(3)-(4)]
DOCKED: USER
DOCKED: USER    (1) Final Intermolecular Energy     =  -6.52 kcal/mol
DOCKED: USER        vdW + Hbond + desolv Energy     =  -6.48 kcal/mol
DOCKED: USER        Electrostatic Energy            =  -0.03 kcal/mol
DOCKED: USER        Moving Ligand-Fixed Receptor    =  -6.52 kcal/mol
DOCKED: USER        Moving Ligand-Moving Receptor   =  +0.00 kcal/mol
DOCKED: USER    (2) Final Total Internal Energy     =  -0.35 kcal/mol
DOCKED: USER    (3) Torsional Free Energy           =  +0.30 kcal/mol
DOCKED: USER    (4) Unbound System's Energy         =  -0.35 kcal/mol
DOCKED: USER
DOCKED: USER
DOCKED: REMARK SMILES c1cc2c(-c3ccc4nccn4n3)cc[nH]c-2n1
DOCKED: REMARK SMILES IDX 15 1 14 2 4 3 3 4 2 5 1 6 18 7 17 8 16 9 5 11 6 12 13 13
DOCKED: REMARK SMILES IDX 7 14 12 15 8 16 11 17 9 18 10 19
DOCKED: REMARK H PARENT 16 10
DOCKED: USER                              x       y       z     vdW  Elec       q    Type
DOCKED: USER                           _______ _______ _______ _____ _____    ______ ____
DOCKED: ROOT
DOCKED: ATOM      1  C   UNL     1     139.587  67.705 226.030 -0.55 -0.01    +0.085 A  
DOCKED: ATOM      2  C   UNL     1     139.334  68.640 224.997 -0.40 -0.00    +0.029 A  
DOCKED: ATOM      3  C   UNL     1     139.629  70.012 225.169 -0.42 -0.00    +0.014 A  
DOCKED: ATOM      4  C   UNL     1     140.193  70.379 226.394 -0.53 -0.00    +0.028 A  
DOCKED: ATOM      5  C   UNL     1     140.695  71.555 226.902 -0.70 -0.01    +0.033 A  
DOCKED: ATOM      6  C   UNL     1     141.184  71.243 228.171 -0.58 -0.02    +0.114 A  
DOCKED: ATOM      7  N   UNL     1     141.033  69.931 228.484 -0.24 +0.05    -0.239 NA 
DOCKED: ATOM      8  C   UNL     1     140.432  69.400 227.408 -0.49 -0.03    +0.137 A  
DOCKED: ATOM      9  N   UNL     1     140.133  68.094 227.221 -0.32 +0.07    -0.346 N  
DOCKED: ATOM     10  H   UNL     1     140.328  67.391 227.968 -0.37 -0.07    +0.167 HD 
DOCKED: ENDROOT
DOCKED: BRANCH   3  11
DOCKED: ATOM     11  C   UNL     1     139.363  70.978 224.081 -0.33 -0.02    +0.092 A  
DOCKED: ATOM     12  C   UNL     1     138.066  71.140 223.534 -0.24 -0.01    +0.035 A  
DOCKED: ATOM     13  N   UNL     1     140.399  71.701 223.560 -0.31 +0.02    -0.166 NA 
DOCKED: ATOM     14  C   UNL     1     137.853  72.053 222.491 -0.16 -0.01    +0.051 A  
DOCKED: ATOM     15  N   UNL     1     140.161  72.557 222.569 -0.23 +0.03    -0.221 N  
DOCKED: ATOM     16  C   UNL     1     138.956  72.760 222.029 -0.17 -0.04    +0.153 A  
DOCKED: ATOM     17  C   UNL     1     141.019  73.355 221.928 -0.19 -0.00    +0.135 A  
DOCKED: ATOM     18  N   UNL     1     138.972  73.672 221.038 -0.09 +0.05    -0.236 NA 
DOCKED: ATOM     19  C   UNL     1     140.277  74.044 220.980 -0.19 -0.02    +0.134 A  
DOCKED: ENDBRANCH   3  11
DOCKED: TORSDOF 1
DOCKED: TER
DOCKED: ENDMDL
________________________________________________________________________________


    FINAL DOCKED STATE:
    ________________________


Run:   3 / 20
Time taken for this run:   0.017s

DOCKED: MODEL        3
DOCKED: USER    Run = 3
DOCKED: USER
DOCKED: USER    Estimated Free Energy of Binding    =  -6.22 kcal/mol  [=(1)+(2)+(3)-(4)]
DOCKED: USER
DOCKED: USER    (1) Final Intermolecular Energy     =  -6.51 kcal/mol
DOCKED: USER        vdW + Hbond + desolv Energy     =  -6.48 kcal/mol
DOCKED: USER        Electrostatic Energy            =  -0.03 kcal/mol
DOCKED: USER        Moving Ligand-Fixed Receptor    =  -6.51 kcal/mol
DOCKED: USER        Moving Ligand-Moving Receptor   =  +0.00 kcal/mol
DOCKED: USER    (2) Final Total Internal Energy     =  -0.35 kcal/mol
DOCKED: USER    (3) Torsional Free Energy           =  +0.30 kcal/mol
DOCKED: USER    (4) Unbound System's Energy         =  -0.35 kcal/mol
DOCKED: USER
DOCKED: USER
DOCKED: REMARK SMILES c1cc2c(-c3ccc4nccn4n3)cc[nH]c-2n1
DOCKED: REMARK SMILES IDX 15 1 14 2 4 3 3 4 2 5 1 6 18 7 17 8 16 9 5 11 6 12 13 13
DOCKED: REMARK SMILES IDX 7 14 12 15 8 16 11 17 9 18 10 19
DOCKED: REMARK H PARENT 16 10
DOCKED: USER                              x       y       z     vdW  Elec       q    Type
DOCKED: USER                           _______ _______ _______ _____ _____    ______ ____
DOCKED: ROOT
DOCKED: ATOM      1  C   UNL     1     139.591  67.707 226.026 -0.55 -0.01    +0.085 A  
DOCKED: ATOM      2  C   UNL     1     139.345  68.645 224.994 -0.39 -0.00    +0.029 A  
DOCKED: ATOM      3  C   UNL     1     139.639  70.016 225.171 -0.42 -0.00    +0.014 A  
DOCKED: ATOM      4  C   UNL     1     140.197  70.380 226.399 -0.53 -0.00    +0.028 A  
DOCKED: ATOM      5  C   UNL     1     140.697  71.555 226.913 -0.70 -0.01    +0.033 A  
DOCKED: ATOM      6  C   UNL     1     141.179  71.240 228.184 -0.57 -0.02    +0.114 A  
DOCKED: ATOM      7  N   UNL     1     141.026  69.927 228.493 -0.23 +0.05    -0.239 NA 
DOCKED: ATOM      8  C   UNL     1     140.430  69.398 227.412 -0.49 -0.03    +0.137 A  
DOCKED: ATOM      9  N   UNL     1     140.132  68.093 227.221 -0.32 +0.07    -0.346 N  
DOCKED: ATOM     10  H   UNL     1     140.323  67.388 227.967 -0.37 -0.07    +0.167 HD 
DOCKED: ENDROOT
DOCKED: BRANCH   3  11
DOCKED: ATOM     11  C   UNL     1     139.380  70.985 224.084 -0.34 -0.02    +0.092 A  
DOCKED: ATOM     12  C   UNL     1     138.086  71.149 223.531 -0.24 -0.01    +0.035 A  
DOCKED: ATOM     13  N   UNL     1     140.419  71.708 223.569 -0.31 +0.02    -0.166 NA 
DOCKED: ATOM     14  C   UNL     1     137.879  72.065 222.488 -0.16 -0.01    +0.051 A  
DOCKED: ATOM     15  N   UNL     1     140.187  72.566 222.578 -0.23 +0.02    -0.221 N  
DOCKED: ATOM     16  C   UNL     1     138.984  72.771 222.033 -0.17 -0.04    +0.153 A  
DOCKED: ATOM     17  C   UNL     1     141.049  73.363 221.942 -0.18 -0.00    +0.135 A  
DOCKED: ATOM     18  N   UNL     1     139.006  73.686 221.044 -0.10 +0.05    -0.236 NA 
DOCKED: ATOM     19  C   UNL     1     140.312  74.056 220.993 -0.19 -0.02    +0.134 A  
DOCKED: ENDBRANCH   3  11
DOCKED: TORSDOF 1
DOCKED: TER
DOCKED: ENDMDL
________________________________________________________________________________


    FINAL DOCKED STATE:
    ________________________


Run:   4 / 20
Time taken for this run:   0.017s

DOCKED: MODEL        4
DOCKED: USER    Run = 4
DOCKED: USER
DOCKED: USER    Estimated Free Energy of Binding    =  -6.36 kcal/mol  [=(1)+(2)+(3)-(4)]
DOCKED: USER
DOCKED: USER    (1) Final Intermolecular Energy     =  -6.65 kcal/mol
DOCKED: USER        vdW + Hbond + desolv Energy     =  -6.63 kcal/mol
DOCKED: USER        Electrostatic Energy            =  -0.02 kcal/mol
DOCKED: USER        Moving Ligand-Fixed Receptor    =  -6.65 kcal/mol
DOCKED: USER        Moving Ligand-Moving Receptor   =  +0.00 kcal/mol
DOCKED: USER    (2) Final Total Internal Energy     =  -0.24 kcal/mol
DOCKED: USER    (3) Torsional Free Energy           =  +0.30 kcal/mol
DOCKED: USER    (4) Unbound System's Energy         =  -0.24 kcal/mol
DOCKED: USER
DOCKED: USER
DOCKED: REMARK SMILES c1cc2c(-c3ccc4nccn4n3)cc[nH]c-2n1
DOCKED: REMARK SMILES IDX 15 1 14 2 4 3 3 4 2 5 1 6 18 7 17 8 16 9 5 11 6 12 13 13
DOCKED: REMARK SMILES IDX 7 14 12 15 8 16 11 17 9 18 10 19
DOCKED: REMARK H PARENT 16 10
DOCKED: USER                              x       y       z     vdW  Elec       q    Type
DOCKED: USER                           _______ _______ _______ _____ _____    ______ ____
DOCKED: ROOT
DOCKED: ATOM      1  C   UNL     1     141.010  67.950 228.174 -0.48 -0.03    +0.085 A  
DOCKED: ATOM      2  C   UNL     1     140.290  67.832 226.960 -0.65 -0.01    +0.029 A  
DOCKED: ATOM      3  C   UNL     1     139.942  68.976 226.205 -0.52 -0.00    +0.014 A  
DOCKED: ATOM      4  C   UNL     1     140.363  70.208 226.713 -0.55 -0.00    +0.028 A  
DOCKED: ATOM      5  C   UNL     1     140.313  71.502 226.247 -0.55 -0.01    +0.033 A  
DOCKED: ATOM      6  C   UNL     1     140.977  72.276 227.200 -0.66 -0.02    +0.114 A  
DOCKED: ATOM      7  N   UNL     1     141.458  71.538 228.232 -0.45 +0.05    -0.239 NA 
DOCKED: ATOM      8  C   UNL     1     141.090  70.280 227.942 -0.48 -0.03    +0.137 A  
DOCKED: ATOM      9  N   UNL     1     141.403  69.170 228.650 -0.19 +0.08    -0.346 N  
DOCKED: ATOM     10  H   UNL     1     141.947  69.241 229.538 +0.10 -0.04    +0.167 HD 
DOCKED: ENDROOT
DOCKED: BRANCH   3  11
DOCKED: ATOM     11  C   UNL     1     139.193  68.839 224.938 -0.35 -0.01    +0.092 A  
DOCKED: ATOM     12  C   UNL     1     138.429  69.909 224.410 -0.31 -0.01    +0.035 A  
DOCKED: ATOM     13  N   UNL     1     139.201  67.641 224.281 -0.63 +0.01    -0.166 NA 
DOCKED: ATOM     14  C   UNL     1     137.716  69.739 223.213 -0.19 -0.01    +0.051 A  
DOCKED: ATOM     15  N   UNL     1     138.512  67.514 223.150 -0.16 +0.02    -0.221 N  
DOCKED: ATOM     16  C   UNL     1     137.789  68.495 222.601 -0.16 -0.02    +0.153 A  
DOCKED: ATOM     17  C   UNL     1     138.390  66.445 222.359 -0.22 -0.02    +0.135 A  
DOCKED: ATOM     18  N   UNL     1     137.179  68.121 221.459 -0.05 +0.04    -0.236 NA 
DOCKED: ATOM     19  C   UNL     1     137.564  66.826 221.312 -0.13 -0.03    +0.134 A  
DOCKED: ENDBRANCH   3  11
DOCKED: TORSDOF 1
DOCKED: TER
DOCKED: ENDMDL
________________________________________________________________________________


    FINAL DOCKED STATE:
    ________________________


Run:   5 / 20
Time taken for this run:   0.017s

DOCKED: MODEL        5
DOCKED: USER    Run = 5
DOCKED: USER
DOCKED: USER    Estimated Free Energy of Binding    =  -6.36 kcal/mol  [=(1)+(2)+(3)-(4)]
DOCKED: USER
DOCKED: USER    (1) Final Intermolecular Energy     =  -6.66 kcal/mol
DOCKED: USER        vdW + Hbond + desolv Energy     =  -6.63 kcal/mol
DOCKED: USER        Electrostatic Energy            =  -0.02 kcal/mol
DOCKED: USER        Moving Ligand-Fixed Receptor    =  -6.66 kcal/mol
DOCKED: USER        Moving Ligand-Moving Receptor   =  +0.00 kcal/mol
DOCKED: USER    (2) Final Total Internal Energy     =  -0.24 kcal/mol
DOCKED: USER    (3) Torsional Free Energy           =  +0.30 kcal/mol
DOCKED: USER    (4) Unbound System's Energy         =  -0.24 kcal/mol
DOCKED: USER
DOCKED: USER
DOCKED: REMARK SMILES c1cc2c(-c3ccc4nccn4n3)cc[nH]c-2n1
DOCKED: REMARK SMILES IDX 15 1 14 2 4 3 3 4 2 5 1 6 18 7 17 8 16 9 5 11 6 12 13 13
DOCKED: REMARK SMILES IDX 7 14 12 15 8 16 11 17 9 18 10 19
DOCKED: REMARK H PARENT 16 10
DOCKED: USER                              x       y       z     vdW  Elec       q    Type
DOCKED: USER                           _______ _______ _______ _____ _____    ______ ____
DOCKED: ROOT
DOCKED: ATOM      1  C   UNL     1     141.034  67.937 228.203 -0.47 -0.03    +0.085 A  
DOCKED: ATOM      2  C   UNL     1     140.317  67.817 226.987 -0.64 -0.01    +0.029 A  
DOCKED: ATOM      3  C   UNL     1     139.963  68.960 226.234 -0.52 -0.00    +0.014 A  
DOCKED: ATOM      4  C   UNL     1     140.373  70.194 226.746 -0.55 -0.00    +0.028 A  
DOCKED: ATOM      5  C   UNL     1     140.313  71.489 226.284 -0.56 -0.01    +0.033 A  
DOCKED: ATOM      6  C   UNL     1     140.969  72.265 227.240 -0.67 -0.02    +0.114 A  
DOCKED: ATOM      7  N   UNL     1     141.454  71.528 228.272 -0.45 +0.05    -0.239 NA 
DOCKED: ATOM      8  C   UNL     1     141.096  70.268 227.977 -0.48 -0.03    +0.137 A  
DOCKED: ATOM      9  N   UNL     1     141.416  69.159 228.683 -0.19 +0.08    -0.346 N  
DOCKED: ATOM     10  H   UNL     1     141.957  69.232 229.573 +0.11 -0.04    +0.167 HD 
DOCKED: ENDROOT
DOCKED: BRANCH   3  11
DOCKED: ATOM     11  C   UNL     1     139.218  68.821 224.964 -0.35 -0.01    +0.092 A  
DOCKED: ATOM     12  C   UNL     1     138.463  69.893 224.427 -0.31 -0.01    +0.035 A  
DOCKED: ATOM     13  N   UNL     1     139.219  67.619 224.315 -0.63 +0.01    -0.166 NA 
DOCKED: ATOM     14  C   UNL     1     137.753  69.721 223.229 -0.19 -0.01    +0.051 A  
DOCKED: ATOM     15  N   UNL     1     138.533  67.490 223.182 -0.15 +0.02    -0.221 N  
DOCKED: ATOM     16  C   UNL     1     137.820  68.473 222.624 -0.16 -0.02    +0.153 A  
DOCKED: ATOM     17  C   UNL     1     138.407  66.417 222.397 -0.21 -0.02    +0.135 A  
DOCKED: ATOM     18  N   UNL     1     137.212  68.097 221.482 -0.06 +0.04    -0.236 NA 
DOCKED: ATOM     19  C   UNL     1     137.587  66.798 221.345 -0.14 -0.03    +0.134 A  
DOCKED: ENDBRANCH   3  11
DOCKED: TORSDOF 1
DOCKED: TER
DOCKED: ENDMDL
________________________________________________________________________________


    FINAL DOCKED STATE:
    ________________________


Run:   6 / 20
Time taken for this run:   0.017s

DOCKED: MODEL        6
DOCKED: USER    Run = 6
DOCKED: USER
DOCKED: USER    Estimated Free Energy of Binding    =  -6.22 kcal/mol  [=(1)+(2)+(3)-(4)]
DOCKED: USER
DOCKED: USER    (1) Final Intermolecular Energy     =  -6.51 kcal/mol
DOCKED: USER        vdW + Hbond + desolv Energy     =  -6.48 kcal/mol
DOCKED: USER        Electrostatic Energy            =  -0.03 kcal/mol
DOCKED: USER        Moving Ligand-Fixed Receptor    =  -6.51 kcal/mol
DOCKED: USER        Moving Ligand-Moving Receptor   =  +0.00 kcal/mol
DOCKED: USER    (2) Final Total Internal Energy     =  -0.35 kcal/mol
DOCKED: USER    (3) Torsional Free Energy           =  +0.30 kcal/mol
DOCKED: USER    (4) Unbound System's Energy         =  -0.35 kcal/mol
DOCKED: USER
DOCKED: USER
DOCKED: REMARK SMILES c1cc2c(-c3ccc4nccn4n3)cc[nH]c-2n1
DOCKED: REMARK SMILES IDX 15 1 14 2 4 3 3 4 2 5 1 6 18 7 17 8 16 9 5 11 6 12 13 13
DOCKED: REMARK SMILES IDX 7 14 12 15 8 16 11 17 9 18 10 19
DOCKED: REMARK H PARENT 16 10
DOCKED: USER                              x       y       z     vdW  Elec       q    Type
DOCKED: USER                           _______ _______ _______ _____ _____    ______ ____
DOCKED: ROOT
DOCKED: ATOM      1  C   UNL     1     139.597  67.704 226.029 -0.55 -0.01    +0.085 A  
DOCKED: ATOM      2  C   UNL     1     139.346  68.641 224.998 -0.39 -0.00    +0.029 A  
DOCKED: ATOM      3  C   UNL     1     139.639  70.013 225.174 -0.42 -0.00    +0.014 A  
DOCKED: ATOM      4  C   UNL     1     140.200  70.378 226.400 -0.53 -0.00    +0.028 A  
DOCKED: ATOM      5  C   UNL     1     140.700  71.554 226.912 -0.70 -0.01    +0.033 A  
DOCKED: ATOM      6  C   UNL     1     141.186  71.239 228.182 -0.57 -0.02    +0.114 A  
DOCKED: ATOM      7  N   UNL     1     141.036  69.926 228.492 -0.24 +0.05    -0.239 NA 
DOCKED: ATOM      8  C   UNL     1     140.438  69.396 227.412 -0.49 -0.03    +0.137 A  
DOCKED: ATOM      9  N   UNL     1     140.141  68.090 227.222 -0.32 +0.07    -0.346 N  
DOCKED: ATOM     10  H   UNL     1     140.335  67.386 227.968 -0.37 -0.07    +0.167 HD 
DOCKED: ENDROOT
DOCKED: BRANCH   3  11
DOCKED: ATOM     11  C   UNL     1     139.375  70.982 224.087 -0.34 -0.02    +0.092 A  
DOCKED: ATOM     12  C   UNL     1     138.078  71.147 223.542 -0.24 -0.01    +0.035 A  
DOCKED: ATOM     13  N   UNL     1     140.412  71.703 223.566 -0.31 +0.02    -0.166 NA 
DOCKED: ATOM     14  C   UNL     1     137.866  72.062 222.499 -0.16 -0.01    +0.051 A  
DOCKED: ATOM     15  N   UNL     1     140.176  72.561 222.577 -0.23 +0.03    -0.221 N  
DOCKED: ATOM     16  C   UNL     1     138.970  72.767 222.038 -0.17 -0.04    +0.153 A  
DOCKED: ATOM     17  C   UNL     1     141.035  73.357 221.935 -0.19 -0.00    +0.135 A  
DOCKED: ATOM     18  N   UNL     1     138.987  73.681 221.048 -0.10 +0.05    -0.236 NA 
DOCKED: ATOM     19  C   UNL     1     140.294  74.049 220.989 -0.19 -0.02    +0.134 A  
DOCKED: ENDBRANCH   3  11
DOCKED: TORSDOF 1
DOCKED: TER
DOCKED: ENDMDL
________________________________________________________________________________


    FINAL DOCKED STATE:
    ________________________


Run:   7 / 20
Time taken for this run:   0.017s

DOCKED: MODEL        7
DOCKED: USER    Run = 7
DOCKED: USER
DOCKED: USER    Estimated Free Energy of Binding    =  -6.22 kcal/mol  [=(1)+(2)+(3)-(4)]
DOCKED: USER
DOCKED: USER    (1) Final Intermolecular Energy     =  -6.51 kcal/mol
DOCKED: USER        vdW + Hbond + desolv Energy     =  -6.48 kcal/mol
DOCKED: USER        Electrostatic Energy            =  -0.03 kcal/mol
DOCKED: USER        Moving Ligand-Fixed Receptor    =  -6.51 kcal/mol
DOCKED: USER        Moving Ligand-Moving Receptor   =  +0.00 kcal/mol
DOCKED: USER    (2) Final Total Internal Energy     =  -0.35 kcal/mol
DOCKED: USER    (3) Torsional Free Energy           =  +0.30 kcal/mol
DOCKED: USER    (4) Unbound System's Energy         =  -0.35 kcal/mol
DOCKED: USER
DOCKED: USER
DOCKED: REMARK SMILES c1cc2c(-c3ccc4nccn4n3)cc[nH]c-2n1
DOCKED: REMARK SMILES IDX 15 1 14 2 4 3 3 4 2 5 1 6 18 7 17 8 16 9 5 11 6 12 13 13
DOCKED: REMARK SMILES IDX 7 14 12 15 8 16 11 17 9 18 10 19
DOCKED: REMARK H PARENT 16 10
DOCKED: USER                              x       y       z     vdW  Elec       q    Type
DOCKED: USER                           _______ _______ _______ _____ _____    ______ ____
DOCKED: ROOT
DOCKED: ATOM      1  C   UNL     1     139.607  67.705 226.016 -0.54 -0.01    +0.085 A  
DOCKED: ATOM      2  C   UNL     1     139.358  68.641 224.983 -0.39 -0.00    +0.029 A  
DOCKED: ATOM      3  C   UNL     1     139.648  70.014 225.159 -0.42 -0.00    +0.014 A  
DOCKED: ATOM      4  C   UNL     1     140.204  70.380 226.388 -0.53 -0.00    +0.028 A  
DOCKED: ATOM      5  C   UNL     1     140.700  71.557 226.901 -0.70 -0.01    +0.033 A  
DOCKED: ATOM      6  C   UNL     1     141.182  71.244 228.173 -0.58 -0.02    +0.114 A  
DOCKED: ATOM      7  N   UNL     1     141.033  69.931 228.483 -0.24 +0.05    -0.239 NA 
DOCKED: ATOM      8  C   UNL     1     140.440  69.400 227.402 -0.49 -0.03    +0.137 A  
DOCKED: ATOM      9  N   UNL     1     140.145  68.093 227.211 -0.32 +0.07    -0.346 N  
DOCKED: ATOM     10  H   UNL     1     140.338  67.389 227.958 -0.36 -0.07    +0.167 HD 
DOCKED: ENDROOT
DOCKED: BRANCH   3  11
DOCKED: ATOM     11  C   UNL     1     139.387  70.981 224.071 -0.33 -0.02    +0.092 A  
DOCKED: ATOM     12  C   UNL     1     138.093  71.140 223.516 -0.24 -0.01    +0.035 A  
DOCKED: ATOM     13  N   UNL     1     140.423  71.708 223.558 -0.31 +0.02    -0.166 NA 
DOCKED: ATOM     14  C   UNL     1     137.884  72.054 222.473 -0.16 -0.01    +0.051 A  
DOCKED: ATOM     15  N   UNL     1     140.190  72.565 222.567 -0.23 +0.02    -0.221 N  
DOCKED: ATOM     16  C   UNL     1     138.987  72.765 222.020 -0.17 -0.04    +0.153 A  
DOCKED: ATOM     17  C   UNL     1     141.049  73.366 221.932 -0.18 -0.00    +0.135 A  
DOCKED: ATOM     18  N   UNL     1     139.006  73.679 221.030 -0.09 +0.05    -0.236 NA 
DOCKED: ATOM     19  C   UNL     1     140.311  74.054 220.981 -0.19 -0.02    +0.134 A  
DOCKED: ENDBRANCH   3  11
DOCKED: TORSDOF 1
DOCKED: TER
DOCKED: ENDMDL
________________________________________________________________________________


    FINAL DOCKED STATE:
    ________________________


Run:   8 / 20
Time taken for this run:   0.017s

DOCKED: MODEL        8
DOCKED: USER    Run = 8
DOCKED: USER
DOCKED: USER    Estimated Free Energy of Binding    =  -6.22 kcal/mol  [=(1)+(2)+(3)-(4)]
DOCKED: USER
DOCKED: USER    (1) Final Intermolecular Energy     =  -6.52 kcal/mol
DOCKED: USER        vdW + Hbond + desolv Energy     =  -6.48 kcal/mol
DOCKED: USER        Electrostatic Energy            =  -0.03 kcal/mol
DOCKED: USER        Moving Ligand-Fixed Receptor    =  -6.52 kcal/mol
DOCKED: USER        Moving Ligand-Moving Receptor   =  +0.00 kcal/mol
DOCKED: USER    (2) Final Total Internal Energy     =  -0.35 kcal/mol
DOCKED: USER    (3) Torsional Free Energy           =  +0.30 kcal/mol
DOCKED: USER    (4) Unbound System's Energy         =  -0.35 kcal/mol
DOCKED: USER
DOCKED: USER
DOCKED: REMARK SMILES c1cc2c(-c3ccc4nccn4n3)cc[nH]c-2n1
DOCKED: REMARK SMILES IDX 15 1 14 2 4 3 3 4 2 5 1 6 18 7 17 8 16 9 5 11 6 12 13 13
DOCKED: REMARK SMILES IDX 7 14 12 15 8 16 11 17 9 18 10 19
DOCKED: REMARK H PARENT 16 10
DOCKED: USER                              x       y       z     vdW  Elec       q    Type
DOCKED: USER                           _______ _______ _______ _____ _____    ______ ____
DOCKED: ROOT
DOCKED: ATOM      1  C   UNL     1     139.595  67.701 226.024 -0.55 -0.01    +0.085 A  
DOCKED: ATOM      2  C   UNL     1     139.352  68.637 224.989 -0.39 -0.00    +0.029 A  
DOCKED: ATOM      3  C   UNL     1     139.647  70.009 225.162 -0.42 -0.00    +0.014 A  
DOCKED: ATOM      4  C   UNL     1     140.201  70.375 226.392 -0.53 -0.00    +0.028 A  
DOCKED: ATOM      5  C   UNL     1     140.700  71.551 226.903 -0.70 -0.01    +0.033 A  
DOCKED: ATOM      6  C   UNL     1     141.178  71.240 228.177 -0.58 -0.02    +0.114 A  
DOCKED: ATOM      7  N   UNL     1     141.022  69.928 228.489 -0.24 +0.05    -0.239 NA 
DOCKED: ATOM      8  C   UNL     1     140.430  69.396 227.408 -0.49 -0.03    +0.137 A  
DOCKED: ATOM      9  N   UNL     1     140.131  68.090 227.220 -0.32 +0.07    -0.346 N  
DOCKED: ATOM     10  H   UNL     1     140.319  67.388 227.969 -0.37 -0.07    +0.167 HD 
DOCKED: ENDROOT
DOCKED: BRANCH   3  11
DOCKED: ATOM     11  C   UNL     1     139.392  70.974 224.072 -0.33 -0.02    +0.092 A  
DOCKED: ATOM     12  C   UNL     1     138.101  71.135 223.512 -0.24 -0.01    +0.035 A  
DOCKED: ATOM     13  N   UNL     1     140.432  71.697 223.560 -0.31 +0.02    -0.166 NA 
DOCKED: ATOM     14  C   UNL     1     137.898  72.048 222.466 -0.16 -0.01    +0.051 A  
DOCKED: ATOM     15  N   UNL     1     140.205  72.553 222.567 -0.23 +0.02    -0.221 N  
DOCKED: ATOM     16  C   UNL     1     139.004  72.755 222.015 -0.17 -0.04    +0.153 A  
DOCKED: ATOM     17  C   UNL     1     141.069  73.351 221.934 -0.18 -0.00    +0.135 A  
DOCKED: ATOM     18  N   UNL     1     139.030  73.668 221.023 -0.09 +0.05    -0.236 NA 
DOCKED: ATOM     19  C   UNL     1     140.336  74.039 220.978 -0.19 -0.02    +0.134 A  
DOCKED: ENDBRANCH   3  11
DOCKED: TORSDOF 1
DOCKED: TER
DOCKED: ENDMDL
________________________________________________________________________________


    FINAL DOCKED STATE:
    ________________________


Run:   9 / 20
Time taken for this run:   0.017s

DOCKED: MODEL        9
DOCKED: USER    Run = 9
DOCKED: USER
DOCKED: USER    Estimated Free Energy of Binding    =  -6.22 kcal/mol  [=(1)+(2)+(3)-(4)]
DOCKED: USER
DOCKED: USER    (1) Final Intermolecular Energy     =  -6.51 kcal/mol
DOCKED: USER        vdW + Hbond + desolv Energy     =  -6.48 kcal/mol
DOCKED: USER        Electrostatic Energy            =  -0.03 kcal/mol
DOCKED: USER        Moving Ligand-Fixed Receptor    =  -6.51 kcal/mol
DOCKED: USER        Moving Ligand-Moving Receptor   =  +0.00 kcal/mol
DOCKED: USER    (2) Final Total Internal Energy     =  -0.35 kcal/mol
DOCKED: USER    (3) Torsional Free Energy           =  +0.30 kcal/mol
DOCKED: USER    (4) Unbound System's Energy         =  -0.35 kcal/mol
DOCKED: USER
DOCKED: USER
DOCKED: REMARK SMILES c1cc2c(-c3ccc4nccn4n3)cc[nH]c-2n1
DOCKED: REMARK SMILES IDX 15 1 14 2 4 3 3 4 2 5 1 6 18 7 17 8 16 9 5 11 6 12 13 13
DOCKED: REMARK SMILES IDX 7 14 12 15 8 16 11 17 9 18 10 19
DOCKED: REMARK H PARENT 16 10
DOCKED: USER                              x       y       z     vdW  Elec       q    Type
DOCKED: USER                           _______ _______ _______ _____ _____    ______ ____
DOCKED: ROOT
DOCKED: ATOM      1  C   UNL     1     139.596  67.704 226.027 -0.55 -0.01    +0.085 A  
DOCKED: ATOM      2  C   UNL     1     139.345  68.640 224.994 -0.39 -0.00    +0.029 A  
DOCKED: ATOM      3  C   UNL     1     139.637  70.012 225.167 -0.42 -0.00    +0.014 A  
DOCKED: ATOM      4  C   UNL     1     140.197  70.379 226.393 -0.53 -0.00    +0.028 A  
DOCKED: ATOM      5  C   UNL     1     140.696  71.557 226.903 -0.70 -0.01    +0.033 A  
DOCKED: ATOM      6  C   UNL     1     141.182  71.245 228.174 -0.58 -0.02    +0.114 A  
DOCKED: ATOM      7  N   UNL     1     141.031  69.933 228.486 -0.24 +0.05    -0.239 NA 
DOCKED: ATOM      8  C   UNL     1     140.434  69.401 227.408 -0.49 -0.03    +0.137 A  
DOCKED: ATOM      9  N   UNL     1     140.138  68.094 227.220 -0.32 +0.07    -0.346 N  
DOCKED: ATOM     10  H   UNL     1     140.332  67.391 227.968 -0.36 -0.07    +0.167 HD 
DOCKED: ENDROOT
DOCKED: BRANCH   3  11
DOCKED: ATOM     11  C   UNL     1     139.373  70.978 224.078 -0.33 -0.02    +0.092 A  
DOCKED: ATOM     12  C   UNL     1     138.077  71.141 223.530 -0.24 -0.01    +0.035 A  
DOCKED: ATOM     13  N   UNL     1     140.410  71.699 223.557 -0.31 +0.02    -0.166 NA 
DOCKED: ATOM     14  C   UNL     1     137.866  72.054 222.486 -0.16 -0.01    +0.051 A  
DOCKED: ATOM     15  N   UNL     1     140.174  72.555 222.566 -0.23 +0.03    -0.221 N  
DOCKED: ATOM     16  C   UNL     1     138.969  72.759 222.025 -0.17 -0.04    +0.153 A  
DOCKED: ATOM     17  C   UNL     1     141.033  73.351 221.924 -0.19 -0.00    +0.135 A  
DOCKED: ATOM     18  N   UNL     1     138.987  73.671 221.033 -0.09 +0.05    -0.236 NA 
DOCKED: ATOM     19  C   UNL     1     140.293  74.041 220.975 -0.19 -0.02    +0.134 A  
DOCKED: ENDBRANCH   3  11
DOCKED: TORSDOF 1
DOCKED: TER
DOCKED: ENDMDL
________________________________________________________________________________


    FINAL DOCKED STATE:
    ________________________


Run:   10 / 20
Time taken for this run:   0.017s

DOCKED: MODEL        10
DOCKED: USER    Run = 10
DOCKED: USER
DOCKED: USER    Estimated Free Energy of Binding    =  -6.22 kcal/mol  [=(1)+(2)+(3)-(4)]
DOCKED: USER
DOCKED: USER    (1) Final Intermolecular Energy     =  -6.52 kcal/mol
DOCKED: USER        vdW + Hbond + desolv Energy     =  -6.48 kcal/mol
DOCKED: USER        Electrostatic Energy            =  -0.04 kcal/mol
DOCKED: USER        Moving Ligand-Fixed Receptor    =  -6.52 kcal/mol
DOCKED: USER        Moving Ligand-Moving Receptor   =  +0.00 kcal/mol
DOCKED: USER    (2) Final Total Internal Energy     =  -0.35 kcal/mol
DOCKED: USER    (3) Torsional Free Energy           =  +0.30 kcal/mol
DOCKED: USER    (4) Unbound System's Energy         =  -0.35 kcal/mol
DOCKED: USER
DOCKED: USER
DOCKED: REMARK SMILES c1cc2c(-c3ccc4nccn4n3)cc[nH]c-2n1
DOCKED: REMARK SMILES IDX 15 1 14 2 4 3 3 4 2 5 1 6 18 7 17 8 16 9 5 11 6 12 13 13
DOCKED: REMARK SMILES IDX 7 14 12 15 8 16 11 17 9 18 10 19
DOCKED: REMARK H PARENT 16 10
DOCKED: USER                              x       y       z     vdW  Elec       q    Type
DOCKED: USER                           _______ _______ _______ _____ _____    ______ ____
DOCKED: ROOT
DOCKED: ATOM      1  C   UNL     1     139.793  67.478 226.025 -0.54 -0.01    +0.085 A  
DOCKED: ATOM      2  C   UNL     1     139.514  68.439 225.022 -0.39 -0.00    +0.029 A  
DOCKED: ATOM      3  C   UNL     1     139.734  69.816 225.251 -0.42 -0.00    +0.014 A  
DOCKED: ATOM      4  C   UNL     1     140.254  70.164 226.501 -0.53 -0.00    +0.028 A  
DOCKED: ATOM      5  C   UNL     1     140.685  71.344 227.063 -0.70 -0.01    +0.033 A  
DOCKED: ATOM      6  C   UNL     1     141.163  71.009 228.330 -0.51 -0.02    +0.114 A  
DOCKED: ATOM      7  N   UNL     1     141.073  69.680 228.592 -0.23 +0.05    -0.239 NA 
DOCKED: ATOM      8  C   UNL     1     140.522  69.160 227.483 -0.50 -0.03    +0.137 A  
DOCKED: ATOM      9  N   UNL     1     140.294  67.849 227.242 -0.32 +0.09    -0.346 N  
DOCKED: ATOM     10  H   UNL     1     140.510  67.129 227.967 -0.37 -0.09    +0.167 HD 
DOCKED: ENDROOT
DOCKED: BRANCH   3  11
DOCKED: ATOM     11  C   UNL     1     139.442  70.808 224.194 -0.34 -0.02    +0.092 A  
DOCKED: ATOM     12  C   UNL     1     138.122  71.030 223.732 -0.25 -0.01    +0.035 A  
DOCKED: ATOM     13  N   UNL     1     140.472  71.496 223.617 -0.29 +0.02    -0.166 NA 
DOCKED: ATOM     14  C   UNL     1     137.882  71.967 222.715 -0.17 -0.01    +0.051 A  
DOCKED: ATOM     15  N   UNL     1     140.209  72.375 222.654 -0.23 +0.03    -0.221 N  
DOCKED: ATOM     16  C   UNL     1     138.982  72.635 222.194 -0.17 -0.04    +0.153 A  
DOCKED: ATOM     17  C   UNL     1     141.058  73.146 221.969 -0.20 -0.00    +0.135 A  
DOCKED: ATOM     18  N   UNL     1     138.974  73.560 221.214 -0.11 +0.05    -0.236 NA 
DOCKED: ATOM     19  C   UNL     1     140.287  73.879 221.078 -0.20 -0.02    +0.134 A  
DOCKED: ENDBRANCH   3  11
DOCKED: TORSDOF 1
DOCKED: TER
DOCKED: ENDMDL
________________________________________________________________________________


    FINAL DOCKED STATE:
    ________________________


Run:   11 / 20
Time taken for this run:   0.017s

DOCKED: MODEL        11
DOCKED: USER    Run = 11
DOCKED: USER
DOCKED: USER    Estimated Free Energy of Binding    =  -6.22 kcal/mol  [=(1)+(2)+(3)-(4)]
DOCKED: USER
DOCKED: USER    (1) Final Intermolecular Energy     =  -6.52 kcal/mol
DOCKED: USER        vdW + Hbond + desolv Energy     =  -6.48 kcal/mol
DOCKED: USER        Electrostatic Energy            =  -0.03 kcal/mol
DOCKED: USER        Moving Ligand-Fixed Receptor    =  -6.52 kcal/mol
DOCKED: USER        Moving Ligand-Moving Receptor   =  +0.00 kcal/mol
DOCKED: USER    (2) Final Total Internal Energy     =  -0.35 kcal/mol
DOCKED: USER    (3) Torsional Free Energy           =  +0.30 kcal/mol
DOCKED: USER    (4) Unbound System's Energy         =  -0.35 kcal/mol
DOCKED: USER
DOCKED: USER
DOCKED: REMARK SMILES c1cc2c(-c3ccc4nccn4n3)cc[nH]c-2n1
DOCKED: REMARK SMILES IDX 15 1 14 2 4 3 3 4 2 5 1 6 18 7 17 8 16 9 5 11 6 12 13 13
DOCKED: REMARK SMILES IDX 7 14 12 15 8 16 11 17 9 18 10 19
DOCKED: REMARK H PARENT 16 10
DOCKED: USER                              x       y       z     vdW  Elec       q    Type
DOCKED: USER                           _______ _______ _______ _____ _____    ______ ____
DOCKED: ROOT
DOCKED: ATOM      1  C   UNL     1     139.612  67.702 226.022 -0.55 -0.01    +0.085 A  
DOCKED: ATOM      2  C   UNL     1     139.362  68.638 224.989 -0.39 -0.00    +0.029 A  
DOCKED: ATOM      3  C   UNL     1     139.649  70.011 225.164 -0.42 -0.00    +0.014 A  
DOCKED: ATOM      4  C   UNL     1     140.204  70.379 226.392 -0.53 -0.00    +0.028 A  
DOCKED: ATOM      5  C   UNL     1     140.698  71.557 226.905 -0.70 -0.01    +0.033 A  
DOCKED: ATOM      6  C   UNL     1     141.180  71.246 228.177 -0.58 -0.02    +0.114 A  
DOCKED: ATOM      7  N   UNL     1     141.033  69.933 228.488 -0.24 +0.05    -0.239 NA 
DOCKED: ATOM      8  C   UNL     1     140.441  69.400 227.407 -0.49 -0.03    +0.137 A  
DOCKED: ATOM      9  N   UNL     1     140.149  68.093 227.217 -0.32 +0.08    -0.346 N  
DOCKED: ATOM     10  H   UNL     1     140.343  67.390 227.965 -0.36 -0.07    +0.167 HD 
DOCKED: ENDROOT
DOCKED: BRANCH   3  11
DOCKED: ATOM     11  C   UNL     1     139.387  70.977 224.075 -0.33 -0.02    +0.092 A  
DOCKED: ATOM     12  C   UNL     1     138.087  71.153 223.540 -0.24 -0.01    +0.035 A  
DOCKED: ATOM     13  N   UNL     1     140.427  71.684 223.541 -0.31 +0.02    -0.166 NA 
DOCKED: ATOM     14  C   UNL     1     137.876  72.066 222.495 -0.16 -0.01    +0.051 A  
DOCKED: ATOM     15  N   UNL     1     140.191  72.540 222.550 -0.23 +0.03    -0.221 N  
DOCKED: ATOM     16  C   UNL     1     138.983  72.756 222.021 -0.17 -0.04    +0.153 A  
DOCKED: ATOM     17  C   UNL     1     141.053  73.323 221.897 -0.19 -0.01    +0.135 A  
DOCKED: ATOM     18  N   UNL     1     139.002  73.665 221.026 -0.09 +0.05    -0.236 NA 
DOCKED: ATOM     19  C   UNL     1     140.312  74.019 220.954 -0.19 -0.02    +0.134 A  
DOCKED: ENDBRANCH   3  11
DOCKED: TORSDOF 1
DOCKED: TER
DOCKED: ENDMDL
________________________________________________________________________________


    FINAL DOCKED STATE:
    ________________________


Run:   12 / 20
Time taken for this run:   0.017s

DOCKED: MODEL        12
DOCKED: USER    Run = 12
DOCKED: USER
DOCKED: USER    Estimated Free Energy of Binding    =  -6.22 kcal/mol  [=(1)+(2)+(3)-(4)]
DOCKED: USER
DOCKED: USER    (1) Final Intermolecular Energy     =  -6.52 kcal/mol
DOCKED: USER        vdW + Hbond + desolv Energy     =  -6.48 kcal/mol
DOCKED: USER        Electrostatic Energy            =  -0.03 kcal/mol
DOCKED: USER        Moving Ligand-Fixed Receptor    =  -6.52 kcal/mol
DOCKED: USER        Moving Ligand-Moving Receptor   =  +0.00 kcal/mol
DOCKED: USER    (2) Final Total Internal Energy     =  -0.35 kcal/mol
DOCKED: USER    (3) Torsional Free Energy           =  +0.30 kcal/mol
DOCKED: USER    (4) Unbound System's Energy         =  -0.35 kcal/mol
DOCKED: USER
DOCKED: USER
DOCKED: REMARK SMILES c1cc2c(-c3ccc4nccn4n3)cc[nH]c-2n1
DOCKED: REMARK SMILES IDX 15 1 14 2 4 3 3 4 2 5 1 6 18 7 17 8 16 9 5 11 6 12 13 13
DOCKED: REMARK SMILES IDX 7 14 12 15 8 16 11 17 9 18 10 19
DOCKED: REMARK H PARENT 16 10
DOCKED: USER                              x       y       z     vdW  Elec       q    Type
DOCKED: USER                           _______ _______ _______ _____ _____    ______ ____
DOCKED: ROOT
DOCKED: ATOM      1  C   UNL     1     139.611  67.700 226.026 -0.55 -0.01    +0.085 A  
DOCKED: ATOM      2  C   UNL     1     139.365  68.636 224.992 -0.39 -0.00    +0.029 A  
DOCKED: ATOM      3  C   UNL     1     139.655  70.009 225.168 -0.42 -0.00    +0.014 A  
DOCKED: ATOM      4  C   UNL     1     140.207  70.375 226.398 -0.53 -0.00    +0.028 A  
DOCKED: ATOM      5  C   UNL     1     140.702  71.553 226.912 -0.70 -0.01    +0.033 A  
DOCKED: ATOM      6  C   UNL     1     141.180  71.240 228.185 -0.57 -0.02    +0.114 A  
DOCKED: ATOM      7  N   UNL     1     141.030  69.928 228.496 -0.23 +0.05    -0.239 NA 
DOCKED: ATOM      8  C   UNL     1     140.440  69.396 227.413 -0.49 -0.03    +0.137 A  
DOCKED: ATOM      9  N   UNL     1     140.146  68.089 227.223 -0.32 +0.08    -0.346 N  
DOCKED: ATOM     10  H   UNL     1     140.337  67.386 227.971 -0.37 -0.07    +0.167 HD 
DOCKED: ENDROOT
DOCKED: BRANCH   3  11
DOCKED: ATOM     11  C   UNL     1     139.397  70.975 224.079 -0.34 -0.02    +0.092 A  
DOCKED: ATOM     12  C   UNL     1     138.104  71.137 223.524 -0.24 -0.01    +0.035 A  
DOCKED: ATOM     13  N   UNL     1     140.435  71.698 223.565 -0.31 +0.02    -0.166 NA 
DOCKED: ATOM     14  C   UNL     1     137.897  72.051 222.479 -0.16 -0.01    +0.051 A  
DOCKED: ATOM     15  N   UNL     1     140.205  72.555 222.573 -0.23 +0.02    -0.221 N  
DOCKED: ATOM     16  C   UNL     1     139.003  72.757 222.025 -0.17 -0.04    +0.153 A  
DOCKED: ATOM     17  C   UNL     1     141.067  73.353 221.937 -0.18 -0.00    +0.135 A  
DOCKED: ATOM     18  N   UNL     1     139.025  73.671 221.034 -0.10 +0.05    -0.236 NA 
DOCKED: ATOM     19  C   UNL     1     140.331  74.042 220.985 -0.19 -0.02    +0.134 A  
DOCKED: ENDBRANCH   3  11
DOCKED: TORSDOF 1
DOCKED: TER
DOCKED: ENDMDL
________________________________________________________________________________


    FINAL DOCKED STATE:
    ________________________


Run:   13 / 20
Time taken for this run:   0.017s

DOCKED: MODEL        13
DOCKED: USER    Run = 13
DOCKED: USER
DOCKED: USER    Estimated Free Energy of Binding    =  -6.22 kcal/mol  [=(1)+(2)+(3)-(4)]
DOCKED: USER
DOCKED: USER    (1) Final Intermolecular Energy     =  -6.51 kcal/mol
DOCKED: USER        vdW + Hbond + desolv Energy     =  -6.48 kcal/mol
DOCKED: USER        Electrostatic Energy            =  -0.03 kcal/mol
DOCKED: USER        Moving Ligand-Fixed Receptor    =  -6.51 kcal/mol
DOCKED: USER        Moving Ligand-Moving Receptor   =  +0.00 kcal/mol
DOCKED: USER    (2) Final Total Internal Energy     =  -0.35 kcal/mol
DOCKED: USER    (3) Torsional Free Energy           =  +0.30 kcal/mol
DOCKED: USER    (4) Unbound System's Energy         =  -0.35 kcal/mol
DOCKED: USER
DOCKED: USER
DOCKED: REMARK SMILES c1cc2c(-c3ccc4nccn4n3)cc[nH]c-2n1
DOCKED: REMARK SMILES IDX 15 1 14 2 4 3 3 4 2 5 1 6 18 7 17 8 16 9 5 11 6 12 13 13
DOCKED: REMARK SMILES IDX 7 14 12 15 8 16 11 17 9 18 10 19
DOCKED: REMARK H PARENT 16 10
DOCKED: USER                              x       y       z     vdW  Elec       q    Type
DOCKED: USER                           _______ _______ _______ _____ _____    ______ ____
DOCKED: ROOT
DOCKED: ATOM      1  C   UNL     1     139.595  67.700 226.025 -0.55 -0.01    +0.085 A  
DOCKED: ATOM      2  C   UNL     1     139.345  68.636 224.992 -0.39 -0.00    +0.029 A  
DOCKED: ATOM      3  C   UNL     1     139.636  70.008 225.166 -0.42 -0.00    +0.014 A  
DOCKED: ATOM      4  C   UNL     1     140.194  70.375 226.393 -0.53 -0.00    +0.028 A  
DOCKED: ATOM      5  C   UNL     1     140.692  71.552 226.904 -0.70 -0.01    +0.033 A  
DOCKED: ATOM      6  C   UNL     1     141.176  71.240 228.175 -0.58 -0.02    +0.114 A  
DOCKED: ATOM      7  N   UNL     1     141.026  69.928 228.487 -0.24 +0.05    -0.239 NA 
DOCKED: ATOM      8  C   UNL     1     140.431  69.396 227.407 -0.49 -0.03    +0.137 A  
DOCKED: ATOM      9  N   UNL     1     140.135  68.089 227.219 -0.32 +0.07    -0.346 N  
DOCKED: ATOM     10  H   UNL     1     140.329  67.386 227.966 -0.37 -0.07    +0.167 HD 
DOCKED: ENDROOT
DOCKED: BRANCH   3  11
DOCKED: ATOM     11  C   UNL     1     139.374  70.974 224.077 -0.33 -0.02    +0.092 A  
DOCKED: ATOM     12  C   UNL     1     138.078  71.137 223.528 -0.24 -0.01    +0.035 A  
DOCKED: ATOM     13  N   UNL     1     140.411  71.696 223.558 -0.31 +0.02    -0.166 NA 
DOCKED: ATOM     14  C   UNL     1     137.868  72.050 222.484 -0.16 -0.01    +0.051 A  
DOCKED: ATOM     15  N   UNL     1     140.176  72.552 222.567 -0.23 +0.03    -0.221 N  
DOCKED: ATOM     16  C   UNL     1     138.971  72.756 222.024 -0.17 -0.04    +0.153 A  
DOCKED: ATOM     17  C   UNL     1     141.035  73.349 221.927 -0.19 -0.00    +0.135 A  
DOCKED: ATOM     18  N   UNL     1     138.990  73.668 221.033 -0.09 +0.05    -0.236 NA 
DOCKED: ATOM     19  C   UNL     1     140.295  74.039 220.977 -0.19 -0.02    +0.134 A  
DOCKED: ENDBRANCH   3  11
DOCKED: TORSDOF 1
DOCKED: TER
DOCKED: ENDMDL
________________________________________________________________________________


    FINAL DOCKED STATE:
    ________________________


Run:   14 / 20
Time taken for this run:   0.017s

DOCKED: MODEL        14
DOCKED: USER    Run = 14
DOCKED: USER
DOCKED: USER    Estimated Free Energy of Binding    =  -6.22 kcal/mol  [=(1)+(2)+(3)-(4)]
DOCKED: USER
DOCKED: USER    (1) Final Intermolecular Energy     =  -6.52 kcal/mol
DOCKED: USER        vdW + Hbond + desolv Energy     =  -6.48 kcal/mol
DOCKED: USER        Electrostatic Energy            =  -0.03 kcal/mol
DOCKED: USER        Moving Ligand-Fixed Receptor    =  -6.52 kcal/mol
DOCKED: USER        Moving Ligand-Moving Receptor   =  +0.00 kcal/mol
DOCKED: USER    (2) Final Total Internal Energy     =  -0.35 kcal/mol
DOCKED: USER    (3) Torsional Free Energy           =  +0.30 kcal/mol
DOCKED: USER    (4) Unbound System's Energy         =  -0.35 kcal/mol
DOCKED: USER
DOCKED: USER
DOCKED: REMARK SMILES c1cc2c(-c3ccc4nccn4n3)cc[nH]c-2n1
DOCKED: REMARK SMILES IDX 15 1 14 2 4 3 3 4 2 5 1 6 18 7 17 8 16 9 5 11 6 12 13 13
DOCKED: REMARK SMILES IDX 7 14 12 15 8 16 11 17 9 18 10 19
DOCKED: REMARK H PARENT 16 10
DOCKED: USER                              x       y       z     vdW  Elec       q    Type
DOCKED: USER                           _______ _______ _______ _____ _____    ______ ____
DOCKED: ROOT
DOCKED: ATOM      1  C   UNL     1     139.615  67.701 226.016 -0.54 -0.01    +0.085 A  
DOCKED: ATOM      2  C   UNL     1     139.368  68.636 224.981 -0.39 -0.00    +0.029 A  
DOCKED: ATOM      3  C   UNL     1     139.653  70.010 225.157 -0.42 -0.00    +0.014 A  
DOCKED: ATOM      4  C   UNL     1     140.204  70.378 226.387 -0.53 -0.00    +0.028 A  
DOCKED: ATOM      5  C   UNL     1     140.695  71.557 226.901 -0.70 -0.01    +0.033 A  
DOCKED: ATOM      6  C   UNL     1     141.173  71.247 228.175 -0.58 -0.02    +0.114 A  
DOCKED: ATOM      7  N   UNL     1     141.025  69.934 228.486 -0.24 +0.05    -0.239 NA 
DOCKED: ATOM      8  C   UNL     1     140.438  69.400 227.403 -0.49 -0.03    +0.137 A  
DOCKED: ATOM      9  N   UNL     1     140.147  68.092 227.213 -0.32 +0.07    -0.346 N  
DOCKED: ATOM     10  H   UNL     1     140.339  67.390 227.961 -0.36 -0.07    +0.167 HD 
DOCKED: ENDROOT
DOCKED: BRANCH   3  11
DOCKED: ATOM     11  C   UNL     1     139.394  70.975 224.067 -0.33 -0.02    +0.092 A  
DOCKED: ATOM     12  C   UNL     1     138.097  71.146 223.523 -0.24 -0.01    +0.035 A  
DOCKED: ATOM     13  N   UNL     1     140.434  71.687 223.541 -0.31 +0.02    -0.166 NA 
DOCKED: ATOM     14  C   UNL     1     137.889  72.059 222.477 -0.16 -0.01    +0.051 A  
DOCKED: ATOM     15  N   UNL     1     140.202  72.543 222.548 -0.23 +0.02    -0.221 N  
DOCKED: ATOM     16  C   UNL     1     138.997  72.754 222.011 -0.17 -0.04    +0.153 A  
DOCKED: ATOM     17  C   UNL     1     141.065  73.331 221.903 -0.19 -0.00    +0.135 A  
DOCKED: ATOM     18  N   UNL     1     139.018  73.664 221.017 -0.09 +0.05    -0.236 NA 
DOCKED: ATOM     19  C   UNL     1     140.327  74.024 220.955 -0.19 -0.02    +0.134 A  
DOCKED: ENDBRANCH   3  11
DOCKED: TORSDOF 1
DOCKED: TER
DOCKED: ENDMDL
________________________________________________________________________________


    FINAL DOCKED STATE:
    ________________________


Run:   15 / 20
Time taken for this run:   0.017s

DOCKED: MODEL        15
DOCKED: USER    Run = 15
DOCKED: USER
DOCKED: USER    Estimated Free Energy of Binding    =  -6.22 kcal/mol  [=(1)+(2)+(3)-(4)]
DOCKED: USER
DOCKED: USER    (1) Final Intermolecular Energy     =  -6.51 kcal/mol
DOCKED: USER        vdW + Hbond + desolv Energy     =  -6.48 kcal/mol
DOCKED: USER        Electrostatic Energy            =  -0.03 kcal/mol
DOCKED: USER        Moving Ligand-Fixed Receptor    =  -6.51 kcal/mol
DOCKED: USER        Moving Ligand-Moving Receptor   =  +0.00 kcal/mol
DOCKED: USER    (2) Final Total Internal Energy     =  -0.35 kcal/mol
DOCKED: USER    (3) Torsional Free Energy           =  +0.30 kcal/mol
DOCKED: USER    (4) Unbound System's Energy         =  -0.35 kcal/mol
DOCKED: USER
DOCKED: USER
DOCKED: REMARK SMILES c1cc2c(-c3ccc4nccn4n3)cc[nH]c-2n1
DOCKED: REMARK SMILES IDX 15 1 14 2 4 3 3 4 2 5 1 6 18 7 17 8 16 9 5 11 6 12 13 13
DOCKED: REMARK SMILES IDX 7 14 12 15 8 16 11 17 9 18 10 19
DOCKED: REMARK H PARENT 16 10
DOCKED: USER                              x       y       z     vdW  Elec       q    Type
DOCKED: USER                           _______ _______ _______ _____ _____    ______ ____
DOCKED: ROOT
DOCKED: ATOM      1  C   UNL     1     139.599  67.700 226.027 -0.55 -0.01    +0.085 A  
DOCKED: ATOM      2  C   UNL     1     139.348  68.638 224.996 -0.39 -0.00    +0.029 A  
DOCKED: ATOM      3  C   UNL     1     139.641  70.010 225.173 -0.42 -0.00    +0.014 A  
DOCKED: ATOM      4  C   UNL     1     140.201  70.374 226.400 -0.53 -0.00    +0.028 A  
DOCKED: ATOM      5  C   UNL     1     140.700  71.550 226.913 -0.70 -0.01    +0.033 A  
DOCKED: ATOM      6  C   UNL     1     141.185  71.235 228.183 -0.57 -0.02    +0.114 A  
DOCKED: ATOM      7  N   UNL     1     141.035  69.922 228.492 -0.24 +0.05    -0.239 NA 
DOCKED: ATOM      8  C   UNL     1     140.438  69.392 227.412 -0.49 -0.03    +0.137 A  
DOCKED: ATOM      9  N   UNL     1     140.141  68.086 227.221 -0.32 +0.08    -0.346 N  
DOCKED: ATOM     10  H   UNL     1     140.335  67.382 227.967 -0.37 -0.07    +0.167 HD 
DOCKED: ENDROOT
DOCKED: BRANCH   3  11
DOCKED: ATOM     11  C   UNL     1     139.378  70.979 224.087 -0.34 -0.02    +0.092 A  
DOCKED: ATOM     12  C   UNL     1     138.082  71.145 223.540 -0.24 -0.01    +0.035 A  
DOCKED: ATOM     13  N   UNL     1     140.415  71.699 223.566 -0.31 +0.02    -0.166 NA 
DOCKED: ATOM     14  C   UNL     1     137.871  72.060 222.498 -0.16 -0.01    +0.051 A  
DOCKED: ATOM     15  N   UNL     1     140.180  72.558 222.576 -0.23 +0.03    -0.221 N  
DOCKED: ATOM     16  C   UNL     1     138.975  72.764 222.037 -0.17 -0.04    +0.153 A  
DOCKED: ATOM     17  C   UNL     1     141.040  73.353 221.936 -0.19 -0.00    +0.135 A  
DOCKED: ATOM     18  N   UNL     1     138.993  73.679 221.047 -0.10 +0.05    -0.236 NA 
DOCKED: ATOM     19  C   UNL     1     140.300  74.046 220.989 -0.19 -0.02    +0.134 A  
DOCKED: ENDBRANCH   3  11
DOCKED: TORSDOF 1
DOCKED: TER
DOCKED: ENDMDL
________________________________________________________________________________


    FINAL DOCKED STATE:
    ________________________


Run:   16 / 20
Time taken for this run:   0.017s

DOCKED: MODEL        16
DOCKED: USER    Run = 16
DOCKED: USER
DOCKED: USER    Estimated Free Energy of Binding    =  -6.22 kcal/mol  [=(1)+(2)+(3)-(4)]
DOCKED: USER
DOCKED: USER    (1) Final Intermolecular Energy     =  -6.52 kcal/mol
DOCKED: USER        vdW + Hbond + desolv Energy     =  -6.48 kcal/mol
DOCKED: USER        Electrostatic Energy            =  -0.04 kcal/mol
DOCKED: USER        Moving Ligand-Fixed Receptor    =  -6.52 kcal/mol
DOCKED: USER        Moving Ligand-Moving Receptor   =  +0.00 kcal/mol
DOCKED: USER    (2) Final Total Internal Energy     =  -0.35 kcal/mol
DOCKED: USER    (3) Torsional Free Energy           =  +0.30 kcal/mol
DOCKED: USER    (4) Unbound System's Energy         =  -0.35 kcal/mol
DOCKED: USER
DOCKED: USER
DOCKED: REMARK SMILES c1cc2c(-c3ccc4nccn4n3)cc[nH]c-2n1
DOCKED: REMARK SMILES IDX 15 1 14 2 4 3 3 4 2 5 1 6 18 7 17 8 16 9 5 11 6 12 13 13
DOCKED: REMARK SMILES IDX 7 14 12 15 8 16 11 17 9 18 10 19
DOCKED: REMARK H PARENT 16 10
DOCKED: USER                              x       y       z     vdW  Elec       q    Type
DOCKED: USER                           _______ _______ _______ _____ _____    ______ ____
DOCKED: ROOT
DOCKED: ATOM      1  C   UNL     1     139.813  67.484 226.033 -0.55 -0.01    +0.085 A  
DOCKED: ATOM      2  C   UNL     1     139.534  68.442 225.029 -0.39 -0.00    +0.029 A  
DOCKED: ATOM      3  C   UNL     1     139.750  69.821 225.257 -0.42 -0.00    +0.014 A  
DOCKED: ATOM      4  C   UNL     1     140.266  70.171 226.507 -0.53 -0.00    +0.028 A  
DOCKED: ATOM      5  C   UNL     1     140.692  71.353 227.069 -0.70 -0.01    +0.033 A  
DOCKED: ATOM      6  C   UNL     1     141.168  71.021 228.338 -0.51 -0.02    +0.114 A  
DOCKED: ATOM      7  N   UNL     1     141.081  69.692 228.600 -0.22 +0.05    -0.239 NA 
DOCKED: ATOM      8  C   UNL     1     140.534  69.170 227.491 -0.50 -0.03    +0.137 A  
DOCKED: ATOM      9  N   UNL     1     140.311  67.857 227.251 -0.32 +0.09    -0.346 N  
DOCKED: ATOM     10  H   UNL     1     140.527  67.139 227.977 -0.37 -0.09    +0.167 HD 
DOCKED: ENDROOT
DOCKED: BRANCH   3  11
DOCKED: ATOM     11  C   UNL     1     139.457  70.811 224.198 -0.34 -0.02    +0.092 A  
DOCKED: ATOM     12  C   UNL     1     138.137  71.032 223.735 -0.25 -0.01    +0.035 A  
DOCKED: ATOM     13  N   UNL     1     140.487  71.497 223.620 -0.29 +0.02    -0.166 NA 
DOCKED: ATOM     14  C   UNL     1     137.897  71.967 222.717 -0.17 -0.01    +0.051 A  
DOCKED: ATOM     15  N   UNL     1     140.224  72.375 222.654 -0.23 +0.03    -0.221 N  
DOCKED: ATOM     16  C   UNL     1     138.997  72.634 222.194 -0.17 -0.04    +0.153 A  
DOCKED: ATOM     17  C   UNL     1     141.073  73.145 221.968 -0.20 -0.00    +0.135 A  
DOCKED: ATOM     18  N   UNL     1     138.988  73.558 221.213 -0.11 +0.05    -0.236 NA 
DOCKED: ATOM     19  C   UNL     1     140.302  73.876 221.076 -0.20 -0.02    +0.134 A  
DOCKED: ENDBRANCH   3  11
DOCKED: TORSDOF 1
DOCKED: TER
DOCKED: ENDMDL
________________________________________________________________________________


    FINAL DOCKED STATE:
    ________________________


Run:   17 / 20
Time taken for this run:   0.017s

DOCKED: MODEL        17
DOCKED: USER    Run = 17
DOCKED: USER
DOCKED: USER    Estimated Free Energy of Binding    =  -6.22 kcal/mol  [=(1)+(2)+(3)-(4)]
DOCKED: USER
DOCKED: USER    (1) Final Intermolecular Energy     =  -6.51 kcal/mol
DOCKED: USER        vdW + Hbond + desolv Energy     =  -6.48 kcal/mol
DOCKED: USER        Electrostatic Energy            =  -0.03 kcal/mol
DOCKED: USER        Moving Ligand-Fixed Receptor    =  -6.51 kcal/mol
DOCKED: USER        Moving Ligand-Moving Receptor   =  +0.00 kcal/mol
DOCKED: USER    (2) Final Total Internal Energy     =  -0.35 kcal/mol
DOCKED: USER    (3) Torsional Free Energy           =  +0.30 kcal/mol
DOCKED: USER    (4) Unbound System's Energy         =  -0.35 kcal/mol
DOCKED: USER
DOCKED: USER
DOCKED: REMARK SMILES c1cc2c(-c3ccc4nccn4n3)cc[nH]c-2n1
DOCKED: REMARK SMILES IDX 15 1 14 2 4 3 3 4 2 5 1 6 18 7 17 8 16 9 5 11 6 12 13 13
DOCKED: REMARK SMILES IDX 7 14 12 15 8 16 11 17 9 18 10 19
DOCKED: REMARK H PARENT 16 10
DOCKED: USER                              x       y       z     vdW  Elec       q    Type
DOCKED: USER                           _______ _______ _______ _____ _____    ______ ____
DOCKED: ROOT
DOCKED: ATOM      1  C   UNL     1     139.589  67.706 226.031 -0.55 -0.01    +0.085 A  
DOCKED: ATOM      2  C   UNL     1     139.338  68.643 224.999 -0.40 -0.00    +0.029 A  
DOCKED: ATOM      3  C   UNL     1     139.631  70.015 225.172 -0.42 -0.00    +0.014 A  
DOCKED: ATOM      4  C   UNL     1     140.193  70.381 226.398 -0.53 -0.00    +0.028 A  
DOCKED: ATOM      5  C   UNL     1     140.694  71.557 226.908 -0.70 -0.01    +0.033 A  
DOCKED: ATOM      6  C   UNL     1     141.181  71.244 228.178 -0.58 -0.02    +0.114 A  
DOCKED: ATOM      7  N   UNL     1     141.030  69.931 228.490 -0.24 +0.05    -0.239 NA 
DOCKED: ATOM      8  C   UNL     1     140.431  69.401 227.412 -0.49 -0.03    +0.137 A  
DOCKED: ATOM      9  N   UNL     1     140.134  68.094 227.223 -0.32 +0.07    -0.346 N  
DOCKED: ATOM     10  H   UNL     1     140.328  67.391 227.970 -0.37 -0.07    +0.167 HD 
DOCKED: ENDROOT
DOCKED: BRANCH   3  11
DOCKED: ATOM     11  C   UNL     1     139.367  70.982 224.085 -0.33 -0.02    +0.092 A  
DOCKED: ATOM     12  C   UNL     1     138.072  71.141 223.534 -0.24 -0.01    +0.035 A  
DOCKED: ATOM     13  N   UNL     1     140.402  71.709 223.569 -0.31 +0.02    -0.166 NA 
DOCKED: ATOM     14  C   UNL     1     137.860  72.055 222.491 -0.16 -0.01    +0.051 A  
DOCKED: ATOM     15  N   UNL     1     140.166  72.565 222.578 -0.23 +0.03    -0.221 N  
DOCKED: ATOM     16  C   UNL     1     138.962  72.765 222.034 -0.17 -0.04    +0.153 A  
DOCKED: ATOM     17  C   UNL     1     141.024  73.366 221.941 -0.19 -0.00    +0.135 A  
DOCKED: ATOM     18  N   UNL     1     138.979  73.680 221.044 -0.09 +0.05    -0.236 NA 
DOCKED: ATOM     19  C   UNL     1     140.283  74.055 220.991 -0.19 -0.02    +0.134 A  
DOCKED: ENDBRANCH   3  11
DOCKED: TORSDOF 1
DOCKED: TER
DOCKED: ENDMDL
________________________________________________________________________________


    FINAL DOCKED STATE:
    ________________________


Run:   18 / 20
Time taken for this run:   0.017s

DOCKED: MODEL        18
DOCKED: USER    Run = 18
DOCKED: USER
DOCKED: USER    Estimated Free Energy of Binding    =  -6.22 kcal/mol  [=(1)+(2)+(3)-(4)]
DOCKED: USER
DOCKED: USER    (1) Final Intermolecular Energy     =  -6.52 kcal/mol
DOCKED: USER        vdW + Hbond + desolv Energy     =  -6.48 kcal/mol
DOCKED: USER        Electrostatic Energy            =  -0.03 kcal/mol
DOCKED: USER        Moving Ligand-Fixed Receptor    =  -6.52 kcal/mol
DOCKED: USER        Moving Ligand-Moving Receptor   =  +0.00 kcal/mol
DOCKED: USER    (2) Final Total Internal Energy     =  -0.35 kcal/mol
DOCKED: USER    (3) Torsional Free Energy           =  +0.30 kcal/mol
DOCKED: USER    (4) Unbound System's Energy         =  -0.35 kcal/mol
DOCKED: USER
DOCKED: USER
DOCKED: REMARK SMILES c1cc2c(-c3ccc4nccn4n3)cc[nH]c-2n1
DOCKED: REMARK SMILES IDX 15 1 14 2 4 3 3 4 2 5 1 6 18 7 17 8 16 9 5 11 6 12 13 13
DOCKED: REMARK SMILES IDX 7 14 12 15 8 16 11 17 9 18 10 19
DOCKED: REMARK H PARENT 16 10
DOCKED: USER                              x       y       z     vdW  Elec       q    Type
DOCKED: USER                           _______ _______ _______ _____ _____    ______ ____
DOCKED: ROOT
DOCKED: ATOM      1  C   UNL     1     139.597  67.700 226.027 -0.55 -0.01    +0.085 A  
DOCKED: ATOM      2  C   UNL     1     139.347  68.635 224.993 -0.39 -0.00    +0.029 A  
DOCKED: ATOM      3  C   UNL     1     139.638  70.008 225.167 -0.42 -0.00    +0.014 A  
DOCKED: ATOM      4  C   UNL     1     140.197  70.375 226.394 -0.53 -0.00    +0.028 A  
DOCKED: ATOM      5  C   UNL     1     140.695  71.552 226.905 -0.70 -0.01    +0.033 A  
DOCKED: ATOM      6  C   UNL     1     141.179  71.241 228.176 -0.58 -0.02    +0.114 A  
DOCKED: ATOM      7  N   UNL     1     141.029  69.929 228.488 -0.24 +0.05    -0.239 NA 
DOCKED: ATOM      8  C   UNL     1     140.433  69.396 227.409 -0.49 -0.03    +0.137 A  
DOCKED: ATOM      9  N   UNL     1     140.138  68.089 227.220 -0.32 +0.07    -0.346 N  
DOCKED: ATOM     10  H   UNL     1     140.331  67.387 227.968 -0.37 -0.07    +0.167 HD 
DOCKED: ENDROOT
DOCKED: BRANCH   3  11
DOCKED: ATOM     11  C   UNL     1     139.375  70.974 224.078 -0.33 -0.02    +0.092 A  
DOCKED: ATOM     12  C   UNL     1     138.080  71.135 223.528 -0.24 -0.01    +0.035 A  
DOCKED: ATOM     13  N   UNL     1     140.412  71.696 223.559 -0.31 +0.02    -0.166 NA 
DOCKED: ATOM     14  C   UNL     1     137.869  72.048 222.484 -0.16 -0.01    +0.051 A  
DOCKED: ATOM     15  N   UNL     1     140.177  72.552 222.568 -0.23 +0.03    -0.221 N  
DOCKED: ATOM     16  C   UNL     1     138.973  72.755 222.025 -0.17 -0.04    +0.153 A  
DOCKED: ATOM     17  C   UNL     1     141.036  73.349 221.928 -0.19 -0.00    +0.135 A  
DOCKED: ATOM     18  N   UNL     1     138.991  73.667 221.033 -0.09 +0.05    -0.236 NA 
DOCKED: ATOM     19  C   UNL     1     140.297  74.038 220.978 -0.19 -0.02    +0.134 A  
DOCKED: ENDBRANCH   3  11
DOCKED: TORSDOF 1
DOCKED: TER
DOCKED: ENDMDL
________________________________________________________________________________


    FINAL DOCKED STATE:
    ________________________


Run:   19 / 20
Time taken for this run:   0.017s

DOCKED: MODEL        19
DOCKED: USER    Run = 19
DOCKED: USER
DOCKED: USER    Estimated Free Energy of Binding    =  -6.22 kcal/mol  [=(1)+(2)+(3)-(4)]
DOCKED: USER
DOCKED: USER    (1) Final Intermolecular Energy     =  -6.52 kcal/mol
DOCKED: USER        vdW + Hbond + desolv Energy     =  -6.48 kcal/mol
DOCKED: USER        Electrostatic Energy            =  -0.03 kcal/mol
DOCKED: USER        Moving Ligand-Fixed Receptor    =  -6.52 kcal/mol
DOCKED: USER        Moving Ligand-Moving Receptor   =  +0.00 kcal/mol
DOCKED: USER    (2) Final Total Internal Energy     =  -0.35 kcal/mol
DOCKED: USER    (3) Torsional Free Energy           =  +0.30 kcal/mol
DOCKED: USER    (4) Unbound System's Energy         =  -0.35 kcal/mol
DOCKED: USER
DOCKED: USER
DOCKED: REMARK SMILES c1cc2c(-c3ccc4nccn4n3)cc[nH]c-2n1
DOCKED: REMARK SMILES IDX 15 1 14 2 4 3 3 4 2 5 1 6 18 7 17 8 16 9 5 11 6 12 13 13
DOCKED: REMARK SMILES IDX 7 14 12 15 8 16 11 17 9 18 10 19
DOCKED: REMARK H PARENT 16 10
DOCKED: USER                              x       y       z     vdW  Elec       q    Type
DOCKED: USER                           _______ _______ _______ _____ _____    ______ ____
DOCKED: ROOT
DOCKED: ATOM      1  C   UNL     1     139.591  67.702 226.030 -0.55 -0.01    +0.085 A  
DOCKED: ATOM      2  C   UNL     1     139.342  68.638 224.997 -0.39 -0.00    +0.029 A  
DOCKED: ATOM      3  C   UNL     1     139.636  70.010 225.171 -0.42 -0.00    +0.014 A  
DOCKED: ATOM      4  C   UNL     1     140.197  70.376 226.398 -0.53 -0.00    +0.028 A  
DOCKED: ATOM      5  C   UNL     1     140.698  71.552 226.909 -0.70 -0.01    +0.033 A  
DOCKED: ATOM      6  C   UNL     1     141.183  71.238 228.179 -0.57 -0.02    +0.114 A  
DOCKED: ATOM      7  N   UNL     1     141.030  69.926 228.491 -0.24 +0.05    -0.239 NA 
DOCKED: ATOM      8  C   UNL     1     140.433  69.396 227.412 -0.49 -0.03    +0.137 A  
DOCKED: ATOM      9  N   UNL     1     140.134  68.090 227.223 -0.32 +0.07    -0.346 N  
DOCKED: ATOM     10  H   UNL     1     140.327  67.386 227.970 -0.37 -0.07    +0.167 HD 
DOCKED: ENDROOT
DOCKED: BRANCH   3  11
DOCKED: ATOM     11  C   UNL     1     139.374  70.977 224.084 -0.33 -0.02    +0.092 A  
DOCKED: ATOM     12  C   UNL     1     138.079  71.140 223.533 -0.24 -0.01    +0.035 A  
DOCKED: ATOM     13  N   UNL     1     140.411  71.700 223.566 -0.31 +0.02    -0.166 NA 
DOCKED: ATOM     14  C   UNL     1     137.869  72.054 222.490 -0.16 -0.01    +0.051 A  
DOCKED: ATOM     15  N   UNL     1     140.176  72.557 222.575 -0.23 +0.03    -0.221 N  
DOCKED: ATOM     16  C   UNL     1     138.972  72.761 222.032 -0.17 -0.04    +0.153 A  
DOCKED: ATOM     17  C   UNL     1     141.036  73.355 221.937 -0.19 -0.00    +0.135 A  
DOCKED: ATOM     18  N   UNL     1     138.991  73.674 221.041 -0.09 +0.05    -0.236 NA 
DOCKED: ATOM     19  C   UNL     1     140.297  74.045 220.987 -0.19 -0.02    +0.134 A  
DOCKED: ENDBRANCH   3  11
DOCKED: TORSDOF 1
DOCKED: TER
DOCKED: ENDMDL
________________________________________________________________________________


    FINAL DOCKED STATE:
    ________________________


Run:   20 / 20
Time taken for this run:   0.017s

DOCKED: MODEL        20
DOCKED: USER    Run = 20
DOCKED: USER
DOCKED: USER    Estimated Free Energy of Binding    =  -6.22 kcal/mol  [=(1)+(2)+(3)-(4)]
DOCKED: USER
DOCKED: USER    (1) Final Intermolecular Energy     =  -6.52 kcal/mol
DOCKED: USER        vdW + Hbond + desolv Energy     =  -6.48 kcal/mol
DOCKED: USER        Electrostatic Energy            =  -0.03 kcal/mol
DOCKED: USER        Moving Ligand-Fixed Receptor    =  -6.52 kcal/mol
DOCKED: USER        Moving Ligand-Moving Receptor   =  +0.00 kcal/mol
DOCKED: USER    (2) Final Total Internal Energy     =  -0.35 kcal/mol
DOCKED: USER    (3) Torsional Free Energy           =  +0.30 kcal/mol
DOCKED: USER    (4) Unbound System's Energy         =  -0.35 kcal/mol
DOCKED: USER
DOCKED: USER
DOCKED: REMARK SMILES c1cc2c(-c3ccc4nccn4n3)cc[nH]c-2n1
DOCKED: REMARK SMILES IDX 15 1 14 2 4 3 3 4 2 5 1 6 18 7 17 8 16 9 5 11 6 12 13 13
DOCKED: REMARK SMILES IDX 7 14 12 15 8 16 11 17 9 18 10 19
DOCKED: REMARK H PARENT 16 10
DOCKED: USER                              x       y       z     vdW  Elec       q    Type
DOCKED: USER                           _______ _______ _______ _____ _____    ______ ____
DOCKED: ROOT
DOCKED: ATOM      1  C   UNL     1     139.605  67.700 226.026 -0.55 -0.01    +0.085 A  
DOCKED: ATOM      2  C   UNL     1     139.356  68.636 224.992 -0.39 -0.00    +0.029 A  
DOCKED: ATOM      3  C   UNL     1     139.647  70.008 225.166 -0.42 -0.00    +0.014 A  
DOCKED: ATOM      4  C   UNL     1     140.204  70.375 226.395 -0.53 -0.00    +0.028 A  
DOCKED: ATOM      5  C   UNL     1     140.701  71.553 226.906 -0.70 -0.01    +0.033 A  
DOCKED: ATOM      6  C   UNL     1     141.183  71.241 228.178 -0.57 -0.02    +0.114 A  
DOCKED: ATOM      7  N   UNL     1     141.033  69.929 228.489 -0.24 +0.05    -0.239 NA 
DOCKED: ATOM      8  C   UNL     1     140.439  69.396 227.409 -0.49 -0.03    +0.137 A  
DOCKED: ATOM      9  N   UNL     1     140.144  68.090 227.221 -0.32 +0.08    -0.346 N  
DOCKED: ATOM     10  H   UNL     1     140.336  67.387 227.969 -0.37 -0.07    +0.167 HD 
DOCKED: ENDROOT
DOCKED: BRANCH   3  11
DOCKED: ATOM     11  C   UNL     1     139.386  70.974 224.078 -0.33 -0.02    +0.092 A  
DOCKED: ATOM     12  C   UNL     1     138.090  71.139 223.529 -0.24 -0.01    +0.035 A  
DOCKED: ATOM     13  N   UNL     1     140.424  71.693 223.557 -0.31 +0.02    -0.166 NA 
DOCKED: ATOM     14  C   UNL     1     137.881  72.052 222.484 -0.16 -0.01    +0.051 A  
DOCKED: ATOM     15  N   UNL     1     140.191  72.549 222.565 -0.23 +0.03    -0.221 N  
DOCKED: ATOM     16  C   UNL     1     138.986  72.755 222.023 -0.17 -0.04    +0.153 A  
DOCKED: ATOM     17  C   UNL     1     141.052  73.343 221.923 -0.19 -0.00    +0.135 A  
DOCKED: ATOM     18  N   UNL     1     139.006  73.667 221.031 -0.09 +0.05    -0.236 NA 
DOCKED: ATOM     19  C   UNL     1     140.313  74.034 220.974 -0.19 -0.02    +0.134 A  
DOCKED: ENDBRANCH   3  11
DOCKED: TORSDOF 1
DOCKED: TER
DOCKED: ENDMDL
________________________________________________________________________________


    CLUSTERING HISTOGRAM
    ____________________


________________________________________________________________________________
     |           |     |           |     |
Clus | Lowest    | Run | Mean      | Num | Histogram
-ter | Binding   |     | Binding   | in  |
Rank | Energy    |     | Energy    | Clus|    5    10   15   20   25   30   35
_____|___________|_____|___________|_____|____:____|____:____|____:____|____:___
   1 |     -6.36 |   5 |     -6.36 |   3 |###
   2 |     -6.22 |  16 |     -6.22 |  17 |#################
_____|___________|_____|___________|_____|______________________________________


    RMSD TABLE
    __________


_______________________________________________________________________
     |      |      |           |         |                 |
Rank | Sub- | Run  | Binding   | Cluster | Reference       | Grep
     | Rank |      | Energy    | RMSD    | RMSD            | Pattern
_____|______|______|___________|_________|_________________|___________
   1      1      5       -6.36      0.00    271.78           RANKING
   1      2      1       -6.36      0.10    271.76           RANKING
   1      3      4       -6.36      0.04    271.75           RANKING
   2      1     16       -6.22      0.00    271.89           RANKING
   2      2     10       -6.22      0.02    271.88           RANKING
   2      3     20       -6.22      0.25    271.82           RANKING
   2      4      8       -6.22      0.25    271.82           RANKING
   2      5     19       -6.22      0.25    271.82           RANKING
   2      6     14       -6.22      0.25    271.81           RANKING
   2      7     11       -6.22      0.25    271.81           RANKING
   2      8      2       -6.22      0.25    271.81           RANKING
   2      9     12       -6.22      0.24    271.83           RANKING
   2     10     18       -6.22      0.25    271.81           RANKING
   2     11      9       -6.22      0.25    271.81           RANKING
   2     12     13       -6.22      0.25    271.81           RANKING
   2     13      6       -6.22      0.25    271.82           RANKING
   2     14      7       -6.22      0.25    271.82           RANKING
   2     15      3       -6.22      0.25    271.82           RANKING
   2     16     15       -6.22      0.24    271.82           RANKING
   2     17     17       -6.22      0.25    271.82           RANKING

Run time 0.335 sec
Idle time 0.000 sec
