AutoDock-GPU version: v1.6

**********************************************************
**    AutoDock-GPU AUTODOCKTOOLS-COMPATIBLE DLG FILE    **
**********************************************************


    DOCKING PARAMETERS
    ________________________


Ligand file:                               /home/a/REINVENT4/ReinventStudies/pleaseWork/justRnve/graph-dock-3mta9a/graph-DockGPU/node-autodockgpu/inputs/SHQXIXFOBBGYSV-RVLPRKHYNA-N.pdbqt
Grid fld file:                             /home/a/REINVENT4/ReinventStudies/mols/Rad51/maps/rad51_receptor.maps.fld

Random seed:                               42
Number of runs:                            20
Number of energy evaluations:              2542121
Number of generations:                     42000
Size of population:                        150
Rate of crossover:                         80.000000%
Tournament selection probability limit:    60.000000%
Rate of mutation:                          2.000000%
Maximal allowed delta movement:            +/- 6.000000A
Maximal allowed delta angle:               +/- 90.000000

Rate of local search:                      100.000000%
Maximal number of local search iterations: 300
Rho lower bound:                           0.010000
Spread of local search delta movement:     2.000000A
Spread of local search delta angle:        74.999999
Limit of consecutive successes/failures:   4

Handle symmetry during clustering:         YES
RMSD tolerance:                            2.000000A

Program call in command line was:          /home/a/REINVENT4/ReinventStudies/adgpu-v1.6_linux_x64_cuda12_128wi --filelist batch.txt --heuristics 1 --nrun 20 --psize 150 --lsit 300 --seed 42 --heurmax 12000000 


    GRID PARAMETERS
    ________________________


Receptor name:                             rad51_receptor
Number of grid points (x, y, z):           53, 53, 53
Grid center (x, y, z):                     139.950000, 75.640000, 221.970000A
Grid size (x, y, z):                       19.500000, 19.500000, 19.500000A
Grid spacing:                              0.375000A


    LIGAND PARAMETERS
    ________________________


Ligand name:                               /home/a/REINVENT4/ReinventStudies/pleaseWork/justRnve/graph-dock-3mta9a/graph-DockGPU/node-autodockgpu/inputs/SHQXIXFOBBGYSV-RVLPRKHYNA-N
Number of atoms:                           32
Number of rotatable bonds:                 10
Number of atom types:                      7


    DUMMY DATA (only for ADT-compatibility)
    ________________________


DPF> outlev 1
DPF> ga_run 20
DPF> fld /home/a/REINVENT4/ReinventStudies/mols/Rad51/maps/rad51_receptor.maps.fld
DPF> move /home/a/REINVENT4/ReinventStudies/pleaseWork/justRnve/graph-dock-3mta9a/graph-DockGPU/node-autodockgpu/inputs/SHQXIXFOBBGYSV-RVLPRKHYNA-N.pdbqt


    COUNTER STATES
    ________________________


Number of energy evaluations performed:    740738
Number of generations used:                55


    INPUT LIGAND PDBQT FILE:
    ________________________


INPUT-LIGAND-PDBQT: REMARK SMILES O=C(CCCC/C=C(\O)c1nnc(-c2nc(=O)c(F)c[nH]2)o1)Nc1ccccc1
INPUT-LIGAND-PDBQT: REMARK SMILES IDX 6 1 7 2 8 3 9 4 10 6 11 7 22 8 12 9 13 10 14 11 15 12 21 13
INPUT-LIGAND-PDBQT: REMARK SMILES IDX 16 14 20 15 18 16 17 18 19 19 5 20 4 21 3 22 2 23 23 24 1 25
INPUT-LIGAND-PDBQT: REMARK SMILES IDX 24 27 25 28 29 29 26 30 28 31 27 32
INPUT-LIGAND-PDBQT: REMARK H PARENT 9 5 21 17 23 26
INPUT-LIGAND-PDBQT: ROOT
INPUT-LIGAND-PDBQT: ATOM      1  C   UNL     1       2.556   2.626   3.574  1.00  0.00     0.031 C 
INPUT-LIGAND-PDBQT: ENDROOT
INPUT-LIGAND-PDBQT: BRANCH   1   2
INPUT-LIGAND-PDBQT: ATOM      2  C   UNL     1       2.841   1.599   2.511  1.00  0.00     0.025 C 
INPUT-LIGAND-PDBQT: BRANCH   2   3
INPUT-LIGAND-PDBQT: ATOM      3  C   UNL     1       2.534   1.791   1.221  1.00  0.00     0.176 C 
INPUT-LIGAND-PDBQT: BRANCH   3   4
INPUT-LIGAND-PDBQT: ATOM      4  O   UNL     1       1.974   3.002   0.813  1.00  0.00    -0.503 OA
INPUT-LIGAND-PDBQT: ATOM      5  H   UNL     1       1.725   3.174  -0.153  1.00  0.00     0.293 HD
INPUT-LIGAND-PDBQT: ENDBRANCH   3   4
INPUT-LIGAND-PDBQT: BRANCH   3   6
INPUT-LIGAND-PDBQT: ATOM      6  C   UNL     1       2.772   0.732   0.222  1.00  0.00     0.282 A 
INPUT-LIGAND-PDBQT: ATOM      7  N   UNL     1       3.210  -0.511   0.506  1.00  0.00    -0.104 NA
INPUT-LIGAND-PDBQT: ATOM      8  O   UNL     1       2.559   0.875  -1.064  1.00  0.00    -0.411 OA
INPUT-LIGAND-PDBQT: ATOM      9  N   UNL     1       3.266  -1.160  -0.647  1.00  0.00    -0.104 NA
INPUT-LIGAND-PDBQT: ATOM     10  C   UNL     1       2.861  -0.287  -1.589  1.00  0.00     0.284 A 
INPUT-LIGAND-PDBQT: BRANCH  10  11
INPUT-LIGAND-PDBQT: ATOM     11  C   UNL     1       2.753  -0.596  -3.022  1.00  0.00     0.199 A 
INPUT-LIGAND-PDBQT: ATOM     12  N   UNL     1       2.367   0.381  -3.885  1.00  0.00    -0.183 NA
INPUT-LIGAND-PDBQT: ATOM     13  N   UNL     1       3.008  -1.852  -3.490  1.00  0.00    -0.339 N 
INPUT-LIGAND-PDBQT: ATOM     14  C   UNL     1       2.228   0.132  -5.213  1.00  0.00     0.309 A 
INPUT-LIGAND-PDBQT: ATOM     15  C   UNL     1       2.880  -2.139  -4.813  1.00  0.00     0.129 A 
INPUT-LIGAND-PDBQT: ATOM     16  C   UNL     1       2.484  -1.146  -5.708  1.00  0.00     0.206 A 
INPUT-LIGAND-PDBQT: ATOM     17  H   UNL     1       3.299  -2.614  -2.837  1.00  0.00     0.168 HD
INPUT-LIGAND-PDBQT: ATOM     18  O   UNL     1       1.868   1.056  -5.989  1.00  0.00    -0.264 OA
INPUT-LIGAND-PDBQT: ATOM     19  F   UNL     1       2.352  -1.424  -7.030  1.00  0.00    -0.199 F 
INPUT-LIGAND-PDBQT: ENDBRANCH  10  11
INPUT-LIGAND-PDBQT: ENDBRANCH   3   6
INPUT-LIGAND-PDBQT: ENDBRANCH   2   3
INPUT-LIGAND-PDBQT: ENDBRANCH   1   2
INPUT-LIGAND-PDBQT: BRANCH   1  20
INPUT-LIGAND-PDBQT: ATOM     20  C   UNL     1       1.063   2.671   3.934  1.00  0.00     0.005 C 
INPUT-LIGAND-PDBQT: BRANCH  20  21
INPUT-LIGAND-PDBQT: ATOM     21  C   UNL     1       0.579   1.376   4.631  1.00  0.00     0.010 C 
INPUT-LIGAND-PDBQT: BRANCH  21  22
INPUT-LIGAND-PDBQT: ATOM     22  C   UNL     1      -0.660   0.763   3.965  1.00  0.00     0.100 C 
INPUT-LIGAND-PDBQT: BRANCH  22  23
INPUT-LIGAND-PDBQT: ATOM     23  C   UNL     1      -0.346   0.212   2.602  1.00  0.00     0.224 C 
INPUT-LIGAND-PDBQT: ATOM     24  N   UNL     1      -0.868   0.852   1.426  1.00  0.00    -0.326 N 
INPUT-LIGAND-PDBQT: ATOM     25  O   UNL     1       0.418  -0.787   2.506  1.00  0.00    -0.275 OA
INPUT-LIGAND-PDBQT: ATOM     26  H   UNL     1      -1.281   1.805   1.538  1.00  0.00     0.169 HD
INPUT-LIGAND-PDBQT: BRANCH  24  27
INPUT-LIGAND-PDBQT: ATOM     27  C   UNL     1      -0.759   0.327   0.090  1.00  0.00     0.041 A 
INPUT-LIGAND-PDBQT: ATOM     28  C   UNL     1      -0.718   1.217  -0.995  1.00  0.00     0.026 A 
INPUT-LIGAND-PDBQT: ATOM     29  C   UNL     1      -0.756  -1.059  -0.164  1.00  0.00     0.026 A 
INPUT-LIGAND-PDBQT: ATOM     30  C   UNL     1      -0.641   0.736  -2.305  1.00  0.00     0.002 A 
INPUT-LIGAND-PDBQT: ATOM     31  C   UNL     1      -0.674  -1.535  -1.476  1.00  0.00     0.002 A 
INPUT-LIGAND-PDBQT: ATOM     32  C   UNL     1      -0.616  -0.639  -2.546  1.00  0.00     0.000 A 
INPUT-LIGAND-PDBQT: ENDBRANCH  24  27
INPUT-LIGAND-PDBQT: ENDBRANCH  22  23
INPUT-LIGAND-PDBQT: ENDBRANCH  21  22
INPUT-LIGAND-PDBQT: ENDBRANCH  20  21
INPUT-LIGAND-PDBQT: ENDBRANCH   1  20
INPUT-LIGAND-PDBQT: TORSDOF 10


    FINAL DOCKED STATE:
    ________________________


Run:   1 / 20
Time taken for this run:   0.037s

DOCKED: MODEL        1
DOCKED: USER    Run = 1
DOCKED: USER
DOCKED: USER    Estimated Free Energy of Binding    =  -4.50 kcal/mol  [=(1)+(2)+(3)-(4)]
DOCKED: USER
DOCKED: USER    (1) Final Intermolecular Energy     =  -7.48 kcal/mol
DOCKED: USER        vdW + Hbond + desolv Energy     =  -7.06 kcal/mol
DOCKED: USER        Electrostatic Energy            =  -0.43 kcal/mol
DOCKED: USER        Moving Ligand-Fixed Receptor    =  -7.48 kcal/mol
DOCKED: USER        Moving Ligand-Moving Receptor   =  +0.00 kcal/mol
DOCKED: USER    (2) Final Total Internal Energy     =  -4.36 kcal/mol
DOCKED: USER    (3) Torsional Free Energy           =  +2.98 kcal/mol
DOCKED: USER    (4) Unbound System's Energy         =  -4.36 kcal/mol
DOCKED: USER
DOCKED: USER
DOCKED: REMARK SMILES O=C(CCCC/C=C(\O)c1nnc(-c2nc(=O)c(F)c[nH]2)o1)Nc1ccccc1
DOCKED: REMARK SMILES IDX 6 1 7 2 8 3 9 4 10 6 11 7 22 8 12 9 13 10 14 11 15 12 21 13
DOCKED: REMARK SMILES IDX 16 14 20 15 18 16 17 18 19 19 5 20 4 21 3 22 2 23 23 24 1 25
DOCKED: REMARK SMILES IDX 24 27 25 28 29 29 26 30 28 31 27 32
DOCKED: REMARK H PARENT 9 5 21 17 23 26
DOCKED: USER                              x       y       z     vdW  Elec       q    Type
DOCKED: USER                           _______ _______ _______ _____ _____    ______ ____
DOCKED: ROOT
DOCKED: ATOM      1  C   UNL     1     142.406  84.500 217.310 -0.18 -0.01    +0.031 C  
DOCKED: ENDROOT
DOCKED: BRANCH   1   2
DOCKED: ATOM      2  C   UNL     1     142.808  83.153 217.849 -0.19 -0.01    +0.025 C  
DOCKED: BRANCH   2   3
DOCKED: ATOM      3  C   UNL     1     142.795  82.043 217.100 -0.25 -0.15    +0.176 C  
DOCKED: BRANCH   3   4
DOCKED: ATOM      4  O   UNL     1     143.429  82.036 215.857 -0.06 +0.67    -0.503 OA 
DOCKED: ATOM      5  H   UNL     1     144.040  81.280 215.575 -0.43 -0.85    +0.293 HD 
DOCKED: ENDBRANCH   3   4
DOCKED: BRANCH   3   6
DOCKED: ATOM      6  C   UNL     1     142.110  80.823 217.568 -0.18 -0.22    +0.282 A  
DOCKED: ATOM      7  N   UNL     1     140.803  80.551 217.376 -0.07 +0.05    -0.104 NA 
DOCKED: ATOM      8  O   UNL     1     142.706  79.846 218.208 -0.21 +0.39    -0.411 OA 
DOCKED: ATOM      9  N   UNL     1     140.586  79.361 217.914 -0.06 +0.05    -0.104 NA 
DOCKED: ATOM     10  C   UNL     1     141.768  78.955 218.415 -0.15 -0.18    +0.284 A  
DOCKED: BRANCH  10  11
DOCKED: ATOM     11  C   UNL     1     141.990  77.669 219.093 -0.20 -0.12    +0.199 A  
DOCKED: ATOM     12  N   UNL     1     140.929  77.012 219.633 -0.09 +0.07    -0.183 NA 
DOCKED: ATOM     13  N   UNL     1     143.243  77.144 219.209 -0.15 +0.26    -0.339 N  
DOCKED: ATOM     14  C   UNL     1     141.092  75.835 220.292 -0.11 -0.11    +0.309 A  
DOCKED: ATOM     15  C   UNL     1     143.446  75.968 219.861 -0.29 -0.08    +0.129 A  
DOCKED: ATOM     16  C   UNL     1     142.367  75.285 220.420 -0.21 -0.09    +0.206 A  
DOCKED: ATOM     17  H   UNL     1     144.068  77.642 218.804 -0.32 -0.15    +0.168 HD 
DOCKED: ATOM     18  O   UNL     1     140.092  75.249 220.784 -0.13 +0.06    -0.264 OA 
DOCKED: ATOM     19  F   UNL     1     142.560  74.111 221.074 -0.07 +0.05    -0.199 F  
DOCKED: ENDBRANCH  10  11
DOCKED: ENDBRANCH   3   6
DOCKED: ENDBRANCH   2   3
DOCKED: ENDBRANCH   1   2
DOCKED: BRANCH   1  20
DOCKED: ATOM     20  C   UNL     1     140.917  84.788 217.554 -0.11 -0.00    +0.005 C  
DOCKED: BRANCH  20  21
DOCKED: ATOM     21  C   UNL     1     140.497  84.548 219.025 -0.15 -0.00    +0.010 C  
DOCKED: BRANCH  21  22
DOCKED: ATOM     22  C   UNL     1     139.918  83.148 219.264 -0.11 -0.02    +0.100 C  
DOCKED: BRANCH  22  23
DOCKED: ATOM     23  C   UNL     1     140.492  82.509 220.498 -0.18 -0.05    +0.224 C  
DOCKED: ATOM     24  N   UNL     1     141.001  81.166 220.445 -0.12 +0.10    -0.326 N  
DOCKED: ATOM     25  O   UNL     1     140.563  83.184 221.561 -0.21 +0.04    -0.275 OA 
DOCKED: ATOM     26  H   UNL     1     141.150  80.742 219.502 +0.06 -0.07    +0.169 HD 
DOCKED: BRANCH  24  27
DOCKED: ATOM     27  C   UNL     1     141.430  80.407 221.591 -0.38 -0.01    +0.041 A  
DOCKED: ATOM     28  C   UNL     1     140.741  79.232 221.932 -0.32 -0.01    +0.026 A  
DOCKED: ATOM     29  C   UNL     1     142.484  80.843 222.418 -0.51 -0.01    +0.026 A  
DOCKED: ATOM     30  C   UNL     1     141.116  78.489 223.055 -0.53 -0.00    +0.002 A  
DOCKED: ATOM     31  C   UNL     1     142.859  80.094 223.537 -0.64 -0.00    +0.002 A  
DOCKED: ATOM     32  C   UNL     1     142.176  78.918 223.856 -0.52 -0.00    +0.000 A  
DOCKED: ENDBRANCH  24  27
DOCKED: ENDBRANCH  22  23
DOCKED: ENDBRANCH  21  22
DOCKED: ENDBRANCH  20  21
DOCKED: ENDBRANCH   1  20
DOCKED: TORSDOF 10
DOCKED: TER
DOCKED: ENDMDL
________________________________________________________________________________


    FINAL DOCKED STATE:
    ________________________


Run:   2 / 20
Time taken for this run:   0.037s

DOCKED: MODEL        2
DOCKED: USER    Run = 2
DOCKED: USER
DOCKED: USER    Estimated Free Energy of Binding    =  -6.71 kcal/mol  [=(1)+(2)+(3)-(4)]
DOCKED: USER
DOCKED: USER    (1) Final Intermolecular Energy     =  -9.69 kcal/mol
DOCKED: USER        vdW + Hbond + desolv Energy     =  -9.54 kcal/mol
DOCKED: USER        Electrostatic Energy            =  -0.15 kcal/mol
DOCKED: USER        Moving Ligand-Fixed Receptor    =  -9.69 kcal/mol
DOCKED: USER        Moving Ligand-Moving Receptor   =  +0.00 kcal/mol
DOCKED: USER    (2) Final Total Internal Energy     =  -2.37 kcal/mol
DOCKED: USER    (3) Torsional Free Energy           =  +2.98 kcal/mol
DOCKED: USER    (4) Unbound System's Energy         =  -2.37 kcal/mol
DOCKED: USER
DOCKED: USER
DOCKED: REMARK SMILES O=C(CCCC/C=C(\O)c1nnc(-c2nc(=O)c(F)c[nH]2)o1)Nc1ccccc1
DOCKED: REMARK SMILES IDX 6 1 7 2 8 3 9 4 10 6 11 7 22 8 12 9 13 10 14 11 15 12 21 13
DOCKED: REMARK SMILES IDX 16 14 20 15 18 16 17 18 19 19 5 20 4 21 3 22 2 23 23 24 1 25
DOCKED: REMARK SMILES IDX 24 27 25 28 29 29 26 30 28 31 27 32
DOCKED: REMARK H PARENT 9 5 21 17 23 26
DOCKED: USER                              x       y       z     vdW  Elec       q    Type
DOCKED: USER                           _______ _______ _______ _____ _____    ______ ____
DOCKED: ROOT
DOCKED: ATOM      1  C   UNL     1     136.986  71.158 222.417 -0.12 -0.01    +0.031 C  
DOCKED: ENDROOT
DOCKED: BRANCH   1   2
DOCKED: ATOM      2  C   UNL     1     138.134  71.476 221.496 -0.11 -0.01    +0.025 C  
DOCKED: BRANCH   2   3
DOCKED: ATOM      3  C   UNL     1     139.145  72.279 221.853 -0.16 -0.04    +0.176 C  
DOCKED: BRANCH   3   4
DOCKED: ATOM      4  O   UNL     1     140.333  71.728 222.333 -0.12 +0.07    -0.503 OA 
DOCKED: ATOM      5  H   UNL     1     141.064  72.305 222.732 +0.12 -0.00    +0.293 HD 
DOCKED: ENDBRANCH   3   4
DOCKED: BRANCH   3   6
DOCKED: ATOM      6  C   UNL     1     139.016  73.745 221.756 -0.14 -0.07    +0.282 A  
DOCKED: ATOM      7  N   UNL     1     138.071  74.390 221.041 -0.10 +0.02    -0.104 NA 
DOCKED: ATOM      8  O   UNL     1     139.798  74.594 222.378 -0.66 +0.03    -0.411 OA 
DOCKED: ATOM      9  N   UNL     1     138.276  75.684 221.233 -0.12 +0.02    -0.104 NA 
DOCKED: ATOM     10  C   UNL     1     139.338  75.778 222.056 -0.21 -0.06    +0.284 A  
DOCKED: BRANCH  10  11
DOCKED: ATOM     11  C   UNL     1     139.904  77.043 222.547 -0.22 -0.04    +0.199 A  
DOCKED: ATOM     12  N   UNL     1     139.065  78.037 222.942 -0.20 +0.03    -0.183 NA 
DOCKED: ATOM     13  N   UNL     1     141.254  77.239 222.586 -0.14 +0.15    -0.339 N  
DOCKED: ATOM     14  C   UNL     1     139.545  79.231 223.377 -0.22 -0.05    +0.309 A  
DOCKED: ATOM     15  C   UNL     1     141.771  78.421 223.015 -0.38 -0.06    +0.129 A  
DOCKED: ATOM     16  C   UNL     1     140.921  79.449 223.422 -0.38 -0.05    +0.206 A  
DOCKED: ATOM     17  H   UNL     1     141.910  76.486 222.279 -0.51 -0.13    +0.168 HD 
DOCKED: ATOM     18  O   UNL     1     138.744  80.134 223.735 -0.27 +0.03    -0.264 OA 
DOCKED: ATOM     19  F   UNL     1     141.429  80.632 223.851 -0.16 +0.03    -0.199 F  
DOCKED: ENDBRANCH  10  11
DOCKED: ENDBRANCH   3   6
DOCKED: ENDBRANCH   2   3
DOCKED: ENDBRANCH   1   2
DOCKED: BRANCH   1  20
DOCKED: ATOM     20  C   UNL     1     137.223  69.851 223.189 -0.19 -0.00    +0.005 C  
DOCKED: BRANCH  20  21
DOCKED: ATOM     21  C   UNL     1     138.062  68.828 222.386 -0.19 -0.00    +0.010 C  
DOCKED: BRANCH  21  22
DOCKED: ATOM     22  C   UNL     1     138.830  67.846 223.281 -0.21 -0.01    +0.100 C  
DOCKED: BRANCH  22  23
DOCKED: ATOM     23  C   UNL     1     139.152  68.448 224.620 -0.24 -0.02    +0.224 C  
DOCKED: ATOM     24  N   UNL     1     139.660  69.789 224.707 -0.15 +0.06    -0.326 N  
DOCKED: ATOM     25  O   UNL     1     138.925  67.776 225.664 -0.80 -0.01    -0.275 OA 
DOCKED: ATOM     26  H   UNL     1     139.596  70.386 223.852 +0.08 -0.03    +0.169 HD 
DOCKED: BRANCH  24  27
DOCKED: ATOM     27  C   UNL     1     140.143  70.407 225.914 -0.50 -0.01    +0.041 A  
DOCKED: ATOM     28  C   UNL     1     140.936  71.562 225.824 -0.60 -0.00    +0.026 A  
DOCKED: ATOM     29  C   UNL     1     139.894  69.848 227.184 -0.55 -0.00    +0.026 A  
DOCKED: ATOM     30  C   UNL     1     141.442  72.167 226.977 -0.76 -0.00    +0.002 A  
DOCKED: ATOM     31  C   UNL     1     140.399  70.460 228.335 -0.59 -0.00    +0.002 A  
DOCKED: ATOM     32  C   UNL     1     141.172  71.619 228.233 -0.76 -0.00    +0.000 A  
DOCKED: ENDBRANCH  24  27
DOCKED: ENDBRANCH  22  23
DOCKED: ENDBRANCH  21  22
DOCKED: ENDBRANCH  20  21
DOCKED: ENDBRANCH   1  20
DOCKED: TORSDOF 10
DOCKED: TER
DOCKED: ENDMDL
________________________________________________________________________________


    FINAL DOCKED STATE:
    ________________________


Run:   3 / 20
Time taken for this run:   0.037s

DOCKED: MODEL        3
DOCKED: USER    Run = 3
DOCKED: USER
DOCKED: USER    Estimated Free Energy of Binding    =  -6.87 kcal/mol  [=(1)+(2)+(3)-(4)]
DOCKED: USER
DOCKED: USER    (1) Final Intermolecular Energy     =  -9.85 kcal/mol
DOCKED: USER        vdW + Hbond + desolv Energy     =  -9.61 kcal/mol
DOCKED: USER        Electrostatic Energy            =  -0.24 kcal/mol
DOCKED: USER        Moving Ligand-Fixed Receptor    =  -9.85 kcal/mol
DOCKED: USER        Moving Ligand-Moving Receptor   =  +0.00 kcal/mol
DOCKED: USER    (2) Final Total Internal Energy     =  -2.67 kcal/mol
DOCKED: USER    (3) Torsional Free Energy           =  +2.98 kcal/mol
DOCKED: USER    (4) Unbound System's Energy         =  -2.67 kcal/mol
DOCKED: USER
DOCKED: USER
DOCKED: REMARK SMILES O=C(CCCC/C=C(\O)c1nnc(-c2nc(=O)c(F)c[nH]2)o1)Nc1ccccc1
DOCKED: REMARK SMILES IDX 6 1 7 2 8 3 9 4 10 6 11 7 22 8 12 9 13 10 14 11 15 12 21 13
DOCKED: REMARK SMILES IDX 16 14 20 15 18 16 17 18 19 19 5 20 4 21 3 22 2 23 23 24 1 25
DOCKED: REMARK SMILES IDX 24 27 25 28 29 29 26 30 28 31 27 32
DOCKED: REMARK H PARENT 9 5 21 17 23 26
DOCKED: USER                              x       y       z     vdW  Elec       q    Type
DOCKED: USER                           _______ _______ _______ _____ _____    ______ ____
DOCKED: ROOT
DOCKED: ATOM      1  C   UNL     1     140.413  70.627 220.672 -0.12 -0.00    +0.031 C  
DOCKED: ENDROOT
DOCKED: BRANCH   1   2
DOCKED: ATOM      2  C   UNL     1     140.786  71.520 221.825 -0.21 -0.00    +0.025 C  
DOCKED: BRANCH   2   3
DOCKED: ATOM      3  C   UNL     1     140.132  72.657 222.098 -0.24 -0.02    +0.176 C  
DOCKED: BRANCH   3   4
DOCKED: ATOM      4  O   UNL     1     138.889  72.610 222.729 -0.09 +0.17    -0.503 OA 
DOCKED: ATOM      5  H   UNL     1     138.406  73.451 223.017 -0.47 -0.19    +0.293 HD 
DOCKED: ENDBRANCH   3   4
DOCKED: BRANCH   3   6
DOCKED: ATOM      6  C   UNL     1     140.707  73.966 221.731 -0.16 -0.02    +0.282 A  
DOCKED: ATOM      7  N   UNL     1     141.606  74.164 220.747 -0.22 +0.02    -0.104 NA 
DOCKED: ATOM      8  O   UNL     1     140.386  75.097 222.312 -0.55 +0.01    -0.411 OA 
DOCKED: ATOM      9  N   UNL     1     141.846  75.466 220.716 -0.24 +0.04    -0.104 NA 
DOCKED: ATOM     10  C   UNL     1     141.085  76.010 221.684 -0.22 -0.10    +0.284 A  
DOCKED: BRANCH  10  11
DOCKED: ATOM     11  C   UNL     1     141.027  77.447 221.991 -0.29 -0.08    +0.199 A  
DOCKED: ATOM     12  N   UNL     1     140.082  77.903 222.856 -0.23 +0.04    -0.183 NA 
DOCKED: ATOM     13  N   UNL     1     141.888  78.325 221.402 -0.15 +0.21    -0.339 N  
DOCKED: ATOM     14  C   UNL     1     139.976  79.226 223.147 -0.23 -0.06    +0.309 A  
DOCKED: ATOM     15  C   UNL     1     141.813  79.656 221.669 -0.36 -0.06    +0.129 A  
DOCKED: ATOM     16  C   UNL     1     140.848  80.138 222.553 -0.29 -0.05    +0.206 A  
DOCKED: ATOM     17  H   UNL     1     142.615  77.989 220.731 -0.28 -0.16    +0.168 HD 
DOCKED: ATOM     18  O   UNL     1     139.091  79.621 223.951 -0.30 +0.03    -0.264 OA 
DOCKED: ATOM     19  F   UNL     1     140.764  81.465 222.825 -0.11 +0.03    -0.199 F  
DOCKED: ENDBRANCH  10  11
DOCKED: ENDBRANCH   3   6
DOCKED: ENDBRANCH   2   3
DOCKED: ENDBRANCH   1   2
DOCKED: BRANCH   1  20
DOCKED: ATOM     20  C   UNL     1     139.916  69.255 221.154 -0.10 -0.00    +0.005 C  
DOCKED: BRANCH  20  21
DOCKED: ATOM     21  C   UNL     1     138.402  69.251 221.480 -0.13 -0.00    +0.010 C  
DOCKED: BRANCH  21  22
DOCKED: ATOM     22  C   UNL     1     138.028  68.247 222.579 -0.19 -0.01    +0.100 C  
DOCKED: BRANCH  22  23
DOCKED: ATOM     23  C   UNL     1     138.670  68.593 223.893 -0.21 -0.03    +0.224 C  
DOCKED: ATOM     24  N   UNL     1     138.886  69.968 224.252 -0.14 +0.05    -0.326 N  
DOCKED: ATOM     25  O   UNL     1     138.969  67.664 224.692 -0.71 -0.01    -0.275 OA 
DOCKED: ATOM     26  H   UNL     1     138.403  70.697 223.682 +0.06 -0.03    +0.169 HD 
DOCKED: BRANCH  24  27
DOCKED: ATOM     27  C   UNL     1     139.624  70.407 225.408 -0.43 -0.01    +0.041 A  
DOCKED: ATOM     28  C   UNL     1     140.560  71.445 225.269 -0.53 -0.00    +0.026 A  
DOCKED: ATOM     29  C   UNL     1     139.479  69.782 226.662 -0.45 -0.00    +0.026 A  
DOCKED: ATOM     30  C   UNL     1     141.311  71.873 226.367 -0.69 -0.00    +0.002 A  
DOCKED: ATOM     31  C   UNL     1     140.230  70.217 227.758 -0.63 -0.00    +0.002 A  
DOCKED: ATOM     32  C   UNL     1     141.145  71.263 227.611 -0.72 -0.00    +0.000 A  
DOCKED: ENDBRANCH  24  27
DOCKED: ENDBRANCH  22  23
DOCKED: ENDBRANCH  21  22
DOCKED: ENDBRANCH  20  21
DOCKED: ENDBRANCH   1  20
DOCKED: TORSDOF 10
DOCKED: TER
DOCKED: ENDMDL
________________________________________________________________________________


    FINAL DOCKED STATE:
    ________________________


Run:   4 / 20
Time taken for this run:   0.037s

DOCKED: MODEL        4
DOCKED: USER    Run = 4
DOCKED: USER
DOCKED: USER    Estimated Free Energy of Binding    =  -7.15 kcal/mol  [=(1)+(2)+(3)-(4)]
DOCKED: USER
DOCKED: USER    (1) Final Intermolecular Energy     = -10.13 kcal/mol
DOCKED: USER        vdW + Hbond + desolv Energy     = -10.01 kcal/mol
DOCKED: USER        Electrostatic Energy            =  -0.12 kcal/mol
DOCKED: USER        Moving Ligand-Fixed Receptor    = -10.13 kcal/mol
DOCKED: USER        Moving Ligand-Moving Receptor   =  +0.00 kcal/mol
DOCKED: USER    (2) Final Total Internal Energy     =  -2.56 kcal/mol
DOCKED: USER    (3) Torsional Free Energy           =  +2.98 kcal/mol
DOCKED: USER    (4) Unbound System's Energy         =  -2.56 kcal/mol
DOCKED: USER
DOCKED: USER
DOCKED: REMARK SMILES O=C(CCCC/C=C(\O)c1nnc(-c2nc(=O)c(F)c[nH]2)o1)Nc1ccccc1
DOCKED: REMARK SMILES IDX 6 1 7 2 8 3 9 4 10 6 11 7 22 8 12 9 13 10 14 11 15 12 21 13
DOCKED: REMARK SMILES IDX 16 14 20 15 18 16 17 18 19 19 5 20 4 21 3 22 2 23 23 24 1 25
DOCKED: REMARK SMILES IDX 24 27 25 28 29 29 26 30 28 31 27 32
DOCKED: REMARK H PARENT 9 5 21 17 23 26
DOCKED: USER                              x       y       z     vdW  Elec       q    Type
DOCKED: USER                           _______ _______ _______ _____ _____    ______ ____
DOCKED: ROOT
DOCKED: ATOM      1  C   UNL     1     139.747  70.430 220.402 -0.10 -0.01    +0.031 C  
DOCKED: ENDROOT
DOCKED: BRANCH   1   2
DOCKED: ATOM      2  C   UNL     1     140.509  71.354 221.313 -0.18 -0.00    +0.025 C  
DOCKED: BRANCH   2   3
DOCKED: ATOM      3  C   UNL     1     139.933  72.391 221.936 -0.22 -0.03    +0.176 C  
DOCKED: BRANCH   3   4
DOCKED: ATOM      4  O   UNL     1     138.816  72.183 222.745 -0.09 +0.15    -0.503 OA 
DOCKED: ATOM      5  H   UNL     1     138.347  72.948 223.213 -0.40 -0.19    +0.293 HD 
DOCKED: ENDBRANCH   3   4
DOCKED: BRANCH   3   6
DOCKED: ATOM      6  C   UNL     1     140.459  73.760 221.769 -0.17 -0.02    +0.282 A  
DOCKED: ATOM      7  N   UNL     1     141.503  74.094 220.985 -0.25 +0.02    -0.104 NA 
DOCKED: ATOM      8  O   UNL     1     139.949  74.818 222.353 -0.66 +0.02    -0.411 OA 
DOCKED: ATOM      9  N   UNL     1     141.641  75.407 221.086 -0.26 +0.04    -0.104 NA 
DOCKED: ATOM     10  C   UNL     1     140.676  75.822 221.928 -0.24 -0.07    +0.284 A  
DOCKED: BRANCH  10  11
DOCKED: ATOM     11  C   UNL     1     140.450  77.222 222.313 -0.31 -0.06    +0.199 A  
DOCKED: ATOM     12  N   UNL     1     141.498  78.089 222.313 -0.27 +0.09    -0.183 NA 
DOCKED: ATOM     13  N   UNL     1     139.214  77.654 222.696 -0.15 +0.06    -0.339 N  
DOCKED: ATOM     14  C   UNL     1     141.340  79.385 222.688 -0.29 -0.10    +0.309 A  
DOCKED: ATOM     15  C   UNL     1     139.016  78.944 223.077 -0.28 -0.02    +0.129 A  
DOCKED: ATOM     16  C   UNL     1     140.083  79.842 223.082 -0.29 -0.04    +0.206 A  
DOCKED: ATOM     17  H   UNL     1     138.401  76.998 222.707 +0.05 -0.03    +0.168 HD 
DOCKED: ATOM     18  O   UNL     1     142.328  80.164 222.678 -0.40 +0.09    -0.264 OA 
DOCKED: ATOM     19  F   UNL     1     139.895  81.132 223.463 -0.10 +0.02    -0.199 F  
DOCKED: ENDBRANCH  10  11
DOCKED: ENDBRANCH   3   6
DOCKED: ENDBRANCH   2   3
DOCKED: ENDBRANCH   1   2
DOCKED: BRANCH   1  20
DOCKED: ATOM     20  C   UNL     1     139.553  69.042 221.034 -0.14 -0.00    +0.005 C  
DOCKED: BRANCH  20  21
DOCKED: ATOM     21  C   UNL     1     138.388  69.009 222.053 -0.17 -0.00    +0.010 C  
DOCKED: BRANCH  21  22
DOCKED: ATOM     22  C   UNL     1     138.519  67.875 223.078 -0.22 -0.01    +0.100 C  
DOCKED: BRANCH  22  23
DOCKED: ATOM     23  C   UNL     1     139.037  68.373 224.398 -0.21 -0.02    +0.224 C  
DOCKED: ATOM     24  N   UNL     1     139.268  69.777 224.601 -0.15 +0.05    -0.326 N  
DOCKED: ATOM     25  O   UNL     1     139.218  67.549 225.336 -0.89 -0.01    -0.275 OA 
DOCKED: ATOM     26  H   UNL     1     138.873  70.438 223.895 +0.08 -0.03    +0.169 HD 
DOCKED: BRANCH  24  27
DOCKED: ATOM     27  C   UNL     1     139.901  70.344 225.763 -0.47 -0.01    +0.041 A  
DOCKED: ATOM     28  C   UNL     1     139.609  69.815 227.030 -0.50 -0.00    +0.026 A  
DOCKED: ATOM     29  C   UNL     1     140.759  71.458 225.670 -0.59 -0.00    +0.026 A  
DOCKED: ATOM     30  C   UNL     1     140.186  70.364 228.178 -0.62 -0.00    +0.002 A  
DOCKED: ATOM     31  C   UNL     1     141.337  72.000 226.821 -0.75 -0.00    +0.002 A  
DOCKED: ATOM     32  C   UNL     1     141.053  71.454 228.074 -0.79 -0.00    +0.000 A  
DOCKED: ENDBRANCH  24  27
DOCKED: ENDBRANCH  22  23
DOCKED: ENDBRANCH  21  22
DOCKED: ENDBRANCH  20  21
DOCKED: ENDBRANCH   1  20
DOCKED: TORSDOF 10
DOCKED: TER
DOCKED: ENDMDL
________________________________________________________________________________


    FINAL DOCKED STATE:
    ________________________


Run:   5 / 20
Time taken for this run:   0.037s

DOCKED: MODEL        5
DOCKED: USER    Run = 5
DOCKED: USER
DOCKED: USER    Estimated Free Energy of Binding    =  -5.83 kcal/mol  [=(1)+(2)+(3)-(4)]
DOCKED: USER
DOCKED: USER    (1) Final Intermolecular Energy     =  -8.82 kcal/mol
DOCKED: USER        vdW + Hbond + desolv Energy     =  -8.49 kcal/mol
DOCKED: USER        Electrostatic Energy            =  -0.33 kcal/mol
DOCKED: USER        Moving Ligand-Fixed Receptor    =  -8.82 kcal/mol
DOCKED: USER        Moving Ligand-Moving Receptor   =  +0.00 kcal/mol
DOCKED: USER    (2) Final Total Internal Energy     =  -3.52 kcal/mol
DOCKED: USER    (3) Torsional Free Energy           =  +2.98 kcal/mol
DOCKED: USER    (4) Unbound System's Energy         =  -3.52 kcal/mol
DOCKED: USER
DOCKED: USER
DOCKED: REMARK SMILES O=C(CCCC/C=C(\O)c1nnc(-c2nc(=O)c(F)c[nH]2)o1)Nc1ccccc1
DOCKED: REMARK SMILES IDX 6 1 7 2 8 3 9 4 10 6 11 7 22 8 12 9 13 10 14 11 15 12 21 13
DOCKED: REMARK SMILES IDX 16 14 20 15 18 16 17 18 19 19 5 20 4 21 3 22 2 23 23 24 1 25
DOCKED: REMARK SMILES IDX 24 27 25 28 29 29 26 30 28 31 27 32
DOCKED: REMARK H PARENT 9 5 21 17 23 26
DOCKED: USER                              x       y       z     vdW  Elec       q    Type
DOCKED: USER                           _______ _______ _______ _____ _____    ______ ____
DOCKED: ROOT
DOCKED: ATOM      1  C   UNL     1     141.113  81.481 220.069 -0.27 -0.01    +0.031 C  
DOCKED: ENDROOT
DOCKED: BRANCH   1   2
DOCKED: ATOM      2  C   UNL     1     141.117  80.452 218.970 -0.20 -0.01    +0.025 C  
DOCKED: BRANCH   2   3
DOCKED: ATOM      3  C   UNL     1     142.188  79.697 218.692 -0.24 -0.12    +0.176 C  
DOCKED: BRANCH   3   4
DOCKED: ATOM      4  O   UNL     1     143.274  80.254 218.016 -0.11 +0.62    -0.503 OA 
DOCKED: ATOM      5  H   UNL     1     143.953  79.677 217.535 -0.45 -0.66    +0.293 HD 
DOCKED: ENDBRANCH   3   4
DOCKED: BRANCH   3   6
DOCKED: ATOM      6  C   UNL     1     142.232  78.275 219.083 -0.16 -0.20    +0.282 A  
DOCKED: ATOM      7  N   UNL     1     141.189  77.580 219.579 -0.14 +0.05    -0.104 NA 
DOCKED: ATOM      8  O   UNL     1     143.295  77.516 218.970 -0.16 +0.34    -0.411 OA 
DOCKED: ATOM      9  N   UNL     1     141.623  76.344 219.775 -0.17 +0.05    -0.104 NA 
DOCKED: ATOM     10  C   UNL     1     142.915  76.335 219.392 -0.23 -0.17    +0.284 A  
DOCKED: BRANCH  10  11
DOCKED: ATOM     11  C   UNL     1     143.787  75.152 219.426 -0.24 -0.10    +0.199 A  
DOCKED: ATOM     12  N   UNL     1     144.602  74.958 220.496 -0.29 +0.09    -0.183 NA 
DOCKED: ATOM     13  N   UNL     1     143.807  74.266 218.389 -0.06 +0.11    -0.339 N  
DOCKED: ATOM     14  C   UNL     1     145.443  73.893 220.556 -0.37 -0.06    +0.309 A  
DOCKED: ATOM     15  C   UNL     1     144.636  73.188 218.413 -0.17 -0.00    +0.129 A  
DOCKED: ATOM     16  C   UNL     1     145.478  72.979 219.505 -0.30 +0.04    +0.206 A  
DOCKED: ATOM     17  H   UNL     1     143.191  74.407 217.557 +0.04 -0.05    +0.168 HD 
DOCKED: ATOM     18  O   UNL     1     146.188  73.739 221.560 -0.59 +0.05    -0.264 OA 
DOCKED: ATOM     19  F   UNL     1     146.309  71.906 219.536 -0.04 -0.21    -0.199 F  
DOCKED: ENDBRANCH  10  11
DOCKED: ENDBRANCH   3   6
DOCKED: ENDBRANCH   2   3
DOCKED: ENDBRANCH   1   2
DOCKED: BRANCH   1  20
DOCKED: ATOM     20  C   UNL     1     141.129  80.826 221.459 -0.37 -0.00    +0.005 C  
DOCKED: BRANCH  20  21
DOCKED: ATOM     21  C   UNL     1     142.535  80.840 222.108 -0.42 -0.00    +0.010 C  
DOCKED: BRANCH  21  22
DOCKED: ATOM     22  C   UNL     1     142.816  79.594 222.958 -0.49 -0.04    +0.100 C  
DOCKED: BRANCH  22  23
DOCKED: ATOM     23  C   UNL     1     141.570  78.788 223.196 -0.42 -0.08    +0.224 C  
DOCKED: ATOM     24  N   UNL     1     141.213  77.727 222.295 -0.20 +0.15    -0.326 N  
DOCKED: ATOM     25  O   UNL     1     140.872  79.026 224.219 -0.34 +0.05    -0.275 OA 
DOCKED: ATOM     26  H   UNL     1     141.938  77.406 221.615 -0.37 -0.13    +0.169 HD 
DOCKED: BRANCH  24  27
DOCKED: ATOM     27  C   UNL     1     139.973  76.996 222.339 -0.37 -0.01    +0.041 A  
DOCKED: ATOM     28  C   UNL     1     139.976  75.623 222.049 -0.32 -0.00    +0.026 A  
DOCKED: ATOM     29  C   UNL     1     138.745  77.635 222.604 -0.29 -0.00    +0.026 A  
DOCKED: ATOM     30  C   UNL     1     138.784  74.893 222.056 -0.23 -0.00    +0.002 A  
DOCKED: ATOM     31  C   UNL     1     137.556  76.900 222.615 -0.27 -0.00    +0.002 A  
DOCKED: ATOM     32  C   UNL     1     137.574  75.530 222.341 -0.25 -0.00    +0.000 A  
DOCKED: ENDBRANCH  24  27
DOCKED: ENDBRANCH  22  23
DOCKED: ENDBRANCH  21  22
DOCKED: ENDBRANCH  20  21
DOCKED: ENDBRANCH   1  20
DOCKED: TORSDOF 10
DOCKED: TER
DOCKED: ENDMDL
________________________________________________________________________________


    FINAL DOCKED STATE:
    ________________________


Run:   6 / 20
Time taken for this run:   0.037s

DOCKED: MODEL        6
DOCKED: USER    Run = 6
DOCKED: USER
DOCKED: USER    Estimated Free Energy of Binding    =  -7.19 kcal/mol  [=(1)+(2)+(3)-(4)]
DOCKED: USER
DOCKED: USER    (1) Final Intermolecular Energy     = -10.17 kcal/mol
DOCKED: USER        vdW + Hbond + desolv Energy     =  -9.98 kcal/mol
DOCKED: USER        Electrostatic Energy            =  -0.19 kcal/mol
DOCKED: USER        Moving Ligand-Fixed Receptor    = -10.17 kcal/mol
DOCKED: USER        Moving Ligand-Moving Receptor   =  +0.00 kcal/mol
DOCKED: USER    (2) Final Total Internal Energy     =  -2.55 kcal/mol
DOCKED: USER    (3) Torsional Free Energy           =  +2.98 kcal/mol
DOCKED: USER    (4) Unbound System's Energy         =  -2.55 kcal/mol
DOCKED: USER
DOCKED: USER
DOCKED: REMARK SMILES O=C(CCCC/C=C(\O)c1nnc(-c2nc(=O)c(F)c[nH]2)o1)Nc1ccccc1
DOCKED: REMARK SMILES IDX 6 1 7 2 8 3 9 4 10 6 11 7 22 8 12 9 13 10 14 11 15 12 21 13
DOCKED: REMARK SMILES IDX 16 14 20 15 18 16 17 18 19 19 5 20 4 21 3 22 2 23 23 24 1 25
DOCKED: REMARK SMILES IDX 24 27 25 28 29 29 26 30 28 31 27 32
DOCKED: REMARK H PARENT 9 5 21 17 23 26
DOCKED: USER                              x       y       z     vdW  Elec       q    Type
DOCKED: USER                           _______ _______ _______ _____ _____    ______ ____
DOCKED: ROOT
DOCKED: ATOM      1  C   UNL     1     138.983  69.824 221.041 -0.11 -0.01    +0.031 C  
DOCKED: ENDROOT
DOCKED: BRANCH   1   2
DOCKED: ATOM      2  C   UNL     1     139.872  70.780 221.791 -0.18 -0.00    +0.025 C  
DOCKED: BRANCH   2   3
DOCKED: ATOM      3  C   UNL     1     139.421  71.931 222.307 -0.21 -0.04    +0.176 C  
DOCKED: BRANCH   3   4
DOCKED: ATOM      4  O   UNL     1     138.278  71.933 223.107 -0.06 +0.17    -0.503 OA 
DOCKED: ATOM      5  H   UNL     1     137.857  72.794 223.431 -0.41 -0.19    +0.293 HD 
DOCKED: ENDBRANCH   3   4
DOCKED: BRANCH   3   6
DOCKED: ATOM      6  C   UNL     1     140.113  73.205 222.033 -0.18 -0.03    +0.282 A  
DOCKED: ATOM      7  N   UNL     1     141.287  73.319 221.381 -0.28 +0.01    -0.104 NA 
DOCKED: ATOM      8  O   UNL     1     139.647  74.382 222.375 -0.70 +0.04    -0.411 OA 
DOCKED: ATOM      9  N   UNL     1     141.554  74.614 221.315 -0.30 +0.02    -0.104 NA 
DOCKED: ATOM     10  C   UNL     1     140.532  75.239 221.930 -0.17 -0.04    +0.284 A  
DOCKED: BRANCH  10  11
DOCKED: ATOM     11  C   UNL     1     140.410  76.697 222.074 -0.29 -0.06    +0.199 A  
DOCKED: ATOM     12  N   UNL     1     139.242  77.225 222.527 -0.22 +0.04    -0.183 NA 
DOCKED: ATOM     13  N   UNL     1     141.441  77.524 221.735 -0.14 +0.18    -0.339 N  
DOCKED: ATOM     14  C   UNL     1     139.077  78.567 222.649 -0.16 -0.06    +0.309 A  
DOCKED: ATOM     15  C   UNL     1     141.314  78.873 221.845 -0.32 -0.05    +0.129 A  
DOCKED: ATOM     16  C   UNL     1     140.120  79.427 222.307 -0.21 -0.05    +0.206 A  
DOCKED: ATOM     17  H   UNL     1     142.342  77.132 221.380 -0.47 -0.16    +0.168 HD 
DOCKED: ATOM     18  O   UNL     1     137.984  79.028 223.070 -0.18 +0.04    -0.264 OA 
DOCKED: ATOM     19  F   UNL     1     139.983  80.773 222.417 -0.06 +0.04    -0.199 F  
DOCKED: ENDBRANCH  10  11
DOCKED: ENDBRANCH   3   6
DOCKED: ENDBRANCH   2   3
DOCKED: ENDBRANCH   1   2
DOCKED: BRANCH   1  20
DOCKED: ATOM     20  C   UNL     1     137.533  69.882 221.546 -0.08 -0.00    +0.005 C  
DOCKED: BRANCH  20  21
DOCKED: ATOM     21  C   UNL     1     137.232  68.807 222.619 -0.17 -0.00    +0.010 C  
DOCKED: BRANCH  21  22
DOCKED: ATOM     22  C   UNL     1     138.468  67.985 223.008 -0.22 -0.01    +0.100 C  
DOCKED: BRANCH  22  23
DOCKED: ATOM     23  C   UNL     1     139.028  68.415 224.336 -0.21 -0.02    +0.224 C  
DOCKED: ATOM     24  N   UNL     1     139.166  69.812 224.643 -0.15 +0.05    -0.326 N  
DOCKED: ATOM     25  O   UNL     1     139.328  67.535 225.188 -0.86 +0.00    -0.275 OA 
DOCKED: ATOM     26  H   UNL     1     138.680  70.494 224.019 +0.07 -0.03    +0.169 HD 
DOCKED: BRANCH  24  27
DOCKED: ATOM     27  C   UNL     1     139.826  70.333 225.812 -0.46 -0.01    +0.041 A  
DOCKED: ATOM     28  C   UNL     1     139.570  69.747 227.062 -0.51 -0.00    +0.026 A  
DOCKED: ATOM     29  C   UNL     1     140.675  71.456 225.746 -0.59 -0.00    +0.026 A  
DOCKED: ATOM     30  C   UNL     1     140.174  70.249 228.218 -0.61 -0.00    +0.002 A  
DOCKED: ATOM     31  C   UNL     1     141.280  71.951 226.904 -0.76 -0.00    +0.002 A  
DOCKED: ATOM     32  C   UNL     1     141.031  71.348 228.140 -0.76 -0.00    +0.000 A  
DOCKED: ENDBRANCH  24  27
DOCKED: ENDBRANCH  22  23
DOCKED: ENDBRANCH  21  22
DOCKED: ENDBRANCH  20  21
DOCKED: ENDBRANCH   1  20
DOCKED: TORSDOF 10
DOCKED: TER
DOCKED: ENDMDL
________________________________________________________________________________


    FINAL DOCKED STATE:
    ________________________


Run:   7 / 20
Time taken for this run:   0.037s

DOCKED: MODEL        7
DOCKED: USER    Run = 7
DOCKED: USER
DOCKED: USER    Estimated Free Energy of Binding    =  -7.19 kcal/mol  [=(1)+(2)+(3)-(4)]
DOCKED: USER
DOCKED: USER    (1) Final Intermolecular Energy     = -10.18 kcal/mol
DOCKED: USER        vdW + Hbond + desolv Energy     =  -9.78 kcal/mol
DOCKED: USER        Electrostatic Energy            =  -0.40 kcal/mol
DOCKED: USER        Moving Ligand-Fixed Receptor    = -10.18 kcal/mol
DOCKED: USER        Moving Ligand-Moving Receptor   =  +0.00 kcal/mol
DOCKED: USER    (2) Final Total Internal Energy     =  -2.70 kcal/mol
DOCKED: USER    (3) Torsional Free Energy           =  +2.98 kcal/mol
DOCKED: USER    (4) Unbound System's Energy         =  -2.70 kcal/mol
DOCKED: USER
DOCKED: USER
DOCKED: REMARK SMILES O=C(CCCC/C=C(\O)c1nnc(-c2nc(=O)c(F)c[nH]2)o1)Nc1ccccc1
DOCKED: REMARK SMILES IDX 6 1 7 2 8 3 9 4 10 6 11 7 22 8 12 9 13 10 14 11 15 12 21 13
DOCKED: REMARK SMILES IDX 16 14 20 15 18 16 17 18 19 19 5 20 4 21 3 22 2 23 23 24 1 25
DOCKED: REMARK SMILES IDX 24 27 25 28 29 29 26 30 28 31 27 32
DOCKED: REMARK H PARENT 9 5 21 17 23 26
DOCKED: USER                              x       y       z     vdW  Elec       q    Type
DOCKED: USER                           _______ _______ _______ _____ _____    ______ ____
DOCKED: ROOT
DOCKED: ATOM      1  C   UNL     1     138.523  70.570 220.034 -0.04 -0.01    +0.031 C  
DOCKED: ENDROOT
DOCKED: BRANCH   1   2
DOCKED: ATOM      2  C   UNL     1     137.593  71.124 221.080 -0.06 -0.00    +0.025 C  
DOCKED: BRANCH   2   3
DOCKED: ATOM      3  C   UNL     1     138.010  71.942 222.056 -0.11 -0.04    +0.176 C  
DOCKED: BRANCH   3   4
DOCKED: ATOM      4  O   UNL     1     137.280  72.037 223.241 -0.05 +0.16    -0.503 OA 
DOCKED: ATOM      5  H   UNL     1     137.325  72.860 223.829 -0.48 -0.20    +0.293 HD 
DOCKED: ENDBRANCH   3   4
DOCKED: BRANCH   3   6
DOCKED: ATOM      6  C   UNL     1     139.230  72.754 221.892 -0.15 -0.06    +0.282 A  
DOCKED: ATOM      7  N   UNL     1     139.378  74.020 222.331 -0.69 +0.02    -0.104 NA 
DOCKED: ATOM      8  O   UNL     1     140.326  72.324 221.315 -0.10 +0.06    -0.411 OA 
DOCKED: ATOM      9  N   UNL     1     140.613  74.383 222.018 -0.76 +0.00    -0.104 NA 
DOCKED: ATOM     10  C   UNL     1     141.169  73.324 221.398 -0.16 -0.03    +0.284 A  
DOCKED: BRANCH  10  11
DOCKED: ATOM     11  C   UNL     1     142.548  73.283 220.892 -0.16 -0.03    +0.199 A  
DOCKED: ATOM     12  N   UNL     1     143.070  72.097 220.481 -0.17 +0.02    -0.183 NA 
DOCKED: ATOM     13  N   UNL     1     143.316  74.410 220.855 -0.12 +0.12    -0.339 N  
DOCKED: ATOM     14  C   UNL     1     144.349  72.009 220.032 -0.17 -0.02    +0.309 A  
DOCKED: ATOM     15  C   UNL     1     144.600  74.361 220.412 -0.41 -0.05    +0.129 A  
DOCKED: ATOM     16  C   UNL     1     145.147  73.151 219.989 -0.35 -0.01    +0.206 A  
DOCKED: ATOM     17  H   UNL     1     142.930  75.327 221.174 -0.36 -0.11    +0.168 HD 
DOCKED: ATOM     18  O   UNL     1     144.806  70.896 219.659 -0.18 -0.04    -0.264 OA 
DOCKED: ATOM     19  F   UNL     1     146.429  73.092 219.546 -0.10 -0.15    -0.199 F  
DOCKED: ENDBRANCH  10  11
DOCKED: ENDBRANCH   3   6
DOCKED: ENDBRANCH   2   3
DOCKED: ENDBRANCH   1   2
DOCKED: BRANCH   1  20
DOCKED: ATOM     20  C   UNL     1     138.870  69.098 220.307 -0.09 -0.00    +0.005 C  
DOCKED: BRANCH  20  21
DOCKED: ATOM     21  C   UNL     1     139.534  68.888 221.690 -0.11 -0.00    +0.010 C  
DOCKED: BRANCH  21  22
DOCKED: ATOM     22  C   UNL     1     138.560  68.353 222.748 -0.21 -0.02    +0.100 C  
DOCKED: BRANCH  22  23
DOCKED: ATOM     23  C   UNL     1     139.010  68.691 224.142 -0.21 -0.03    +0.224 C  
DOCKED: ATOM     24  N   UNL     1     139.238  70.059 224.517 -0.15 +0.05    -0.326 N  
DOCKED: ATOM     25  O   UNL     1     139.137  67.762 224.987 -0.81 -0.00    -0.275 OA 
DOCKED: ATOM     26  H   UNL     1     138.884  70.801 223.872 +0.07 -0.04    +0.169 HD 
DOCKED: BRANCH  24  27
DOCKED: ATOM     27  C   UNL     1     139.812  70.482 225.767 -0.45 -0.01    +0.041 A  
DOCKED: ATOM     28  C   UNL     1     140.709  71.562 225.779 -0.58 -0.00    +0.026 A  
DOCKED: ATOM     29  C   UNL     1     139.547  69.802 226.973 -0.48 -0.00    +0.026 A  
DOCKED: ATOM     30  C   UNL     1     141.304  71.977 226.974 -0.77 -0.00    +0.002 A  
DOCKED: ATOM     31  C   UNL     1     140.141  70.224 228.166 -0.62 -0.00    +0.002 A  
DOCKED: ATOM     32  C   UNL     1     141.019  71.311 228.167 -0.75 -0.00    +0.000 A  
DOCKED: ENDBRANCH  24  27
DOCKED: ENDBRANCH  22  23
DOCKED: ENDBRANCH  21  22
DOCKED: ENDBRANCH  20  21
DOCKED: ENDBRANCH   1  20
DOCKED: TORSDOF 10
DOCKED: TER
DOCKED: ENDMDL
________________________________________________________________________________


    FINAL DOCKED STATE:
    ________________________


Run:   8 / 20
Time taken for this run:   0.037s

DOCKED: MODEL        8
DOCKED: USER    Run = 8
DOCKED: USER
DOCKED: USER    Estimated Free Energy of Binding    =  -6.78 kcal/mol  [=(1)+(2)+(3)-(4)]
DOCKED: USER
DOCKED: USER    (1) Final Intermolecular Energy     =  -9.76 kcal/mol
DOCKED: USER        vdW + Hbond + desolv Energy     =  -9.82 kcal/mol
DOCKED: USER        Electrostatic Energy            =  +0.06 kcal/mol
DOCKED: USER        Moving Ligand-Fixed Receptor    =  -9.76 kcal/mol
DOCKED: USER        Moving Ligand-Moving Receptor   =  +0.00 kcal/mol
DOCKED: USER    (2) Final Total Internal Energy     =  -2.35 kcal/mol
DOCKED: USER    (3) Torsional Free Energy           =  +2.98 kcal/mol
DOCKED: USER    (4) Unbound System's Energy         =  -2.35 kcal/mol
DOCKED: USER
DOCKED: USER
DOCKED: REMARK SMILES O=C(CCCC/C=C(\O)c1nnc(-c2nc(=O)c(F)c[nH]2)o1)Nc1ccccc1
DOCKED: REMARK SMILES IDX 6 1 7 2 8 3 9 4 10 6 11 7 22 8 12 9 13 10 14 11 15 12 21 13
DOCKED: REMARK SMILES IDX 16 14 20 15 18 16 17 18 19 19 5 20 4 21 3 22 2 23 23 24 1 25
DOCKED: REMARK SMILES IDX 24 27 25 28 29 29 26 30 28 31 27 32
DOCKED: REMARK H PARENT 9 5 21 17 23 26
DOCKED: USER                              x       y       z     vdW  Elec       q    Type
DOCKED: USER                           _______ _______ _______ _____ _____    ______ ____
DOCKED: ROOT
DOCKED: ATOM      1  C   UNL     1     141.246  73.258 219.501 -0.10 -0.01    +0.031 C  
DOCKED: ENDROOT
DOCKED: BRANCH   1   2
DOCKED: ATOM      2  C   UNL     1     139.954  73.329 220.272 -0.11 -0.00    +0.025 C  
DOCKED: BRANCH   2   3
DOCKED: ATOM      3  C   UNL     1     139.915  73.418 221.608 -0.21 -0.03    +0.176 C  
DOCKED: BRANCH   3   4
DOCKED: ATOM      4  O   UNL     1     139.965  74.669 222.223 -0.66 +0.03    -0.503 OA 
DOCKED: ATOM      5  H   UNL     1     139.526  74.839 223.119 -0.42 -0.02    +0.293 HD 
DOCKED: ENDBRANCH   3   4
DOCKED: BRANCH   3   6
DOCKED: ATOM      6  C   UNL     1     139.828  72.205 222.444 -0.20 -0.05    +0.282 A  
DOCKED: ATOM      7  N   UNL     1     139.349  71.015 222.028 -0.14 +0.02    -0.104 NA 
DOCKED: ATOM      8  O   UNL     1     140.234  72.141 223.689 -0.29 +0.06    -0.411 OA 
DOCKED: ATOM      9  N   UNL     1     139.466  70.186 223.054 -0.18 +0.02    -0.104 NA 
DOCKED: ATOM     10  C   UNL     1     140.011  70.903 224.055 -0.25 -0.05    +0.284 A  
DOCKED: BRANCH  10  11
DOCKED: ATOM     11  C   UNL     1     140.334  70.367 225.385 -0.36 -0.03    +0.199 A  
DOCKED: ATOM     12  N   UNL     1     140.715  71.222 226.371 -0.44 +0.03    -0.183 NA 
DOCKED: ATOM     13  N   UNL     1     140.283  69.026 225.633 -0.18 +0.06    -0.339 N  
DOCKED: ATOM     14  C   UNL     1     141.048  70.767 227.607 -0.38 -0.05    +0.309 A  
DOCKED: ATOM     15  C   UNL     1     140.610  68.534 226.858 -0.53 -0.03    +0.129 A  
DOCKED: ATOM     16  C   UNL     1     141.002  69.400 227.877 -0.42 -0.04    +0.206 A  
DOCKED: ATOM     17  H   UNL     1     139.999  68.357 224.882 +0.02 -0.04    +0.168 HD 
DOCKED: ATOM     18  O   UNL     1     141.398  71.582 228.501 -0.54 +0.06    -0.264 OA 
DOCKED: ATOM     19  F   UNL     1     141.331  68.917 229.102 -0.11 +0.05    -0.199 F  
DOCKED: ENDBRANCH  10  11
DOCKED: ENDBRANCH   3   6
DOCKED: ENDBRANCH   2   3
DOCKED: ENDBRANCH   1   2
DOCKED: BRANCH   1  20
DOCKED: ATOM     20  C   UNL     1     142.464  73.461 220.416 -0.27 -0.00    +0.005 C  
DOCKED: BRANCH  20  21
DOCKED: ATOM     21  C   UNL     1     142.964  74.926 220.424 -0.31 -0.00    +0.010 C  
DOCKED: BRANCH  21  22
DOCKED: ATOM     22  C   UNL     1     142.029  75.885 219.676 -0.23 -0.04    +0.100 C  
DOCKED: BRANCH  22  23
DOCKED: ATOM     23  C   UNL     1     141.886  77.198 220.392 -0.19 -0.13    +0.224 C  
DOCKED: ATOM     24  N   UNL     1     141.433  77.233 221.756 -0.11 +0.18    -0.326 N  
DOCKED: ATOM     25  O   UNL     1     142.215  78.260 219.796 -0.20 +0.20    -0.275 OA 
DOCKED: ATOM     26  H   UNL     1     141.413  76.330 222.281 -0.26 -0.08    +0.169 HD 
DOCKED: BRANCH  24  27
DOCKED: ATOM     27  C   UNL     1     141.116  78.433 222.484 -0.44 -0.02    +0.041 A  
DOCKED: ATOM     28  C   UNL     1     139.781  78.691 222.833 -0.35 -0.01    +0.026 A  
DOCKED: ATOM     29  C   UNL     1     142.101  79.389 222.803 -0.57 -0.01    +0.026 A  
DOCKED: ATOM     30  C   UNL     1     139.439  79.861 223.515 -0.42 -0.00    +0.002 A  
DOCKED: ATOM     31  C   UNL     1     141.754  80.556 223.491 -0.59 -0.00    +0.002 A  
DOCKED: ATOM     32  C   UNL     1     140.425  80.792 223.847 -0.39 -0.00    +0.000 A  
DOCKED: ENDBRANCH  24  27
DOCKED: ENDBRANCH  22  23
DOCKED: ENDBRANCH  21  22
DOCKED: ENDBRANCH  20  21
DOCKED: ENDBRANCH   1  20
DOCKED: TORSDOF 10
DOCKED: TER
DOCKED: ENDMDL
________________________________________________________________________________


    FINAL DOCKED STATE:
    ________________________


Run:   9 / 20
Time taken for this run:   0.037s

DOCKED: MODEL        9
DOCKED: USER    Run = 9
DOCKED: USER
DOCKED: USER    Estimated Free Energy of Binding    =  -5.06 kcal/mol  [=(1)+(2)+(3)-(4)]
DOCKED: USER
DOCKED: USER    (1) Final Intermolecular Energy     =  -8.04 kcal/mol
DOCKED: USER        vdW + Hbond + desolv Energy     =  -8.06 kcal/mol
DOCKED: USER        Electrostatic Energy            =  +0.02 kcal/mol
DOCKED: USER        Moving Ligand-Fixed Receptor    =  -8.04 kcal/mol
DOCKED: USER        Moving Ligand-Moving Receptor   =  +0.00 kcal/mol
DOCKED: USER    (2) Final Total Internal Energy     =  -4.10 kcal/mol
DOCKED: USER    (3) Torsional Free Energy           =  +2.98 kcal/mol
DOCKED: USER    (4) Unbound System's Energy         =  -4.10 kcal/mol
DOCKED: USER
DOCKED: USER
DOCKED: REMARK SMILES O=C(CCCC/C=C(\O)c1nnc(-c2nc(=O)c(F)c[nH]2)o1)Nc1ccccc1
DOCKED: REMARK SMILES IDX 6 1 7 2 8 3 9 4 10 6 11 7 22 8 12 9 13 10 14 11 15 12 21 13
DOCKED: REMARK SMILES IDX 16 14 20 15 18 16 17 18 19 19 5 20 4 21 3 22 2 23 23 24 1 25
DOCKED: REMARK SMILES IDX 24 27 25 28 29 29 26 30 28 31 27 32
DOCKED: REMARK H PARENT 9 5 21 17 23 26
DOCKED: USER                              x       y       z     vdW  Elec       q    Type
DOCKED: USER                           _______ _______ _______ _____ _____    ______ ____
DOCKED: ROOT
DOCKED: ATOM      1  C   UNL     1     143.402  76.195 218.954 -0.32 -0.02    +0.031 C  
DOCKED: ENDROOT
DOCKED: BRANCH   1   2
DOCKED: ATOM      2  C   UNL     1     143.785  75.295 220.099 -0.35 -0.01    +0.025 C  
DOCKED: BRANCH   2   3
DOCKED: ATOM      3  C   UNL     1     143.028  74.260 220.487 -0.24 -0.06    +0.176 C  
DOCKED: BRANCH   3   4
DOCKED: ATOM      4  O   UNL     1     143.462  72.955 220.250 -0.06 +0.08    -0.503 OA 
DOCKED: ATOM      5  H   UNL     1     142.927  72.153 220.558 +0.13 -0.04    +0.293 HD 
DOCKED: ENDBRANCH   3   4
DOCKED: BRANCH   3   6
DOCKED: ATOM      6  C   UNL     1     141.732  74.480 221.157 -0.15 -0.06    +0.282 A  
DOCKED: ATOM      7  N   UNL     1     141.075  73.556 221.885 -0.57 +0.00    -0.104 NA 
DOCKED: ATOM      8  O   UNL     1     141.081  75.618 221.137 -0.17 +0.13    -0.411 OA 
DOCKED: ATOM      9  N   UNL     1     139.978  74.147 222.336 -0.84 +0.00    -0.104 NA 
DOCKED: ATOM     10  C   UNL     1     140.010  75.407 221.863 -0.21 -0.05    +0.284 A  
DOCKED: BRANCH  10  11
DOCKED: ATOM     11  C   UNL     1     138.986  76.426 222.135 -0.23 -0.04    +0.199 A  
DOCKED: ATOM     12  N   UNL     1     139.193  77.704 221.717 -0.14 +0.04    -0.183 NA 
DOCKED: ATOM     13  N   UNL     1     137.850  76.114 222.822 -0.16 +0.08    -0.339 N  
DOCKED: ATOM     14  C   UNL     1     138.286  78.682 221.971 -0.09 -0.06    +0.309 A  
DOCKED: ATOM     15  C   UNL     1     136.919  77.067 223.095 -0.14 -0.02    +0.129 A  
DOCKED: ATOM     16  C   UNL     1     137.120  78.380 222.672 -0.14 -0.03    +0.206 A  
DOCKED: ATOM     17  H   UNL     1     137.681  75.138 223.155 -0.39 -0.08    +0.168 HD 
DOCKED: ATOM     18  O   UNL     1     138.504  79.857 221.573 -0.06 +0.05    -0.264 OA 
DOCKED: ATOM     19  F   UNL     1     136.197  79.338 222.942 -0.04 +0.03    -0.199 F  
DOCKED: ENDBRANCH  10  11
DOCKED: ENDBRANCH   3   6
DOCKED: ENDBRANCH   2   3
DOCKED: ENDBRANCH   1   2
DOCKED: BRANCH   1  20
DOCKED: ATOM     20  C   UNL     1     142.125  75.708 218.252 -0.16 -0.00    +0.005 C  
DOCKED: BRANCH  20  21
DOCKED: ATOM     21  C   UNL     1     140.966  76.731 218.349 -0.10 -0.00    +0.010 C  
DOCKED: BRANCH  21  22
DOCKED: ATOM     22  C   UNL     1     141.367  78.138 217.887 -0.14 -0.05    +0.100 C  
DOCKED: BRANCH  22  23
DOCKED: ATOM     23  C   UNL     1     141.824  78.994 219.035 -0.20 -0.14    +0.224 C  
DOCKED: ATOM     24  N   UNL     1     141.448  78.659 220.380 -0.12 +0.17    -0.326 N  
DOCKED: ATOM     25  O   UNL     1     142.579  79.977 218.803 -0.26 +0.21    -0.275 OA 
DOCKED: ATOM     26  H   UNL     1     141.039  77.712 220.546 +0.07 -0.08    +0.169 HD 
DOCKED: BRANCH  24  27
DOCKED: ATOM     27  C   UNL     1     141.698  79.486 221.532 -0.39 -0.02    +0.041 A  
DOCKED: ATOM     28  C   UNL     1     141.978  78.877 222.766 -0.49 -0.01    +0.026 A  
DOCKED: ATOM     29  C   UNL     1     141.609  80.891 221.469 -0.40 -0.01    +0.026 A  
DOCKED: ATOM     30  C   UNL     1     142.197  79.653 223.907 -0.60 -0.00    +0.002 A  
DOCKED: ATOM     31  C   UNL     1     141.835  81.663 222.613 -0.47 -0.00    +0.002 A  
DOCKED: ATOM     32  C   UNL     1     142.129  81.045 223.831 -0.64 -0.00    +0.000 A  
DOCKED: ENDBRANCH  24  27
DOCKED: ENDBRANCH  22  23
DOCKED: ENDBRANCH  21  22
DOCKED: ENDBRANCH  20  21
DOCKED: ENDBRANCH   1  20
DOCKED: TORSDOF 10
DOCKED: TER
DOCKED: ENDMDL
________________________________________________________________________________


    FINAL DOCKED STATE:
    ________________________


Run:   10 / 20
Time taken for this run:   0.037s

DOCKED: MODEL        10
DOCKED: USER    Run = 10
DOCKED: USER
DOCKED: USER    Estimated Free Energy of Binding    =  -5.26 kcal/mol  [=(1)+(2)+(3)-(4)]
DOCKED: USER
DOCKED: USER    (1) Final Intermolecular Energy     =  -8.24 kcal/mol
DOCKED: USER        vdW + Hbond + desolv Energy     =  -8.20 kcal/mol
DOCKED: USER        Electrostatic Energy            =  -0.04 kcal/mol
DOCKED: USER        Moving Ligand-Fixed Receptor    =  -8.24 kcal/mol
DOCKED: USER        Moving Ligand-Moving Receptor   =  +0.00 kcal/mol
DOCKED: USER    (2) Final Total Internal Energy     =  -3.93 kcal/mol
DOCKED: USER    (3) Torsional Free Energy           =  +2.98 kcal/mol
DOCKED: USER    (4) Unbound System's Energy         =  -3.93 kcal/mol
DOCKED: USER
DOCKED: USER
DOCKED: REMARK SMILES O=C(CCCC/C=C(\O)c1nnc(-c2nc(=O)c(F)c[nH]2)o1)Nc1ccccc1
DOCKED: REMARK SMILES IDX 6 1 7 2 8 3 9 4 10 6 11 7 22 8 12 9 13 10 14 11 15 12 21 13
DOCKED: REMARK SMILES IDX 16 14 20 15 18 16 17 18 19 19 5 20 4 21 3 22 2 23 23 24 1 25
DOCKED: REMARK SMILES IDX 24 27 25 28 29 29 26 30 28 31 27 32
DOCKED: REMARK H PARENT 9 5 21 17 23 26
DOCKED: USER                              x       y       z     vdW  Elec       q    Type
DOCKED: USER                           _______ _______ _______ _____ _____    ______ ____
DOCKED: ROOT
DOCKED: ATOM      1  C   UNL     1     143.409  75.799 217.185 -0.21 -0.02    +0.031 C  
DOCKED: ENDROOT
DOCKED: BRANCH   1   2
DOCKED: ATOM      2  C   UNL     1     143.097  75.009 218.428 -0.21 -0.01    +0.025 C  
DOCKED: BRANCH   2   3
DOCKED: ATOM      3  C   UNL     1     143.053  75.566 219.645 -0.28 -0.09    +0.176 C  
DOCKED: BRANCH   3   4
DOCKED: ATOM      4  O   UNL     1     144.123  76.341 220.094 -0.17 +0.42    -0.503 OA 
DOCKED: ATOM      5  H   UNL     1     143.989  77.283 220.440 -0.41 -0.38    +0.293 HD 
DOCKED: ENDBRANCH   3   4
DOCKED: BRANCH   3   6
DOCKED: ATOM      6  C   UNL     1     141.887  75.365 220.526 -0.17 -0.11    +0.282 A  
DOCKED: ATOM      7  N   UNL     1     141.694  74.288 221.314 -0.26 +0.02    -0.104 NA 
DOCKED: ATOM      8  O   UNL     1     140.911  76.230 220.661 -0.09 +0.15    -0.411 OA 
DOCKED: ATOM      9  N   UNL     1     140.558  74.498 221.962 -0.78 +0.01    -0.104 NA 
DOCKED: ATOM     10  C   UNL     1     140.102  75.694 221.543 -0.21 -0.06    +0.284 A  
DOCKED: BRANCH  10  11
DOCKED: ATOM     11  C   UNL     1     138.867  76.331 222.021 -0.22 -0.04    +0.199 A  
DOCKED: ATOM     12  N   UNL     1     138.707  77.672 221.864 -0.14 +0.04    -0.183 NA 
DOCKED: ATOM     13  N   UNL     1     137.896  75.600 222.641 -0.12 +0.10    -0.339 N  
DOCKED: ATOM     14  C   UNL     1     137.593  78.305 222.315 -0.11 -0.05    +0.309 A  
DOCKED: ATOM     15  C   UNL     1     136.767  76.199 223.106 -0.23 -0.03    +0.129 A  
DOCKED: ATOM     16  C   UNL     1     136.591  77.573 222.952 -0.11 -0.03    +0.206 A  
DOCKED: ATOM     17  H   UNL     1     138.008  74.570 222.774 -0.50 -0.08    +0.168 HD 
DOCKED: ATOM     18  O   UNL     1     137.472  79.548 222.157 -0.08 +0.04    -0.264 OA 
DOCKED: ATOM     19  F   UNL     1     135.468  78.180 223.414 -0.04 +0.03    -0.199 F  
DOCKED: ENDBRANCH  10  11
DOCKED: ENDBRANCH   3   6
DOCKED: ENDBRANCH   2   3
DOCKED: ENDBRANCH   1   2
DOCKED: BRANCH   1  20
DOCKED: ATOM     20  C   UNL     1     142.887  77.241 217.283 -0.27 -0.00    +0.005 C  
DOCKED: BRANCH  20  21
DOCKED: ATOM     21  C   UNL     1     141.354  77.306 217.491 -0.11 -0.00    +0.010 C  
DOCKED: BRANCH  21  22
DOCKED: ATOM     22  C   UNL     1     140.858  78.711 217.856 -0.09 -0.05    +0.100 C  
DOCKED: BRANCH  22  23
DOCKED: ATOM     23  C   UNL     1     141.504  79.222 219.114 -0.17 -0.12    +0.224 C  
DOCKED: ATOM     24  N   UNL     1     140.965  78.867 220.398 -0.08 +0.14    -0.326 N  
DOCKED: ATOM     25  O   UNL     1     142.548  79.924 219.026 -0.24 +0.20    -0.275 OA 
DOCKED: ATOM     26  H   UNL     1     140.263  78.094 220.430 +0.06 -0.06    +0.169 HD 
DOCKED: BRANCH  24  27
DOCKED: ATOM     27  C   UNL     1     141.406  79.417 221.653 -0.37 -0.02    +0.041 A  
DOCKED: ATOM     28  C   UNL     1     141.456  78.589 222.785 -0.51 -0.01    +0.026 A  
DOCKED: ATOM     29  C   UNL     1     141.730  80.782 221.791 -0.43 -0.01    +0.026 A  
DOCKED: ATOM     30  C   UNL     1     141.853  79.102 224.023 -0.59 -0.00    +0.002 A  
DOCKED: ATOM     31  C   UNL     1     142.131  81.289 223.031 -0.56 -0.00    +0.002 A  
DOCKED: ATOM     32  C   UNL     1     142.193  80.450 224.146 -0.51 -0.00    +0.000 A  
DOCKED: ENDBRANCH  24  27
DOCKED: ENDBRANCH  22  23
DOCKED: ENDBRANCH  21  22
DOCKED: ENDBRANCH  20  21
DOCKED: ENDBRANCH   1  20
DOCKED: TORSDOF 10
DOCKED: TER
DOCKED: ENDMDL
________________________________________________________________________________


    FINAL DOCKED STATE:
    ________________________


Run:   11 / 20
Time taken for this run:   0.037s

DOCKED: MODEL        11
DOCKED: USER    Run = 11
DOCKED: USER
DOCKED: USER    Estimated Free Energy of Binding    =  -6.43 kcal/mol  [=(1)+(2)+(3)-(4)]
DOCKED: USER
DOCKED: USER    (1) Final Intermolecular Energy     =  -9.42 kcal/mol
DOCKED: USER        vdW + Hbond + desolv Energy     =  -9.08 kcal/mol
DOCKED: USER        Electrostatic Energy            =  -0.34 kcal/mol
DOCKED: USER        Moving Ligand-Fixed Receptor    =  -9.42 kcal/mol
DOCKED: USER        Moving Ligand-Moving Receptor   =  +0.00 kcal/mol
DOCKED: USER    (2) Final Total Internal Energy     =  -2.78 kcal/mol
DOCKED: USER    (3) Torsional Free Energy           =  +2.98 kcal/mol
DOCKED: USER    (4) Unbound System's Energy         =  -2.78 kcal/mol
DOCKED: USER
DOCKED: USER
DOCKED: REMARK SMILES O=C(CCCC/C=C(\O)c1nnc(-c2nc(=O)c(F)c[nH]2)o1)Nc1ccccc1
DOCKED: REMARK SMILES IDX 6 1 7 2 8 3 9 4 10 6 11 7 22 8 12 9 13 10 14 11 15 12 21 13
DOCKED: REMARK SMILES IDX 16 14 20 15 18 16 17 18 19 19 5 20 4 21 3 22 2 23 23 24 1 25
DOCKED: REMARK SMILES IDX 24 27 25 28 29 29 26 30 28 31 27 32
DOCKED: REMARK H PARENT 9 5 21 17 23 26
DOCKED: USER                              x       y       z     vdW  Elec       q    Type
DOCKED: USER                           _______ _______ _______ _____ _____    ______ ____
DOCKED: ROOT
DOCKED: ATOM      1  C   UNL     1     136.058  70.106 222.299 -0.07 -0.00    +0.031 C  
DOCKED: ENDROOT
DOCKED: BRANCH   1   2
DOCKED: ATOM      2  C   UNL     1     137.215  70.953 221.840 -0.09 -0.00    +0.025 C  
DOCKED: BRANCH   2   3
DOCKED: ATOM      3  C   UNL     1     137.560  72.094 222.451 -0.11 -0.05    +0.176 C  
DOCKED: BRANCH   3   4
DOCKED: ATOM      4  O   UNL     1     136.694  72.676 223.378 -0.01 +0.18    -0.503 OA 
DOCKED: ATOM      5  H   UNL     1     136.934  73.528 223.868 -0.48 -0.21    +0.293 HD 
DOCKED: ENDBRANCH   3   4
DOCKED: BRANCH   3   6
DOCKED: ATOM      6  C   UNL     1     138.845  72.754 222.150 -0.11 -0.07    +0.282 A  
DOCKED: ATOM      7  N   UNL     1     139.103  74.063 222.345 -0.51 +0.03    -0.104 NA 
DOCKED: ATOM      8  O   UNL     1     139.897  72.131 221.676 -0.11 +0.07    -0.411 OA 
DOCKED: ATOM      9  N   UNL     1     140.363  74.253 221.982 -0.83 +0.01    -0.104 NA 
DOCKED: ATOM     10  C   UNL     1     140.822  73.053 221.578 -0.18 -0.03    +0.284 A  
DOCKED: BRANCH  10  11
DOCKED: ATOM     11  C   UNL     1     142.190  72.800 221.103 -0.15 -0.02    +0.199 A  
DOCKED: ATOM     12  N   UNL     1     142.555  71.532 220.776 -0.15 +0.02    -0.183 NA 
DOCKED: ATOM     13  N   UNL     1     143.100  73.812 221.013 -0.00 +0.08    -0.339 N  
DOCKED: ATOM     14  C   UNL     1     143.816  71.249 220.358 -0.11 -0.03    +0.309 A  
DOCKED: ATOM     15  C   UNL     1     144.372  73.568 220.599 -0.38 -0.03    +0.129 A  
DOCKED: ATOM     16  C   UNL     1     144.759  72.272 220.261 -0.27 -0.01    +0.206 A  
DOCKED: ATOM     17  H   UNL     1     142.835  74.790 221.268 -0.17 -0.07    +0.168 HD 
DOCKED: ATOM     18  O   UNL     1     144.127  70.065 220.063 -0.18 -0.02    -0.264 OA 
DOCKED: ATOM     19  F   UNL     1     146.027  72.018 219.849 -0.11 -0.11    -0.199 F  
DOCKED: ENDBRANCH  10  11
DOCKED: ENDBRANCH   3   6
DOCKED: ENDBRANCH   2   3
DOCKED: ENDBRANCH   1   2
DOCKED: BRANCH   1  20
DOCKED: ATOM     20  C   UNL     1     136.535  68.853 223.050 -0.16 -0.00    +0.005 C  
DOCKED: BRANCH  20  21
DOCKED: ATOM     21  C   UNL     1     137.517  67.995 222.216 -0.18 -0.00    +0.010 C  
DOCKED: BRANCH  21  22
DOCKED: ATOM     22  C   UNL     1     138.989  68.334 222.486 -0.15 -0.02    +0.100 C  
DOCKED: BRANCH  22  23
DOCKED: ATOM     23  C   UNL     1     139.210  68.766 223.909 -0.15 -0.04    +0.224 C  
DOCKED: ATOM     24  N   UNL     1     139.680  70.093 224.196 -0.14 +0.06    -0.326 N  
DOCKED: ATOM     25  O   UNL     1     138.932  67.965 224.843 -0.67 -0.00    -0.275 OA 
DOCKED: ATOM     26  H   UNL     1     139.657  70.792 223.420 +0.08 -0.03    +0.169 HD 
DOCKED: BRANCH  24  27
DOCKED: ATOM     27  C   UNL     1     140.069  70.561 225.501 -0.48 -0.01    +0.041 A  
DOCKED: ATOM     28  C   UNL     1     140.994  71.611 225.605 -0.54 -0.00    +0.026 A  
DOCKED: ATOM     29  C   UNL     1     139.594  69.951 226.679 -0.46 -0.00    +0.026 A  
DOCKED: ATOM     30  C   UNL     1     141.412  72.068 226.858 -0.75 -0.00    +0.002 A  
DOCKED: ATOM     31  C   UNL     1     140.012  70.414 227.930 -0.64 -0.00    +0.002 A  
DOCKED: ATOM     32  C   UNL     1     140.920  71.472 228.020 -0.80 -0.00    +0.000 A  
DOCKED: ENDBRANCH  24  27
DOCKED: ENDBRANCH  22  23
DOCKED: ENDBRANCH  21  22
DOCKED: ENDBRANCH  20  21
DOCKED: ENDBRANCH   1  20
DOCKED: TORSDOF 10
DOCKED: TER
DOCKED: ENDMDL
________________________________________________________________________________


    FINAL DOCKED STATE:
    ________________________


Run:   12 / 20
Time taken for this run:   0.037s

DOCKED: MODEL        12
DOCKED: USER    Run = 12
DOCKED: USER
DOCKED: USER    Estimated Free Energy of Binding    =  -5.33 kcal/mol  [=(1)+(2)+(3)-(4)]
DOCKED: USER
DOCKED: USER    (1) Final Intermolecular Energy     =  -8.31 kcal/mol
DOCKED: USER        vdW + Hbond + desolv Energy     =  -8.23 kcal/mol
DOCKED: USER        Electrostatic Energy            =  -0.08 kcal/mol
DOCKED: USER        Moving Ligand-Fixed Receptor    =  -8.31 kcal/mol
DOCKED: USER        Moving Ligand-Moving Receptor   =  +0.00 kcal/mol
DOCKED: USER    (2) Final Total Internal Energy     =  -3.68 kcal/mol
DOCKED: USER    (3) Torsional Free Energy           =  +2.98 kcal/mol
DOCKED: USER    (4) Unbound System's Energy         =  -3.68 kcal/mol
DOCKED: USER
DOCKED: USER
DOCKED: REMARK SMILES O=C(CCCC/C=C(\O)c1nnc(-c2nc(=O)c(F)c[nH]2)o1)Nc1ccccc1
DOCKED: REMARK SMILES IDX 6 1 7 2 8 3 9 4 10 6 11 7 22 8 12 9 13 10 14 11 15 12 21 13
DOCKED: REMARK SMILES IDX 16 14 20 15 18 16 17 18 19 19 5 20 4 21 3 22 2 23 23 24 1 25
DOCKED: REMARK SMILES IDX 24 27 25 28 29 29 26 30 28 31 27 32
DOCKED: REMARK H PARENT 9 5 21 17 23 26
DOCKED: USER                              x       y       z     vdW  Elec       q    Type
DOCKED: USER                           _______ _______ _______ _____ _____    ______ ____
DOCKED: ROOT
DOCKED: ATOM      1  C   UNL     1     141.540  73.689 219.688 -0.14 -0.01    +0.031 C  
DOCKED: ENDROOT
DOCKED: BRANCH   1   2
DOCKED: ATOM      2  C   UNL     1     140.265  74.293 220.214 -0.14 -0.01    +0.025 C  
DOCKED: BRANCH   2   3
DOCKED: ATOM      3  C   UNL     1     140.043  74.484 221.521 -0.23 -0.03    +0.176 C  
DOCKED: BRANCH   3   4
DOCKED: ATOM      4  O   UNL     1     139.803  73.389 222.352 -0.67 +0.07    -0.503 OA 
DOCKED: ATOM      5  H   UNL     1     139.174  73.449 223.143 -0.43 -0.14    +0.293 HD 
DOCKED: ENDBRANCH   3   4
DOCKED: BRANCH   3   6
DOCKED: ATOM      6  C   UNL     1     140.039  75.842 222.097 -0.21 -0.05    +0.282 A  
DOCKED: ATOM      7  N   UNL     1     141.087  76.418 222.720 -0.28 +0.03    -0.104 NA 
DOCKED: ATOM      8  O   UNL     1     139.014  76.658 222.045 -0.14 +0.09    -0.411 OA 
DOCKED: ATOM      9  N   UNL     1     140.695  77.636 223.062 -0.28 +0.03    -0.104 NA 
DOCKED: ATOM     10  C   UNL     1     139.423  77.754 222.635 -0.18 -0.06    +0.284 A  
DOCKED: BRANCH  10  11
DOCKED: ATOM     11  C   UNL     1     138.599  78.961 222.792 -0.20 -0.03    +0.199 A  
DOCKED: ATOM     12  N   UNL     1     138.722  79.707 223.922 -0.26 +0.02    -0.183 NA 
DOCKED: ATOM     13  N   UNL     1     137.698  79.325 221.834 -0.04 +0.06    -0.339 N  
DOCKED: ATOM     14  C   UNL     1     137.961  80.814 224.120 -0.22 -0.03    +0.309 A  
DOCKED: ATOM     15  C   UNL     1     136.919  80.427 221.997 -0.08 -0.02    +0.129 A  
DOCKED: ATOM     16  C   UNL     1     137.034  81.200 223.152 -0.13 -0.02    +0.206 A  
DOCKED: ATOM     17  H   UNL     1     137.588  78.757 220.964 +0.03 -0.03    +0.168 HD 
DOCKED: ATOM     18  O   UNL     1     138.095  81.485 225.177 -0.28 +0.02    -0.264 OA 
DOCKED: ATOM     19  F   UNL     1     136.260  82.301 223.324 -0.02 +0.02    -0.199 F  
DOCKED: ENDBRANCH  10  11
DOCKED: ENDBRANCH   3   6
DOCKED: ENDBRANCH   2   3
DOCKED: ENDBRANCH   1   2
DOCKED: BRANCH   1  20
DOCKED: ATOM     20  C   UNL     1     142.388  74.723 218.932 -0.18 -0.00    +0.005 C  
DOCKED: BRANCH  20  21
DOCKED: ATOM     21  C   UNL     1     142.502  76.069 219.690 -0.33 -0.01    +0.010 C  
DOCKED: BRANCH  21  22
DOCKED: ATOM     22  C   UNL     1     141.976  77.261 218.878 -0.23 -0.06    +0.100 C  
DOCKED: BRANCH  22  23
DOCKED: ATOM     23  C   UNL     1     142.109  78.553 219.635 -0.07 -0.15    +0.224 C  
DOCKED: ATOM     24  N   UNL     1     142.157  78.548 221.071 -0.10 +0.23    -0.326 N  
DOCKED: ATOM     25  O   UNL     1     142.226  79.631 218.991 -0.23 +0.19    -0.275 OA 
DOCKED: ATOM     26  H   UNL     1     142.307  77.629 221.546 -0.43 -0.15    +0.169 HD 
DOCKED: BRANCH  24  27
DOCKED: ATOM     27  C   UNL     1     142.129  79.727 221.897 -0.45 -0.02    +0.041 A  
DOCKED: ATOM     28  C   UNL     1     142.916  79.769 223.058 -0.61 -0.01    +0.026 A  
DOCKED: ATOM     29  C   UNL     1     141.284  80.816 221.605 -0.37 -0.01    +0.026 A  
DOCKED: ATOM     30  C   UNL     1     142.888  80.889 223.894 -0.67 -0.00    +0.002 A  
DOCKED: ATOM     31  C   UNL     1     141.263  81.936 222.442 -0.41 -0.00    +0.002 A  
DOCKED: ATOM     32  C   UNL     1     142.065  81.973 223.586 -0.24 -0.00    +0.000 A  
DOCKED: ENDBRANCH  24  27
DOCKED: ENDBRANCH  22  23
DOCKED: ENDBRANCH  21  22
DOCKED: ENDBRANCH  20  21
DOCKED: ENDBRANCH   1  20
DOCKED: TORSDOF 10
DOCKED: TER
DOCKED: ENDMDL
________________________________________________________________________________


    FINAL DOCKED STATE:
    ________________________


Run:   13 / 20
Time taken for this run:   0.037s

DOCKED: MODEL        13
DOCKED: USER    Run = 13
DOCKED: USER
DOCKED: USER    Estimated Free Energy of Binding    =  -5.04 kcal/mol  [=(1)+(2)+(3)-(4)]
DOCKED: USER
DOCKED: USER    (1) Final Intermolecular Energy     =  -8.02 kcal/mol
DOCKED: USER        vdW + Hbond + desolv Energy     =  -7.84 kcal/mol
DOCKED: USER        Electrostatic Energy            =  -0.18 kcal/mol
DOCKED: USER        Moving Ligand-Fixed Receptor    =  -8.02 kcal/mol
DOCKED: USER        Moving Ligand-Moving Receptor   =  +0.00 kcal/mol
DOCKED: USER    (2) Final Total Internal Energy     =  -3.86 kcal/mol
DOCKED: USER    (3) Torsional Free Energy           =  +2.98 kcal/mol
DOCKED: USER    (4) Unbound System's Energy         =  -3.86 kcal/mol
DOCKED: USER
DOCKED: USER
DOCKED: REMARK SMILES O=C(CCCC/C=C(\O)c1nnc(-c2nc(=O)c(F)c[nH]2)o1)Nc1ccccc1
DOCKED: REMARK SMILES IDX 6 1 7 2 8 3 9 4 10 6 11 7 22 8 12 9 13 10 14 11 15 12 21 13
DOCKED: REMARK SMILES IDX 16 14 20 15 18 16 17 18 19 19 5 20 4 21 3 22 2 23 23 24 1 25
DOCKED: REMARK SMILES IDX 24 27 25 28 29 29 26 30 28 31 27 32
DOCKED: REMARK H PARENT 9 5 21 17 23 26
DOCKED: USER                              x       y       z     vdW  Elec       q    Type
DOCKED: USER                           _______ _______ _______ _____ _____    ______ ____
DOCKED: ROOT
DOCKED: ATOM      1  C   UNL     1     142.175  74.858 220.449 -0.29 -0.01    +0.031 C  
DOCKED: ENDROOT
DOCKED: BRANCH   1   2
DOCKED: ATOM      2  C   UNL     1     141.427  75.753 221.401 -0.25 -0.01    +0.025 C  
DOCKED: BRANCH   2   3
DOCKED: ATOM      3  C   UNL     1     140.268  75.393 221.970 -0.22 -0.03    +0.176 C  
DOCKED: BRANCH   3   4
DOCKED: ATOM      4  O   UNL     1     140.024  74.050 222.259 -0.74 +0.02    -0.503 OA 
DOCKED: ATOM      5  H   UNL     1     139.220  73.761 222.802 -0.44 -0.10    +0.293 HD 
DOCKED: ENDBRANCH   3   4
DOCKED: BRANCH   3   6
DOCKED: ATOM      6  C   UNL     1     139.238  76.400 222.289 -0.22 -0.06    +0.282 A  
DOCKED: ATOM      7  N   UNL     1     137.970  76.118 222.650 -0.25 +0.03    -0.104 NA 
DOCKED: ATOM      8  O   UNL     1     139.450  77.694 222.282 -0.13 +0.09    -0.411 OA 
DOCKED: ATOM      9  N   UNL     1     137.379  77.281 222.876 -0.19 +0.02    -0.104 NA 
DOCKED: ATOM     10  C   UNL     1     138.309  78.226 222.644 -0.15 -0.05    +0.284 A  
DOCKED: BRANCH  10  11
DOCKED: ATOM     11  C   UNL     1     138.085  79.671 222.793 -0.18 -0.03    +0.199 A  
DOCKED: ATOM     12  N   UNL     1     137.804  80.177 224.023 -0.24 +0.02    -0.183 NA 
DOCKED: ATOM     13  N   UNL     1     138.128  80.503 221.712 -0.03 +0.06    -0.339 N  
DOCKED: ATOM     14  C   UNL     1     137.564  81.502 224.201 -0.18 -0.03    +0.309 A  
DOCKED: ATOM     15  C   UNL     1     137.893  81.835 221.851 -0.11 -0.02    +0.129 A  
DOCKED: ATOM     16  C   UNL     1     137.603  82.366 223.107 -0.09 -0.02    +0.206 A  
DOCKED: ATOM     17  H   UNL     1     138.336  80.126 220.759 +0.04 -0.03    +0.168 HD 
DOCKED: ATOM     18  O   UNL     1     137.305  81.943 225.352 -0.28 +0.02    -0.264 OA 
DOCKED: ATOM     19  F   UNL     1     137.366  83.694 223.255 -0.02 +0.01    -0.199 F  
DOCKED: ENDBRANCH  10  11
DOCKED: ENDBRANCH   3   6
DOCKED: ENDBRANCH   2   3
DOCKED: ENDBRANCH   1   2
DOCKED: BRANCH   1  20
DOCKED: ATOM     20  C   UNL     1     141.974  75.290 218.988 -0.17 -0.00    +0.005 C  
DOCKED: BRANCH  20  21
DOCKED: ATOM     21  C   UNL     1     140.677  76.111 218.783 -0.09 -0.00    +0.010 C  
DOCKED: BRANCH  21  22
DOCKED: ATOM     22  C   UNL     1     140.944  77.545 218.305 -0.09 -0.04    +0.100 C  
DOCKED: BRANCH  22  23
DOCKED: ATOM     23  C   UNL     1     140.816  78.539 219.426 -0.10 -0.10    +0.224 C  
DOCKED: ATOM     24  N   UNL     1     141.925  78.781 220.307 -0.10 +0.21    -0.326 N  
DOCKED: ATOM     25  O   UNL     1     139.742  79.189 219.549 -0.03 +0.09    -0.275 OA 
DOCKED: ATOM     26  H   UNL     1     142.859  78.413 220.020 -0.32 -0.18    +0.169 HD 
DOCKED: BRANCH  24  27
DOCKED: ATOM     27  C   UNL     1     141.865  79.591 221.496 -0.39 -0.02    +0.041 A  
DOCKED: ATOM     28  C   UNL     1     142.142  79.003 222.740 -0.53 -0.01    +0.026 A  
DOCKED: ATOM     29  C   UNL     1     141.475  80.944 221.452 -0.39 -0.01    +0.026 A  
DOCKED: ATOM     30  C   UNL     1     142.065  79.757 223.915 -0.60 -0.00    +0.002 A  
DOCKED: ATOM     31  C   UNL     1     141.404  81.695 222.629 -0.47 -0.00    +0.002 A  
DOCKED: ATOM     32  C   UNL     1     141.699  81.103 223.860 -0.57 -0.00    +0.000 A  
DOCKED: ENDBRANCH  24  27
DOCKED: ENDBRANCH  22  23
DOCKED: ENDBRANCH  21  22
DOCKED: ENDBRANCH  20  21
DOCKED: ENDBRANCH   1  20
DOCKED: TORSDOF 10
DOCKED: TER
DOCKED: ENDMDL
________________________________________________________________________________


    FINAL DOCKED STATE:
    ________________________


Run:   14 / 20
Time taken for this run:   0.037s

DOCKED: MODEL        14
DOCKED: USER    Run = 14
DOCKED: USER
DOCKED: USER    Estimated Free Energy of Binding    =  -7.14 kcal/mol  [=(1)+(2)+(3)-(4)]
DOCKED: USER
DOCKED: USER    (1) Final Intermolecular Energy     = -10.12 kcal/mol
DOCKED: USER        vdW + Hbond + desolv Energy     = -10.15 kcal/mol
DOCKED: USER        Electrostatic Energy            =  +0.03 kcal/mol
DOCKED: USER        Moving Ligand-Fixed Receptor    = -10.12 kcal/mol
DOCKED: USER        Moving Ligand-Moving Receptor   =  +0.00 kcal/mol
DOCKED: USER    (2) Final Total Internal Energy     =  -2.33 kcal/mol
DOCKED: USER    (3) Torsional Free Energy           =  +2.98 kcal/mol
DOCKED: USER    (4) Unbound System's Energy         =  -2.33 kcal/mol
DOCKED: USER
DOCKED: USER
DOCKED: REMARK SMILES O=C(CCCC/C=C(\O)c1nnc(-c2nc(=O)c(F)c[nH]2)o1)Nc1ccccc1
DOCKED: REMARK SMILES IDX 6 1 7 2 8 3 9 4 10 6 11 7 22 8 12 9 13 10 14 11 15 12 21 13
DOCKED: REMARK SMILES IDX 16 14 20 15 18 16 17 18 19 19 5 20 4 21 3 22 2 23 23 24 1 25
DOCKED: REMARK SMILES IDX 24 27 25 28 29 29 26 30 28 31 27 32
DOCKED: REMARK H PARENT 9 5 21 17 23 26
DOCKED: USER                              x       y       z     vdW  Elec       q    Type
DOCKED: USER                           _______ _______ _______ _____ _____    ______ ____
DOCKED: ROOT
DOCKED: ATOM      1  C   UNL     1     142.323  73.295 220.031 -0.20 -0.01    +0.031 C  
DOCKED: ENDROOT
DOCKED: BRANCH   1   2
DOCKED: ATOM      2  C   UNL     1     140.915  73.679 220.399 -0.18 -0.00    +0.025 C  
DOCKED: BRANCH   2   3
DOCKED: ATOM      3  C   UNL     1     140.477  73.690 221.665 -0.22 -0.02    +0.176 C  
DOCKED: BRANCH   3   4
DOCKED: ATOM      4  O   UNL     1     140.204  74.905 222.295 -0.58 +0.01    -0.503 OA 
DOCKED: ATOM      5  H   UNL     1     139.577  74.964 223.087 -0.36 -0.01    +0.293 HD 
DOCKED: ENDBRANCH   3   4
DOCKED: BRANCH   3   6
DOCKED: ATOM      6  C   UNL     1     140.288  72.431 222.410 -0.21 -0.03    +0.282 A  
DOCKED: ATOM      7  N   UNL     1     139.956  71.249 221.854 -0.16 +0.02    -0.104 NA 
DOCKED: ATOM      8  O   UNL     1     140.446  72.315 223.707 -0.27 +0.04    -0.411 OA 
DOCKED: ATOM      9  N   UNL     1     139.911  70.370 222.843 -0.16 +0.02    -0.104 NA 
DOCKED: ATOM     10  C   UNL     1     140.217  71.051 223.964 -0.25 -0.04    +0.284 A  
DOCKED: BRANCH  10  11
DOCKED: ATOM     11  C   UNL     1     140.301  70.455 225.306 -0.36 -0.03    +0.199 A  
DOCKED: ATOM     12  N   UNL     1     140.605  71.249 226.367 -0.44 +0.03    -0.183 NA 
DOCKED: ATOM     13  N   UNL     1     140.105  69.118 225.493 -0.17 +0.06    -0.339 N  
DOCKED: ATOM     14  C   UNL     1     140.719  70.736 227.619 -0.40 -0.06    +0.309 A  
DOCKED: ATOM     15  C   UNL     1     140.210  68.568 226.732 -0.51 -0.02    +0.129 A  
DOCKED: ATOM     16  C   UNL     1     140.522  69.371 227.828 -0.45 -0.04    +0.206 A  
DOCKED: ATOM     17  H   UNL     1     139.877  68.496 224.685 +0.02 -0.03    +0.168 HD 
DOCKED: ATOM     18  O   UNL     1     141.003  71.494 228.583 -0.50 +0.06    -0.264 OA 
DOCKED: ATOM     19  F   UNL     1     140.632  68.831 229.069 -0.12 +0.04    -0.199 F  
DOCKED: ENDBRANCH  10  11
DOCKED: ENDBRANCH   3   6
DOCKED: ENDBRANCH   2   3
DOCKED: ENDBRANCH   1   2
DOCKED: BRANCH   1  20
DOCKED: ATOM     20  C   UNL     1     143.337  74.358 220.480 -0.36 -0.00    +0.005 C  
DOCKED: BRANCH  20  21
DOCKED: ATOM     21  C   UNL     1     143.587  75.438 219.399 -0.36 -0.01    +0.010 C  
DOCKED: BRANCH  21  22
DOCKED: ATOM     22  C   UNL     1     142.307  76.172 218.977 -0.23 -0.05    +0.100 C  
DOCKED: BRANCH  22  23
DOCKED: ATOM     23  C   UNL     1     142.052  77.384 219.829 -0.21 -0.14    +0.224 C  
DOCKED: ATOM     24  N   UNL     1     141.703  77.232 221.215 -0.04 +0.20    -0.326 N  
DOCKED: ATOM     25  O   UNL     1     142.195  78.530 219.323 -0.21 +0.19    -0.275 OA 
DOCKED: ATOM     26  H   UNL     1     141.840  76.291 221.647 -0.48 -0.11    +0.169 HD 
DOCKED: BRANCH  24  27
DOCKED: ATOM     27  C   UNL     1     141.291  78.307 222.079 -0.40 -0.02    +0.041 A  
DOCKED: ATOM     28  C   UNL     1     142.213  79.314 222.408 -0.53 -0.01    +0.026 A  
DOCKED: ATOM     29  C   UNL     1     140.006  78.344 222.656 -0.37 -0.01    +0.026 A  
DOCKED: ATOM     30  C   UNL     1     141.850  80.355 223.268 -0.60 -0.00    +0.002 A  
DOCKED: ATOM     31  C   UNL     1     139.646  79.390 223.511 -0.43 -0.00    +0.002 A  
DOCKED: ATOM     32  C   UNL     1     140.567  80.395 223.816 -0.44 -0.00    +0.000 A  
DOCKED: ENDBRANCH  24  27
DOCKED: ENDBRANCH  22  23
DOCKED: ENDBRANCH  21  22
DOCKED: ENDBRANCH  20  21
DOCKED: ENDBRANCH   1  20
DOCKED: TORSDOF 10
DOCKED: TER
DOCKED: ENDMDL
________________________________________________________________________________


    FINAL DOCKED STATE:
    ________________________


Run:   15 / 20
Time taken for this run:   0.037s

DOCKED: MODEL        15
DOCKED: USER    Run = 15
DOCKED: USER
DOCKED: USER    Estimated Free Energy of Binding    =  -6.95 kcal/mol  [=(1)+(2)+(3)-(4)]
DOCKED: USER
DOCKED: USER    (1) Final Intermolecular Energy     =  -9.93 kcal/mol
DOCKED: USER        vdW + Hbond + desolv Energy     =  -9.62 kcal/mol
DOCKED: USER        Electrostatic Energy            =  -0.31 kcal/mol
DOCKED: USER        Moving Ligand-Fixed Receptor    =  -9.93 kcal/mol
DOCKED: USER        Moving Ligand-Moving Receptor   =  +0.00 kcal/mol
DOCKED: USER    (2) Final Total Internal Energy     =  -1.96 kcal/mol
DOCKED: USER    (3) Torsional Free Energy           =  +2.98 kcal/mol
DOCKED: USER    (4) Unbound System's Energy         =  -1.96 kcal/mol
DOCKED: USER
DOCKED: USER
DOCKED: REMARK SMILES O=C(CCCC/C=C(\O)c1nnc(-c2nc(=O)c(F)c[nH]2)o1)Nc1ccccc1
DOCKED: REMARK SMILES IDX 6 1 7 2 8 3 9 4 10 6 11 7 22 8 12 9 13 10 14 11 15 12 21 13
DOCKED: REMARK SMILES IDX 16 14 20 15 18 16 17 18 19 19 5 20 4 21 3 22 2 23 23 24 1 25
DOCKED: REMARK SMILES IDX 24 27 25 28 29 29 26 30 28 31 27 32
DOCKED: REMARK H PARENT 9 5 21 17 23 26
DOCKED: USER                              x       y       z     vdW  Elec       q    Type
DOCKED: USER                           _______ _______ _______ _____ _____    ______ ____
DOCKED: ROOT
DOCKED: ATOM      1  C   UNL     1     136.276  70.370 221.991 -0.06 -0.01    +0.031 C  
DOCKED: ENDROOT
DOCKED: BRANCH   1   2
DOCKED: ATOM      2  C   UNL     1     137.337  71.247 221.381 -0.07 -0.00    +0.025 C  
DOCKED: BRANCH   2   3
DOCKED: ATOM      3  C   UNL     1     137.774  72.368 221.971 -0.11 -0.04    +0.176 C  
DOCKED: BRANCH   3   4
DOCKED: ATOM      4  O   UNL     1     136.897  73.139 222.734 -0.04 +0.18    -0.503 OA 
DOCKED: ATOM      5  H   UNL     1     137.232  73.797 223.426 -0.45 -0.22    +0.293 HD 
DOCKED: ENDBRANCH   3   4
DOCKED: BRANCH   3   6
DOCKED: ATOM      6  C   UNL     1     139.174  72.806 221.817 -0.14 -0.06    +0.282 A  
DOCKED: ATOM      7  N   UNL     1     139.677  73.962 222.295 -0.80 +0.01    -0.104 NA 
DOCKED: ATOM      8  O   UNL     1     140.101  72.102 221.213 -0.07 +0.07    -0.411 OA 
DOCKED: ATOM      9  N   UNL     1     140.963  73.970 221.977 -0.69 +0.00    -0.104 NA 
DOCKED: ATOM     10  C   UNL     1     141.193  72.819 221.317 -0.16 -0.03    +0.284 A  
DOCKED: BRANCH  10  11
DOCKED: ATOM     11  C   UNL     1     142.502  72.405 220.792 -0.17 -0.03    +0.199 A  
DOCKED: ATOM     12  N   UNL     1     143.546  73.275 220.849 -0.22 +0.04    -0.183 NA 
DOCKED: ATOM     13  N   UNL     1     142.675  71.176 220.227 -0.07 +0.04    -0.339 N  
DOCKED: ATOM     14  C   UNL     1     144.765  72.945 220.352 -0.27 -0.03    +0.309 A  
DOCKED: ATOM     15  C   UNL     1     143.882  70.809 219.719 -0.18 -0.00    +0.129 A  
DOCKED: ATOM     16  C   UNL     1     144.959  71.692 219.770 -0.20 +0.03    +0.206 A  
DOCKED: ATOM     17  H   UNL     1     141.881  70.500 220.171 +0.04 -0.02    +0.168 HD 
DOCKED: ATOM     18  O   UNL     1     145.713  73.771 220.417 -0.47 +0.03    -0.264 OA 
DOCKED: ATOM     19  F   UNL     1     146.167  71.335 219.264 -0.05 -0.21    -0.199 F  
DOCKED: ENDBRANCH  10  11
DOCKED: ENDBRANCH   3   6
DOCKED: ENDBRANCH   2   3
DOCKED: ENDBRANCH   1   2
DOCKED: BRANCH   1  20
DOCKED: ATOM     20  C   UNL     1     136.885  69.291 222.900 -0.16 -0.00    +0.005 C  
DOCKED: BRANCH  20  21
DOCKED: ATOM     21  C   UNL     1     138.138  68.627 222.278 -0.19 -0.00    +0.010 C  
DOCKED: BRANCH  21  22
DOCKED: ATOM     22  C   UNL     1     138.794  67.596 223.207 -0.19 -0.01    +0.100 C  
DOCKED: BRANCH  22  23
DOCKED: ATOM     23  C   UNL     1     139.195  68.205 224.521 -0.21 -0.02    +0.224 C  
DOCKED: ATOM     24  N   UNL     1     139.466  69.613 224.613 -0.14 +0.05    -0.326 N  
DOCKED: ATOM     25  O   UNL     1     139.243  67.472 225.547 -0.90 -0.01    -0.275 OA 
DOCKED: ATOM     26  H   UNL     1     139.175  70.214 223.809 +0.08 -0.03    +0.169 HD 
DOCKED: BRANCH  24  27
DOCKED: ATOM     27  C   UNL     1     140.001  70.271 225.776 -0.47 -0.01    +0.041 A  
DOCKED: ATOM     28  C   UNL     1     139.610  69.834 227.052 -0.50 -0.00    +0.026 A  
DOCKED: ATOM     29  C   UNL     1     140.859  71.384 225.669 -0.59 -0.00    +0.026 A  
DOCKED: ATOM     30  C   UNL     1     140.091  70.472 228.199 -0.63 -0.00    +0.002 A  
DOCKED: ATOM     31  C   UNL     1     141.341  72.016 226.820 -0.74 -0.00    +0.002 A  
DOCKED: ATOM     32  C   UNL     1     140.958  71.560 228.084 -0.80 -0.00    +0.000 A  
DOCKED: ENDBRANCH  24  27
DOCKED: ENDBRANCH  22  23
DOCKED: ENDBRANCH  21  22
DOCKED: ENDBRANCH  20  21
DOCKED: ENDBRANCH   1  20
DOCKED: TORSDOF 10
DOCKED: TER
DOCKED: ENDMDL
________________________________________________________________________________


    FINAL DOCKED STATE:
    ________________________


Run:   16 / 20
Time taken for this run:   0.037s

DOCKED: MODEL        16
DOCKED: USER    Run = 16
DOCKED: USER
DOCKED: USER    Estimated Free Energy of Binding    =  -6.78 kcal/mol  [=(1)+(2)+(3)-(4)]
DOCKED: USER
DOCKED: USER    (1) Final Intermolecular Energy     =  -9.77 kcal/mol
DOCKED: USER        vdW + Hbond + desolv Energy     =  -9.75 kcal/mol
DOCKED: USER        Electrostatic Energy            =  -0.01 kcal/mol
DOCKED: USER        Moving Ligand-Fixed Receptor    =  -9.77 kcal/mol
DOCKED: USER        Moving Ligand-Moving Receptor   =  +0.00 kcal/mol
DOCKED: USER    (2) Final Total Internal Energy     =  -2.28 kcal/mol
DOCKED: USER    (3) Torsional Free Energy           =  +2.98 kcal/mol
DOCKED: USER    (4) Unbound System's Energy         =  -2.28 kcal/mol
DOCKED: USER
DOCKED: USER
DOCKED: REMARK SMILES O=C(CCCC/C=C(\O)c1nnc(-c2nc(=O)c(F)c[nH]2)o1)Nc1ccccc1
DOCKED: REMARK SMILES IDX 6 1 7 2 8 3 9 4 10 6 11 7 22 8 12 9 13 10 14 11 15 12 21 13
DOCKED: REMARK SMILES IDX 16 14 20 15 18 16 17 18 19 19 5 20 4 21 3 22 2 23 23 24 1 25
DOCKED: REMARK SMILES IDX 24 27 25 28 29 29 26 30 28 31 27 32
DOCKED: REMARK H PARENT 9 5 21 17 23 26
DOCKED: USER                              x       y       z     vdW  Elec       q    Type
DOCKED: USER                           _______ _______ _______ _____ _____    ______ ____
DOCKED: ROOT
DOCKED: ATOM      1  C   UNL     1     141.333  72.783 219.642 -0.10 -0.01    +0.031 C  
DOCKED: ENDROOT
DOCKED: BRANCH   1   2
DOCKED: ATOM      2  C   UNL     1     140.351  73.707 220.311 -0.14 -0.00    +0.025 C  
DOCKED: BRANCH   2   3
DOCKED: ATOM      3  C   UNL     1     140.111  73.675 221.629 -0.22 -0.02    +0.176 C  
DOCKED: BRANCH   3   4
DOCKED: ATOM      4  O   UNL     1     139.918  74.866 222.329 -0.62 +0.03    -0.503 OA 
DOCKED: ATOM      5  H   UNL     1     139.330  74.910 223.152 -0.44 -0.06    +0.293 HD 
DOCKED: ENDBRANCH   3   4
DOCKED: BRANCH   3   6
DOCKED: ATOM      6  C   UNL     1     140.057  72.393 222.356 -0.20 -0.04    +0.282 A  
DOCKED: ATOM      7  N   UNL     1     139.808  71.195 221.789 -0.15 +0.02    -0.104 NA 
DOCKED: ATOM      8  O   UNL     1     140.272  72.270 223.644 -0.31 +0.06    -0.411 OA 
DOCKED: ATOM      9  N   UNL     1     139.875  70.300 222.762 -0.15 +0.02    -0.104 NA 
DOCKED: ATOM     10  C   UNL     1     140.161  70.986 223.885 -0.23 -0.05    +0.284 A  
DOCKED: BRANCH  10  11
DOCKED: ATOM     11  C   UNL     1     140.343  70.379 225.211 -0.35 -0.03    +0.199 A  
DOCKED: ATOM     12  N   UNL     1     140.697  71.168 226.260 -0.43 +0.03    -0.183 NA 
DOCKED: ATOM     13  N   UNL     1     140.189  69.036 225.395 -0.15 +0.06    -0.339 N  
DOCKED: ATOM     14  C   UNL     1     140.903  70.645 227.496 -0.37 -0.05    +0.309 A  
DOCKED: ATOM     15  C   UNL     1     140.386  68.476 226.618 -0.52 -0.03    +0.129 A  
DOCKED: ATOM     16  C   UNL     1     140.750  69.274 227.701 -0.44 -0.04    +0.206 A  
DOCKED: ATOM     17  H   UNL     1     139.924  68.417 224.596 +0.01 -0.04    +0.168 HD 
DOCKED: ATOM     18  O   UNL     1     141.230  71.399 228.449 -0.52 +0.06    -0.264 OA 
DOCKED: ATOM     19  F   UNL     1     140.950  68.723 228.926 -0.16 +0.04    -0.199 F  
DOCKED: ENDBRANCH  10  11
DOCKED: ENDBRANCH   3   6
DOCKED: ENDBRANCH   2   3
DOCKED: ENDBRANCH   1   2
DOCKED: BRANCH   1  20
DOCKED: ATOM     20  C   UNL     1     142.780  73.271 219.815 -0.22 -0.00    +0.005 C  
DOCKED: BRANCH  20  21
DOCKED: ATOM     21  C   UNL     1     142.861  74.679 220.455 -0.32 -0.00    +0.010 C  
DOCKED: BRANCH  21  22
DOCKED: ATOM     22  C   UNL     1     142.465  75.802 219.487 -0.26 -0.05    +0.100 C  
DOCKED: BRANCH  22  23
DOCKED: ATOM     23  C   UNL     1     141.883  76.983 220.211 -0.20 -0.13    +0.224 C  
DOCKED: ATOM     24  N   UNL     1     141.466  76.858 221.581 -0.07 +0.18    -0.326 N  
DOCKED: ATOM     25  O   UNL     1     141.811  78.093 219.616 -0.17 +0.16    -0.275 OA 
DOCKED: ATOM     26  H   UNL     1     141.771  76.005 222.102 -0.48 -0.09    +0.169 HD 
DOCKED: BRANCH  24  27
DOCKED: ATOM     27  C   UNL     1     140.760  77.872 222.320 -0.41 -0.01    +0.041 A  
DOCKED: ATOM     28  C   UNL     1     141.490  78.796 223.084 -0.54 -0.01    +0.026 A  
DOCKED: ATOM     29  C   UNL     1     139.353  77.924 222.347 -0.30 -0.01    +0.026 A  
DOCKED: ATOM     30  C   UNL     1     140.831  79.774 223.834 -0.51 -0.00    +0.002 A  
DOCKED: ATOM     31  C   UNL     1     138.698  78.908 223.095 -0.32 -0.00    +0.002 A  
DOCKED: ATOM     32  C   UNL     1     139.436  79.832 223.838 -0.44 -0.00    +0.000 A  
DOCKED: ENDBRANCH  24  27
DOCKED: ENDBRANCH  22  23
DOCKED: ENDBRANCH  21  22
DOCKED: ENDBRANCH  20  21
DOCKED: ENDBRANCH   1  20
DOCKED: TORSDOF 10
DOCKED: TER
DOCKED: ENDMDL
________________________________________________________________________________


    FINAL DOCKED STATE:
    ________________________


Run:   17 / 20
Time taken for this run:   0.037s

DOCKED: MODEL        17
DOCKED: USER    Run = 17
DOCKED: USER
DOCKED: USER    Estimated Free Energy of Binding    =  -7.16 kcal/mol  [=(1)+(2)+(3)-(4)]
DOCKED: USER
DOCKED: USER    (1) Final Intermolecular Energy     = -10.14 kcal/mol
DOCKED: USER        vdW + Hbond + desolv Energy     =  -9.88 kcal/mol
DOCKED: USER        Electrostatic Energy            =  -0.27 kcal/mol
DOCKED: USER        Moving Ligand-Fixed Receptor    = -10.14 kcal/mol
DOCKED: USER        Moving Ligand-Moving Receptor   =  +0.00 kcal/mol
DOCKED: USER    (2) Final Total Internal Energy     =  -2.34 kcal/mol
DOCKED: USER    (3) Torsional Free Energy           =  +2.98 kcal/mol
DOCKED: USER    (4) Unbound System's Energy         =  -2.34 kcal/mol
DOCKED: USER
DOCKED: USER
DOCKED: REMARK SMILES O=C(CCCC/C=C(\O)c1nnc(-c2nc(=O)c(F)c[nH]2)o1)Nc1ccccc1
DOCKED: REMARK SMILES IDX 6 1 7 2 8 3 9 4 10 6 11 7 22 8 12 9 13 10 14 11 15 12 21 13
DOCKED: REMARK SMILES IDX 16 14 20 15 18 16 17 18 19 19 5 20 4 21 3 22 2 23 23 24 1 25
DOCKED: REMARK SMILES IDX 24 27 25 28 29 29 26 30 28 31 27 32
DOCKED: REMARK H PARENT 9 5 21 17 23 26
DOCKED: USER                              x       y       z     vdW  Elec       q    Type
DOCKED: USER                           _______ _______ _______ _____ _____    ______ ____
DOCKED: ROOT
DOCKED: ATOM      1  C   UNL     1     140.486  70.721 220.817 -0.13 -0.00    +0.031 C  
DOCKED: ENDROOT
DOCKED: BRANCH   1   2
DOCKED: ATOM      2  C   UNL     1     140.089  72.171 220.735 -0.14 -0.00    +0.025 C  
DOCKED: BRANCH   2   3
DOCKED: ATOM      3  C   UNL     1     140.254  73.024 221.756 -0.23 -0.02    +0.176 C  
DOCKED: BRANCH   3   4
DOCKED: ATOM      4  O   UNL     1     139.898  72.638 223.048 -0.42 +0.09    -0.503 OA 
DOCKED: ATOM      5  H   UNL     1     139.021  72.923 223.466 -0.33 -0.18    +0.293 HD 
DOCKED: ENDBRANCH   3   4
DOCKED: BRANCH   3   6
DOCKED: ATOM      6  C   UNL     1     140.801  74.375 221.530 -0.20 -0.04    +0.282 A  
DOCKED: ATOM      7  N   UNL     1     141.606  74.719 220.504 -0.20 +0.03    -0.104 NA 
DOCKED: ATOM      8  O   UNL     1     140.544  75.408 222.296 -0.46 +0.04    -0.411 OA 
DOCKED: ATOM      9  N   UNL     1     141.851  76.014 220.640 -0.22 +0.05    -0.104 NA 
DOCKED: ATOM     10  C   UNL     1     141.188  76.407 221.744 -0.13 -0.12    +0.284 A  
DOCKED: BRANCH  10  11
DOCKED: ATOM     11  C   UNL     1     141.170  77.783 222.261 -0.29 -0.09    +0.199 A  
DOCKED: ATOM     12  N   UNL     1     140.125  78.191 223.029 -0.24 +0.04    -0.183 NA 
DOCKED: ATOM     13  N   UNL     1     142.171  78.660 221.958 -0.17 +0.22    -0.339 N  
DOCKED: ATOM     14  C   UNL     1     140.054  79.462 223.504 -0.25 -0.05    +0.309 A  
DOCKED: ATOM     15  C   UNL     1     142.135  79.940 222.416 -0.46 -0.05    +0.129 A  
DOCKED: ATOM     16  C   UNL     1     141.068  80.370 223.203 -0.36 -0.04    +0.206 A  
DOCKED: ATOM     17  H   UNL     1     142.976  78.362 221.363 -0.46 -0.19    +0.168 HD 
DOCKED: ATOM     18  O   UNL     1     139.074  79.812 224.212 -0.32 +0.03    -0.264 OA 
DOCKED: ATOM     19  F   UNL     1     141.024  81.646 223.663 -0.10 +0.02    -0.199 F  
DOCKED: ENDBRANCH  10  11
DOCKED: ENDBRANCH   3   6
DOCKED: ENDBRANCH   2   3
DOCKED: ENDBRANCH   1   2
DOCKED: BRANCH   1  20
DOCKED: ATOM     20  C   UNL     1     139.273  69.791 220.659 -0.11 -0.00    +0.005 C  
DOCKED: BRANCH  20  21
DOCKED: ATOM     21  C   UNL     1     139.114  68.812 221.848 -0.17 -0.00    +0.010 C  
DOCKED: BRANCH  21  22
DOCKED: ATOM     22  C   UNL     1     138.002  69.225 222.821 -0.18 -0.02    +0.100 C  
DOCKED: BRANCH  22  23
DOCKED: ATOM     23  C   UNL     1     138.526  70.086 223.935 -0.21 -0.04    +0.224 C  
DOCKED: ATOM     24  N   UNL     1     139.692  69.683 224.673 -0.14 +0.06    -0.326 N  
DOCKED: ATOM     25  O   UNL     1     137.959  71.186 224.179 -0.18 +0.07    -0.275 OA 
DOCKED: ATOM     26  H   UNL     1     140.267  68.904 224.280 +0.02 -0.04    +0.169 HD 
DOCKED: BRANCH  24  27
DOCKED: ATOM     27  C   UNL     1     140.188  70.347 225.850 -0.49 -0.01    +0.041 A  
DOCKED: ATOM     28  C   UNL     1     139.831  69.857 227.116 -0.53 -0.00    +0.026 A  
DOCKED: ATOM     29  C   UNL     1     140.971  71.516 225.767 -0.60 -0.00    +0.026 A  
DOCKED: ATOM     30  C   UNL     1     140.275  70.497 228.276 -0.61 -0.00    +0.002 A  
DOCKED: ATOM     31  C   UNL     1     141.415  72.151 226.930 -0.76 -0.00    +0.002 A  
DOCKED: ATOM     32  C   UNL     1     141.069  71.642 228.184 -0.79 -0.00    +0.000 A  
DOCKED: ENDBRANCH  24  27
DOCKED: ENDBRANCH  22  23
DOCKED: ENDBRANCH  21  22
DOCKED: ENDBRANCH  20  21
DOCKED: ENDBRANCH   1  20
DOCKED: TORSDOF 10
DOCKED: TER
DOCKED: ENDMDL
________________________________________________________________________________


    FINAL DOCKED STATE:
    ________________________


Run:   18 / 20
Time taken for this run:   0.037s

DOCKED: MODEL        18
DOCKED: USER    Run = 18
DOCKED: USER
DOCKED: USER    Estimated Free Energy of Binding    =  -5.17 kcal/mol  [=(1)+(2)+(3)-(4)]
DOCKED: USER
DOCKED: USER    (1) Final Intermolecular Energy     =  -8.15 kcal/mol
DOCKED: USER        vdW + Hbond + desolv Energy     =  -7.97 kcal/mol
DOCKED: USER        Electrostatic Energy            =  -0.18 kcal/mol
DOCKED: USER        Moving Ligand-Fixed Receptor    =  -8.15 kcal/mol
DOCKED: USER        Moving Ligand-Moving Receptor   =  +0.00 kcal/mol
DOCKED: USER    (2) Final Total Internal Energy     =  -3.49 kcal/mol
DOCKED: USER    (3) Torsional Free Energy           =  +2.98 kcal/mol
DOCKED: USER    (4) Unbound System's Energy         =  -3.49 kcal/mol
DOCKED: USER
DOCKED: USER
DOCKED: REMARK SMILES O=C(CCCC/C=C(\O)c1nnc(-c2nc(=O)c(F)c[nH]2)o1)Nc1ccccc1
DOCKED: REMARK SMILES IDX 6 1 7 2 8 3 9 4 10 6 11 7 22 8 12 9 13 10 14 11 15 12 21 13
DOCKED: REMARK SMILES IDX 16 14 20 15 18 16 17 18 19 19 5 20 4 21 3 22 2 23 23 24 1 25
DOCKED: REMARK SMILES IDX 24 27 25 28 29 29 26 30 28 31 27 32
DOCKED: REMARK H PARENT 9 5 21 17 23 26
DOCKED: USER                              x       y       z     vdW  Elec       q    Type
DOCKED: USER                           _______ _______ _______ _____ _____    ______ ____
DOCKED: ROOT
DOCKED: ATOM      1  C   UNL     1     141.485  78.411 223.112 -0.52 -0.01    +0.031 C  
DOCKED: ENDROOT
DOCKED: BRANCH   1   2
DOCKED: ATOM      2  C   UNL     1     140.050  78.114 222.764 -0.35 -0.01    +0.025 C  
DOCKED: BRANCH   2   3
DOCKED: ATOM      3  C   UNL     1     139.705  77.252 221.798 -0.23 -0.04    +0.176 C  
DOCKED: BRANCH   3   4
DOCKED: ATOM      4  O   UNL     1     138.757  77.622 220.843 +0.01 +0.12    -0.503 OA 
DOCKED: ATOM      5  H   UNL     1     138.982  78.259 220.090 +0.06 -0.08    +0.293 HD 
DOCKED: ENDBRANCH   3   4
DOCKED: BRANCH   3   6
DOCKED: ATOM      6  C   UNL     1     140.309  75.908 221.734 -0.23 -0.07    +0.282 A  
DOCKED: ATOM      7  N   UNL     1     139.759  74.791 222.251 -0.72 +0.01    -0.104 NA 
DOCKED: ATOM      8  O   UNL     1     141.448  75.642 221.141 -0.18 +0.15    -0.411 OA 
DOCKED: ATOM      9  N   UNL     1     140.588  73.799 221.963 -0.80 +0.00    -0.104 NA 
DOCKED: ATOM     10  C   UNL     1     141.611  74.350 221.282 -0.12 -0.05    +0.284 A  
DOCKED: BRANCH  10  11
DOCKED: ATOM     11  C   UNL     1     142.758  73.601 220.749 -0.18 -0.04    +0.199 A  
DOCKED: ATOM     12  N   UNL     1     144.004  74.138 220.845 -0.28 +0.06    -0.183 NA 
DOCKED: ATOM     13  N   UNL     1     142.585  72.394 220.138 -0.07 +0.05    -0.339 N  
DOCKED: ATOM     14  C   UNL     1     145.088  73.493 220.342 -0.33 -0.04    +0.309 A  
DOCKED: ATOM     15  C   UNL     1     143.647  71.718 219.623 -0.17 -0.01    +0.129 A  
DOCKED: ATOM     16  C   UNL     1     144.929  72.258 219.714 -0.25 +0.02    +0.206 A  
DOCKED: ATOM     17  H   UNL     1     141.633  71.973 220.052 +0.05 -0.03    +0.168 HD 
DOCKED: ATOM     18  O   UNL     1     146.230  74.014 220.444 -0.50 +0.02    -0.264 OA 
DOCKED: ATOM     19  F   UNL     1     145.994  71.592 219.201 -0.06 -0.19    -0.199 F  
DOCKED: ENDBRANCH  10  11
DOCKED: ENDBRANCH   3   6
DOCKED: ENDBRANCH   2   3
DOCKED: ENDBRANCH   1   2
DOCKED: BRANCH   1  20
DOCKED: ATOM     20  C   UNL     1     141.731  79.919 223.267 -0.60 -0.00    +0.005 C  
DOCKED: BRANCH  20  21
DOCKED: ATOM     21  C   UNL     1     140.845  80.767 222.322 -0.41 -0.00    +0.010 C  
DOCKED: BRANCH  21  22
DOCKED: ATOM     22  C   UNL     1     141.462  80.960 220.931 -0.31 -0.03    +0.100 C  
DOCKED: BRANCH  22  23
DOCKED: ATOM     23  C   UNL     1     141.253  79.755 220.056 -0.18 -0.10    +0.224 C  
DOCKED: ATOM     24  N   UNL     1     142.203  78.677 220.071 -0.03 +0.24    -0.326 N  
DOCKED: ATOM     25  O   UNL     1     140.211  79.685 219.349 -0.05 +0.10    -0.275 OA 
DOCKED: ATOM     26  H   UNL     1     142.907  78.664 220.843 -0.38 -0.19    +0.169 HD 
DOCKED: BRANCH  24  27
DOCKED: ATOM     27  C   UNL     1     142.183  77.555 219.170 -0.29 -0.03    +0.041 A  
DOCKED: ATOM     28  C   UNL     1     143.363  76.823 218.960 -0.33 -0.02    +0.026 A  
DOCKED: ATOM     29  C   UNL     1     141.027  77.207 218.443 -0.11 -0.01    +0.026 A  
DOCKED: ATOM     30  C   UNL     1     143.382  75.746 218.069 -0.25 -0.00    +0.002 A  
DOCKED: ATOM     31  C   UNL     1     141.050  76.126 217.557 -0.06 -0.00    +0.002 A  
DOCKED: ATOM     32  C   UNL     1     142.225  75.395 217.370 -0.10 -0.00    +0.000 A  
DOCKED: ENDBRANCH  24  27
DOCKED: ENDBRANCH  22  23
DOCKED: ENDBRANCH  21  22
DOCKED: ENDBRANCH  20  21
DOCKED: ENDBRANCH   1  20
DOCKED: TORSDOF 10
DOCKED: TER
DOCKED: ENDMDL
________________________________________________________________________________


    FINAL DOCKED STATE:
    ________________________


Run:   19 / 20
Time taken for this run:   0.037s

DOCKED: MODEL        19
DOCKED: USER    Run = 19
DOCKED: USER
DOCKED: USER    Estimated Free Energy of Binding    =  -4.02 kcal/mol  [=(1)+(2)+(3)-(4)]
DOCKED: USER
DOCKED: USER    (1) Final Intermolecular Energy     =  -7.00 kcal/mol
DOCKED: USER        vdW + Hbond + desolv Energy     =  -6.95 kcal/mol
DOCKED: USER        Electrostatic Energy            =  -0.06 kcal/mol
DOCKED: USER        Moving Ligand-Fixed Receptor    =  -7.00 kcal/mol
DOCKED: USER        Moving Ligand-Moving Receptor   =  +0.00 kcal/mol
DOCKED: USER    (2) Final Total Internal Energy     =  -4.15 kcal/mol
DOCKED: USER    (3) Torsional Free Energy           =  +2.98 kcal/mol
DOCKED: USER    (4) Unbound System's Energy         =  -4.15 kcal/mol
DOCKED: USER
DOCKED: USER
DOCKED: REMARK SMILES O=C(CCCC/C=C(\O)c1nnc(-c2nc(=O)c(F)c[nH]2)o1)Nc1ccccc1
DOCKED: REMARK SMILES IDX 6 1 7 2 8 3 9 4 10 6 11 7 22 8 12 9 13 10 14 11 15 12 21 13
DOCKED: REMARK SMILES IDX 16 14 20 15 18 16 17 18 19 19 5 20 4 21 3 22 2 23 23 24 1 25
DOCKED: REMARK SMILES IDX 24 27 25 28 29 29 26 30 28 31 27 32
DOCKED: REMARK H PARENT 9 5 21 17 23 26
DOCKED: USER                              x       y       z     vdW  Elec       q    Type
DOCKED: USER                           _______ _______ _______ _____ _____    ______ ____
DOCKED: ROOT
DOCKED: ATOM      1  C   UNL     1     138.529  68.922 219.850 -0.06 -0.01    +0.031 C  
DOCKED: ENDROOT
DOCKED: BRANCH   1   2
DOCKED: ATOM      2  C   UNL     1     138.477  70.404 219.593 -0.03 -0.00    +0.025 C  
DOCKED: BRANCH   2   3
DOCKED: ATOM      3  C   UNL     1     138.638  71.311 220.565 -0.04 -0.03    +0.176 C  
DOCKED: BRANCH   3   4
DOCKED: ATOM      4  O   UNL     1     139.588  72.323 220.422 +0.00 +0.09    -0.503 OA 
DOCKED: ATOM      5  H   UNL     1     139.971  72.568 219.517 +0.04 -0.05    +0.293 HD 
DOCKED: ENDBRANCH   3   4
DOCKED: BRANCH   3   6
DOCKED: ATOM      6  C   UNL     1     137.827  71.251 221.796 -0.05 -0.06    +0.282 A  
DOCKED: ATOM      7  N   UNL     1     137.816  72.195 222.759 -0.13 +0.03    -0.104 NA 
DOCKED: ATOM      8  O   UNL     1     137.001  70.274 222.084 -0.01 +0.07    -0.411 OA 
DOCKED: ATOM      9  N   UNL     1     136.948  71.787 223.672 -0.17 +0.03    -0.104 NA 
DOCKED: ATOM     10  C   UNL     1     136.465  70.610 223.231 -0.08 -0.05    +0.284 A  
DOCKED: BRANCH  10  11
DOCKED: ATOM     11  C   UNL     1     135.453  69.807 223.933 -0.12 -0.02    +0.199 A  
DOCKED: ATOM     12  N   UNL     1     135.160  70.095 225.229 -0.15 +0.01    -0.183 NA 
DOCKED: ATOM     13  N   UNL     1     134.828  68.766 223.312 -0.05 +0.03    -0.339 N  
DOCKED: ATOM     14  C   UNL     1     134.251  69.362 225.924 -0.16 -0.01    +0.309 A  
DOCKED: ATOM     15  C   UNL     1     133.913  68.010 223.975 -0.13 -0.01    +0.129 A  
DOCKED: ATOM     16  C   UNL     1     133.604  68.294 225.304 -0.20 -0.02    +0.206 A  
DOCKED: ATOM     17  H   UNL     1     135.049  68.530 222.318 +0.02 -0.02    +0.168 HD 
DOCKED: ATOM     18  O   UNL     1     134.000  69.650 227.124 -0.51 -0.02    -0.264 OA 
DOCKED: ATOM     19  F   UNL     1     132.693  67.543 225.974 -0.09 +0.03    -0.199 F  
DOCKED: ENDBRANCH  10  11
DOCKED: ENDBRANCH   3   6
DOCKED: ENDBRANCH   2   3
DOCKED: ENDBRANCH   1   2
DOCKED: BRANCH   1  20
DOCKED: ATOM     20  C   UNL     1     139.738  68.538 220.717 -0.13 -0.00    +0.005 C  
DOCKED: BRANCH  20  21
DOCKED: ATOM     21  C   UNL     1     139.415  67.406 221.722 -0.04 -0.00    +0.010 C  
DOCKED: BRANCH  21  22
DOCKED: ATOM     22  C   UNL     1     138.315  67.787 222.722 -0.22 -0.01    +0.100 C  
DOCKED: BRANCH  22  23
DOCKED: ATOM     23  C   UNL     1     138.888  68.249 224.033 -0.18 -0.02    +0.224 C  
DOCKED: ATOM     24  N   UNL     1     139.022  69.653 224.309 -0.14 +0.05    -0.326 N  
DOCKED: ATOM     25  O   UNL     1     139.204  67.390 224.901 -0.86 -0.01    -0.275 OA 
DOCKED: ATOM     26  H   UNL     1     138.524  70.319 223.676 +0.07 -0.03    +0.169 HD 
DOCKED: BRANCH  24  27
DOCKED: ATOM     27  C   UNL     1     139.693  70.203 225.458 -0.43 -0.01    +0.041 A  
DOCKED: ATOM     28  C   UNL     1     140.604  71.256 225.281 -0.54 -0.00    +0.026 A  
DOCKED: ATOM     29  C   UNL     1     139.507  69.671 226.750 -0.48 -0.00    +0.026 A  
DOCKED: ATOM     30  C   UNL     1     141.291  71.791 226.374 -0.69 -0.00    +0.002 A  
DOCKED: ATOM     31  C   UNL     1     140.194  70.213 227.840 -0.64 -0.00    +0.002 A  
DOCKED: ATOM     32  C   UNL     1     141.085  71.272 227.653 -0.75 -0.00    +0.000 A  
DOCKED: ENDBRANCH  24  27
DOCKED: ENDBRANCH  22  23
DOCKED: ENDBRANCH  21  22
DOCKED: ENDBRANCH  20  21
DOCKED: ENDBRANCH   1  20
DOCKED: TORSDOF 10
DOCKED: TER
DOCKED: ENDMDL
________________________________________________________________________________


    FINAL DOCKED STATE:
    ________________________


Run:   20 / 20
Time taken for this run:   0.037s

DOCKED: MODEL        20
DOCKED: USER    Run = 20
DOCKED: USER
DOCKED: USER    Estimated Free Energy of Binding    =  -6.63 kcal/mol  [=(1)+(2)+(3)-(4)]
DOCKED: USER
DOCKED: USER    (1) Final Intermolecular Energy     =  -9.61 kcal/mol
DOCKED: USER        vdW + Hbond + desolv Energy     =  -9.54 kcal/mol
DOCKED: USER        Electrostatic Energy            =  -0.07 kcal/mol
DOCKED: USER        Moving Ligand-Fixed Receptor    =  -9.61 kcal/mol
DOCKED: USER        Moving Ligand-Moving Receptor   =  +0.00 kcal/mol
DOCKED: USER    (2) Final Total Internal Energy     =  -2.42 kcal/mol
DOCKED: USER    (3) Torsional Free Energy           =  +2.98 kcal/mol
DOCKED: USER    (4) Unbound System's Energy         =  -2.42 kcal/mol
DOCKED: USER
DOCKED: USER
DOCKED: REMARK SMILES O=C(CCCC/C=C(\O)c1nnc(-c2nc(=O)c(F)c[nH]2)o1)Nc1ccccc1
DOCKED: REMARK SMILES IDX 6 1 7 2 8 3 9 4 10 6 11 7 22 8 12 9 13 10 14 11 15 12 21 13
DOCKED: REMARK SMILES IDX 16 14 20 15 18 16 17 18 19 19 5 20 4 21 3 22 2 23 23 24 1 25
DOCKED: REMARK SMILES IDX 24 27 25 28 29 29 26 30 28 31 27 32
DOCKED: REMARK H PARENT 9 5 21 17 23 26
DOCKED: USER                              x       y       z     vdW  Elec       q    Type
DOCKED: USER                           _______ _______ _______ _____ _____    ______ ____
DOCKED: ROOT
DOCKED: ATOM      1  C   UNL     1     142.397  74.799 220.518 -0.29 -0.01    +0.031 C  
DOCKED: ENDROOT
DOCKED: BRANCH   1   2
DOCKED: ATOM      2  C   UNL     1     141.297  73.784 220.680 -0.24 -0.00    +0.025 C  
DOCKED: BRANCH   2   3
DOCKED: ATOM      3  C   UNL     1     140.539  73.711 221.783 -0.19 -0.01    +0.176 C  
DOCKED: BRANCH   3   4
DOCKED: ATOM      4  O   UNL     1     140.010  74.876 222.340 -0.61 +0.02    -0.503 OA 
DOCKED: ATOM      5  H   UNL     1     139.345  74.845 223.104 -0.45 -0.05    +0.293 HD 
DOCKED: ENDBRANCH   3   4
DOCKED: BRANCH   3   6
DOCKED: ATOM      6  C   UNL     1     140.262  72.412 222.425 -0.21 -0.03    +0.282 A  
DOCKED: ATOM      7  N   UNL     1     139.899  71.291 221.770 -0.15 +0.02    -0.104 NA 
DOCKED: ATOM      8  O   UNL     1     140.364  72.194 223.714 -0.29 +0.05    -0.411 OA 
DOCKED: ATOM      9  N   UNL     1     139.774  70.346 222.689 -0.15 +0.02    -0.104 NA 
DOCKED: ATOM     10  C   UNL     1     140.066  70.927 223.868 -0.23 -0.05    +0.284 A  
DOCKED: BRANCH  10  11
DOCKED: ATOM     11  C   UNL     1     140.069  70.233 225.164 -0.32 -0.03    +0.199 A  
DOCKED: ATOM     12  N   UNL     1     139.611  68.955 225.233 -0.28 +0.03    -0.183 NA 
DOCKED: ATOM     13  N   UNL     1     140.498  70.862 226.296 -0.28 +0.05    -0.339 N  
DOCKED: ATOM     14  C   UNL     1     139.571  68.285 226.414 -0.35 -0.04    +0.309 A  
DOCKED: ATOM     15  C   UNL     1     140.473  70.224 227.496 -0.51 -0.02    +0.129 A  
DOCKED: ATOM     16  C   UNL     1     140.005  68.913 227.581 -0.45 -0.04    +0.206 A  
DOCKED: ATOM     17  H   UNL     1     140.846  71.846 226.258 +0.11 -0.03    +0.168 HD 
DOCKED: ATOM     18  O   UNL     1     139.141  67.102 226.449 -0.78 +0.01    -0.264 OA 
DOCKED: ATOM     19  F   UNL     1     139.974  68.269 228.775 -0.16 +0.04    -0.199 F  
DOCKED: ENDBRANCH  10  11
DOCKED: ENDBRANCH   3   6
DOCKED: ENDBRANCH   2   3
DOCKED: ENDBRANCH   1   2
DOCKED: BRANCH   1  20
DOCKED: ATOM     20  C   UNL     1     141.992  75.926 219.556 -0.25 -0.00    +0.005 C  
DOCKED: BRANCH  20  21
DOCKED: ATOM     21  C   UNL     1     140.539  75.778 219.043 -0.09 -0.00    +0.010 C  
DOCKED: BRANCH  21  22
DOCKED: ATOM     22  C   UNL     1     139.533  76.621 219.838 -0.07 -0.03    +0.100 C  
DOCKED: BRANCH  22  23
DOCKED: ATOM     23  C   UNL     1     140.175  77.845 220.429 -0.10 -0.08    +0.224 C  
DOCKED: ATOM     24  N   UNL     1     140.699  77.811 221.767 -0.15 +0.12    -0.326 N  
DOCKED: ATOM     25  O   UNL     1     140.287  78.882 219.720 -0.05 +0.10    -0.275 OA 
DOCKED: ATOM     26  H   UNL     1     140.808  76.875 222.219 +0.02 -0.06    +0.169 HD 
DOCKED: BRANCH  24  27
DOCKED: ATOM     27  C   UNL     1     141.193  78.958 222.484 -0.43 -0.01    +0.041 A  
DOCKED: ATOM     28  C   UNL     1     142.579  79.151 222.597 -0.47 -0.01    +0.026 A  
DOCKED: ATOM     29  C   UNL     1     140.324  79.859 223.130 -0.42 -0.01    +0.026 A  
DOCKED: ATOM     30  C   UNL     1     143.088  80.239 223.311 -0.64 -0.00    +0.002 A  
DOCKED: ATOM     31  C   UNL     1     140.838  80.949 223.838 -0.42 -0.00    +0.002 A  
DOCKED: ATOM     32  C   UNL     1     142.219  81.140 223.929 -0.63 -0.00    +0.000 A  
DOCKED: ENDBRANCH  24  27
DOCKED: ENDBRANCH  22  23
DOCKED: ENDBRANCH  21  22
DOCKED: ENDBRANCH  20  21
DOCKED: ENDBRANCH   1  20
DOCKED: TORSDOF 10
DOCKED: TER
DOCKED: ENDMDL
________________________________________________________________________________


    CLUSTERING HISTOGRAM
    ____________________


________________________________________________________________________________
     |           |     |           |     |
Clus | Lowest    | Run | Mean      | Num | Histogram
-ter | Binding   |     | Binding   | in  |
Rank | Energy    |     | Energy    | Clus|    5    10   15   20   25   30   35
_____|___________|_____|___________|_____|____:____|____:____|____:____|____:___
   1 |     -7.19 |   7 |     -6.86 |   3 |###
   2 |     -7.19 |   6 |     -7.01 |   5 |#####
   3 |     -7.14 |  14 |     -6.83 |   4 |####
   4 |     -5.83 |   5 |     -5.83 |   1 |#
   5 |     -5.33 |  12 |     -5.18 |   2 |##
   6 |     -5.26 |  10 |     -5.16 |   2 |##
   7 |     -5.17 |  18 |     -5.17 |   1 |#
   8 |     -4.50 |   1 |     -4.50 |   1 |#
   9 |     -4.02 |  19 |     -4.02 |   1 |#
_____|___________|_____|___________|_____|______________________________________


    RMSD TABLE
    __________


_______________________________________________________________________
     |      |      |           |         |                 |
Rank | Sub- | Run  | Binding   | Cluster | Reference       | Grep
     | Rank |      | Energy    | RMSD    | RMSD            | Pattern
_____|______|______|___________|_________|_________________|___________
   1      1      7       -7.19      0.00    270.75           RANKING
   1      2     15       -6.95      1.44    270.65           RANKING
   1      3     11       -6.43      0.85    270.69           RANKING
   2      1      6       -7.19      0.00    271.22           RANKING
   2      2     17       -7.16      1.27    271.72           RANKING
   2      3      4       -7.15      1.39    271.44           RANKING
   2      4      3       -6.87      0.91    271.35           RANKING
   2      5      2       -6.71      1.38    271.50           RANKING
   3      1     14       -7.14      0.00    271.93           RANKING
   3      2     16       -6.78      0.55    271.75           RANKING
   3      3      8       -6.78      0.54    271.95           RANKING
   3      4     20       -6.63      1.62    271.83           RANKING
   4      1      5       -5.83      0.00    271.19           RANKING
   5      1     12       -5.33      0.00    271.69           RANKING
   5      2     13       -5.04      1.43    271.55           RANKING
   6      1     10       -5.26      0.00    270.97           RANKING
   6      2      9       -5.06      1.37    271.09           RANKING
   7      1     18       -5.17      0.00    270.75           RANKING
   8      1      1       -4.50      0.00    271.04           RANKING
   9      1     19       -4.02      0.00    269.57           RANKING

Run time 0.701 sec
Idle time 0.000 sec
