AutoDock-GPU version: v1.6

**********************************************************
**    AutoDock-GPU AUTODOCKTOOLS-COMPATIBLE DLG FILE    **
**********************************************************


    DOCKING PARAMETERS
    ________________________


Ligand file:                               /home/a/REINVENT4/ReinventStudies/pleaseWork/justRnve/graph-dock-3mta9a/graph-DockGPU/node-autodockgpu/inputs/SHQXIXFOBBGYSV-OAWCUOMQNA-N.pdbqt
Grid fld file:                             /home/a/REINVENT4/ReinventStudies/mols/Rad51/maps/rad51_receptor.maps.fld

Random seed:                               42
Number of runs:                            20
Number of energy evaluations:              2542121
Number of generations:                     42000
Size of population:                        150
Rate of crossover:                         80.000000%
Tournament selection probability limit:    60.000000%
Rate of mutation:                          2.000000%
Maximal allowed delta movement:            +/- 6.000000A
Maximal allowed delta angle:               +/- 90.000000

Rate of local search:                      100.000000%
Maximal number of local search iterations: 300
Rho lower bound:                           0.010000
Spread of local search delta movement:     2.000000A
Spread of local search delta angle:        74.999999
Limit of consecutive successes/failures:   4

Handle symmetry during clustering:         YES
RMSD tolerance:                            2.000000A

Program call in command line was:          /home/a/REINVENT4/ReinventStudies/adgpu-v1.6_linux_x64_cuda12_128wi --filelist batch.txt --heuristics 1 --nrun 20 --psize 150 --lsit 300 --seed 42 --heurmax 12000000 


    GRID PARAMETERS
    ________________________


Receptor name:                             rad51_receptor
Number of grid points (x, y, z):           53, 53, 53
Grid center (x, y, z):                     139.950000, 75.640000, 221.970000A
Grid size (x, y, z):                       19.500000, 19.500000, 19.500000A
Grid spacing:                              0.375000A


    LIGAND PARAMETERS
    ________________________


Ligand name:                               /home/a/REINVENT4/ReinventStudies/pleaseWork/justRnve/graph-dock-3mta9a/graph-DockGPU/node-autodockgpu/inputs/SHQXIXFOBBGYSV-OAWCUOMQNA-N
Number of atoms:                           32
Number of rotatable bonds:                 10
Number of atom types:                      7


    DUMMY DATA (only for ADT-compatibility)
    ________________________


DPF> outlev 1
DPF> ga_run 20
DPF> fld /home/a/REINVENT4/ReinventStudies/mols/Rad51/maps/rad51_receptor.maps.fld
DPF> move /home/a/REINVENT4/ReinventStudies/pleaseWork/justRnve/graph-dock-3mta9a/graph-DockGPU/node-autodockgpu/inputs/SHQXIXFOBBGYSV-OAWCUOMQNA-N.pdbqt


    COUNTER STATES
    ________________________


Number of energy evaluations performed:    1170221
Number of generations used:                80


    INPUT LIGAND PDBQT FILE:
    ________________________


INPUT-LIGAND-PDBQT: REMARK SMILES O=C(CCCC/C=C(/O)c1nnc(-c2nc(=O)c(F)c[nH]2)o1)Nc1ccccc1
INPUT-LIGAND-PDBQT: REMARK SMILES IDX 6 1 7 2 8 3 9 4 10 6 11 7 22 8 12 9 13 10 14 11 15 12 21 13
INPUT-LIGAND-PDBQT: REMARK SMILES IDX 16 14 20 15 18 16 17 18 19 19 5 20 4 21 3 22 2 23 23 24 1 25
INPUT-LIGAND-PDBQT: REMARK SMILES IDX 24 27 25 28 29 29 26 30 28 31 27 32
INPUT-LIGAND-PDBQT: REMARK H PARENT 9 5 21 17 23 26
INPUT-LIGAND-PDBQT: ROOT
INPUT-LIGAND-PDBQT: ATOM      1  C   UNL     1       0.189   0.364  -0.525  1.00  0.00     0.031 C 
INPUT-LIGAND-PDBQT: ENDROOT
INPUT-LIGAND-PDBQT: BRANCH   1   2
INPUT-LIGAND-PDBQT: ATOM      2  C   UNL     1      -0.557   1.663  -0.691  1.00  0.00     0.025 C 
INPUT-LIGAND-PDBQT: BRANCH   2   3
INPUT-LIGAND-PDBQT: ATOM      3  C   UNL     1      -1.501   2.148   0.140  1.00  0.00     0.176 C 
INPUT-LIGAND-PDBQT: BRANCH   3   4
INPUT-LIGAND-PDBQT: ATOM      4  O   UNL     1      -2.063   3.396  -0.134  1.00  0.00    -0.503 OA
INPUT-LIGAND-PDBQT: ATOM      5  H   UNL     1      -1.782   3.953  -0.934  1.00  0.00     0.293 HD
INPUT-LIGAND-PDBQT: ENDBRANCH   3   4
INPUT-LIGAND-PDBQT: BRANCH   3   6
INPUT-LIGAND-PDBQT: ATOM      6  C   UNL     1      -1.998   1.441   1.340  1.00  0.00     0.282 A 
INPUT-LIGAND-PDBQT: ATOM      7  N   UNL     1      -2.842   2.000   2.230  1.00  0.00    -0.104 NA
INPUT-LIGAND-PDBQT: ATOM      8  O   UNL     1      -1.705   0.210   1.685  1.00  0.00    -0.411 OA
INPUT-LIGAND-PDBQT: ATOM      9  N   UNL     1      -3.073   1.085   3.157  1.00  0.00    -0.104 NA
INPUT-LIGAND-PDBQT: ATOM     10  C   UNL     1      -2.363  -0.001   2.798  1.00  0.00     0.284 A 
INPUT-LIGAND-PDBQT: BRANCH  10  11
INPUT-LIGAND-PDBQT: ATOM     11  C   UNL     1      -2.330  -1.258   3.558  1.00  0.00     0.199 A 
INPUT-LIGAND-PDBQT: ATOM     12  N   UNL     1      -3.064  -1.374   4.698  1.00  0.00    -0.183 NA
INPUT-LIGAND-PDBQT: ATOM     13  N   UNL     1      -1.569  -2.307   3.132  1.00  0.00    -0.339 N 
INPUT-LIGAND-PDBQT: ATOM     14  C   UNL     1      -3.057  -2.522   5.424  1.00  0.00     0.309 A 
INPUT-LIGAND-PDBQT: ATOM     15  C   UNL     1      -1.536  -3.472   3.833  1.00  0.00     0.129 A 
INPUT-LIGAND-PDBQT: ATOM     16  C   UNL     1      -2.285  -3.605   5.002  1.00  0.00     0.206 A 
INPUT-LIGAND-PDBQT: ATOM     17  H   UNL     1      -0.999  -2.228   2.260  1.00  0.00     0.168 HD
INPUT-LIGAND-PDBQT: ATOM     18  O   UNL     1      -3.746  -2.603   6.475  1.00  0.00    -0.264 OA
INPUT-LIGAND-PDBQT: ATOM     19  F   UNL     1      -2.259  -4.763   5.708  1.00  0.00    -0.199 F 
INPUT-LIGAND-PDBQT: ENDBRANCH  10  11
INPUT-LIGAND-PDBQT: ENDBRANCH   3   6
INPUT-LIGAND-PDBQT: ENDBRANCH   2   3
INPUT-LIGAND-PDBQT: ENDBRANCH   1   2
INPUT-LIGAND-PDBQT: BRANCH   1  20
INPUT-LIGAND-PDBQT: ATOM     20  C   UNL     1       1.268   0.430   0.571  1.00  0.00     0.005 C 
INPUT-LIGAND-PDBQT: BRANCH  20  21
INPUT-LIGAND-PDBQT: ATOM     21  C   UNL     1       2.367   1.486   0.324  1.00  0.00     0.010 C 
INPUT-LIGAND-PDBQT: BRANCH  21  22
INPUT-LIGAND-PDBQT: ATOM     22  C   UNL     1       3.495   1.012  -0.609  1.00  0.00     0.100 C 
INPUT-LIGAND-PDBQT: BRANCH  22  23
INPUT-LIGAND-PDBQT: ATOM     23  C   UNL     1       3.089   1.022  -2.053  1.00  0.00     0.224 C 
INPUT-LIGAND-PDBQT: ATOM     24  N   UNL     1       2.963  -0.214  -2.775  1.00  0.00    -0.326 N 
INPUT-LIGAND-PDBQT: ATOM     25  O   UNL     1       2.826   2.122  -2.611  1.00  0.00    -0.275 OA
INPUT-LIGAND-PDBQT: ATOM     26  H   UNL     1       2.952  -1.102  -2.223  1.00  0.00     0.169 HD
INPUT-LIGAND-PDBQT: BRANCH  24  27
INPUT-LIGAND-PDBQT: ATOM     27  C   UNL     1       2.674  -0.296  -4.181  1.00  0.00     0.041 A 
INPUT-LIGAND-PDBQT: ATOM     28  C   UNL     1       1.860  -1.336  -4.656  1.00  0.00     0.026 A 
INPUT-LIGAND-PDBQT: ATOM     29  C   UNL     1       3.233   0.612  -5.100  1.00  0.00     0.026 A 
INPUT-LIGAND-PDBQT: ATOM     30  C   UNL     1       1.578  -1.446  -6.022  1.00  0.00     0.002 A 
INPUT-LIGAND-PDBQT: ATOM     31  C   UNL     1       2.949   0.498  -6.464  1.00  0.00     0.002 A 
INPUT-LIGAND-PDBQT: ATOM     32  C   UNL     1       2.119  -0.527  -6.925  1.00  0.00     0.000 A 
INPUT-LIGAND-PDBQT: ENDBRANCH  24  27
INPUT-LIGAND-PDBQT: ENDBRANCH  22  23
INPUT-LIGAND-PDBQT: ENDBRANCH  21  22
INPUT-LIGAND-PDBQT: ENDBRANCH  20  21
INPUT-LIGAND-PDBQT: ENDBRANCH   1  20
INPUT-LIGAND-PDBQT: TORSDOF 10


    FINAL DOCKED STATE:
    ________________________


Run:   1 / 20
Time taken for this run:   0.056s

DOCKED: MODEL        1
DOCKED: USER    Run = 1
DOCKED: USER
DOCKED: USER    Estimated Free Energy of Binding    =  -5.35 kcal/mol  [=(1)+(2)+(3)-(4)]
DOCKED: USER
DOCKED: USER    (1) Final Intermolecular Energy     =  -8.33 kcal/mol
DOCKED: USER        vdW + Hbond + desolv Energy     =  -8.06 kcal/mol
DOCKED: USER        Electrostatic Energy            =  -0.27 kcal/mol
DOCKED: USER        Moving Ligand-Fixed Receptor    =  -8.33 kcal/mol
DOCKED: USER        Moving Ligand-Moving Receptor   =  +0.00 kcal/mol
DOCKED: USER    (2) Final Total Internal Energy     =  -3.81 kcal/mol
DOCKED: USER    (3) Torsional Free Energy           =  +2.98 kcal/mol
DOCKED: USER    (4) Unbound System's Energy         =  -3.81 kcal/mol
DOCKED: USER
DOCKED: USER
DOCKED: REMARK SMILES O=C(CCCC/C=C(/O)c1nnc(-c2nc(=O)c(F)c[nH]2)o1)Nc1ccccc1
DOCKED: REMARK SMILES IDX 6 1 7 2 8 3 9 4 10 6 11 7 22 8 12 9 13 10 14 11 15 12 21 13
DOCKED: REMARK SMILES IDX 16 14 20 15 18 16 17 18 19 19 5 20 4 21 3 22 2 23 23 24 1 25
DOCKED: REMARK SMILES IDX 24 27 25 28 29 29 26 30 28 31 27 32
DOCKED: REMARK H PARENT 9 5 21 17 23 26
DOCKED: USER                              x       y       z     vdW  Elec       q    Type
DOCKED: USER                           _______ _______ _______ _____ _____    ______ ____
DOCKED: ROOT
DOCKED: ATOM      1  C   UNL     1     141.747  74.071 220.687 -0.26 -0.01    +0.031 C  
DOCKED: ENDROOT
DOCKED: BRANCH   1   2
DOCKED: ATOM      2  C   UNL     1     143.169  74.518 220.464 -0.34 -0.01    +0.025 C  
DOCKED: BRANCH   2   3
DOCKED: ATOM      3  C   UNL     1     143.694  74.938 219.296 -0.25 -0.08    +0.176 C  
DOCKED: BRANCH   3   4
DOCKED: ATOM      4  O   UNL     1     144.627  74.128 218.646 -0.01 +0.15    -0.503 OA 
DOCKED: ATOM      5  H   UNL     1     145.207  74.470 217.887 -0.43 -0.14    +0.293 HD 
DOCKED: ENDBRANCH   3   4
DOCKED: BRANCH   3   6
DOCKED: ATOM      6  C   UNL     1     143.346  76.216 218.637 -0.20 -0.17    +0.282 A  
DOCKED: ATOM      7  N   UNL     1     143.440  76.410 217.307 -0.22 +0.07    -0.104 NA 
DOCKED: ATOM      8  O   UNL     1     142.900  77.294 219.236 -0.20 +0.30    -0.411 OA 
DOCKED: ATOM      9  N   UNL     1     143.045  77.652 217.078 -0.23 +0.09    -0.104 NA 
DOCKED: ATOM     10  C   UNL     1     142.721  78.170 218.278 -0.19 -0.23    +0.284 A  
DOCKED: BRANCH  10  11
DOCKED: ATOM     11  C   UNL     1     142.232  79.540 218.484 -0.24 -0.15    +0.199 A  
DOCKED: ATOM     12  N   UNL     1     141.156  79.755 219.290 -0.13 +0.09    -0.183 NA 
DOCKED: ATOM     13  N   UNL     1     142.844  80.595 217.874 -0.19 +0.35    -0.339 N  
DOCKED: ATOM     14  C   UNL     1     140.679  81.009 219.503 -0.09 -0.11    +0.309 A  
DOCKED: ATOM     15  C   UNL     1     142.394  81.864 218.063 -0.22 -0.08    +0.129 A  
DOCKED: ATOM     16  C   UNL     1     141.294  82.100 218.887 -0.15 -0.08    +0.206 A  
DOCKED: ATOM     17  H   UNL     1     143.668  80.441 217.251 -0.50 -0.37    +0.168 HD 
DOCKED: ATOM     18  O   UNL     1     139.682  81.181 220.254 -0.06 +0.07    -0.264 OA 
DOCKED: ATOM     19  F   UNL     1     140.838  83.362 219.082 -0.04 +0.06    -0.199 F  
DOCKED: ENDBRANCH  10  11
DOCKED: ENDBRANCH   3   6
DOCKED: ENDBRANCH   2   3
DOCKED: ENDBRANCH   1   2
DOCKED: BRANCH   1  20
DOCKED: ATOM     20  C   UNL     1     141.002  74.939 221.718 -0.24 -0.00    +0.005 C  
DOCKED: BRANCH  20  21
DOCKED: ATOM     21  C   UNL     1     139.518  75.200 221.381 -0.26 -0.00    +0.010 C  
DOCKED: BRANCH  21  22
DOCKED: ATOM     22  C   UNL     1     139.246  76.588 220.776 -0.13 -0.02    +0.100 C  
DOCKED: BRANCH  22  23
DOCKED: ATOM     23  C   UNL     1     139.661  77.704 221.689 -0.18 -0.06    +0.224 C  
DOCKED: ATOM     24  N   UNL     1     140.952  78.317 221.537 -0.13 +0.13    -0.326 N  
DOCKED: ATOM     25  O   UNL     1     138.851  78.118 222.562 -0.18 +0.05    -0.275 OA 
DOCKED: ATOM     26  H   UNL     1     141.488  78.115 220.662 +0.07 -0.09    +0.169 HD 
DOCKED: BRANCH  24  27
DOCKED: ATOM     27  C   UNL     1     141.471  79.323 222.423 -0.45 -0.01    +0.041 A  
DOCKED: ATOM     28  C   UNL     1     140.590  80.247 223.006 -0.42 -0.01    +0.026 A  
DOCKED: ATOM     29  C   UNL     1     142.851  79.437 222.677 -0.52 -0.01    +0.026 A  
DOCKED: ATOM     30  C   UNL     1     141.074  81.245 223.859 -0.41 -0.00    +0.002 A  
DOCKED: ATOM     31  C   UNL     1     143.330  80.436 223.529 -0.62 -0.00    +0.002 A  
DOCKED: ATOM     32  C   UNL     1     142.443  81.337 224.123 -0.61 -0.00    +0.000 A  
DOCKED: ENDBRANCH  24  27
DOCKED: ENDBRANCH  22  23
DOCKED: ENDBRANCH  21  22
DOCKED: ENDBRANCH  20  21
DOCKED: ENDBRANCH   1  20
DOCKED: TORSDOF 10
DOCKED: TER
DOCKED: ENDMDL
________________________________________________________________________________


    FINAL DOCKED STATE:
    ________________________


Run:   2 / 20
Time taken for this run:   0.056s

DOCKED: MODEL        2
DOCKED: USER    Run = 2
DOCKED: USER
DOCKED: USER    Estimated Free Energy of Binding    =  -7.06 kcal/mol  [=(1)+(2)+(3)-(4)]
DOCKED: USER
DOCKED: USER    (1) Final Intermolecular Energy     = -10.05 kcal/mol
DOCKED: USER        vdW + Hbond + desolv Energy     = -10.02 kcal/mol
DOCKED: USER        Electrostatic Energy            =  -0.03 kcal/mol
DOCKED: USER        Moving Ligand-Fixed Receptor    = -10.05 kcal/mol
DOCKED: USER        Moving Ligand-Moving Receptor   =  +0.00 kcal/mol
DOCKED: USER    (2) Final Total Internal Energy     =  -2.41 kcal/mol
DOCKED: USER    (3) Torsional Free Energy           =  +2.98 kcal/mol
DOCKED: USER    (4) Unbound System's Energy         =  -2.41 kcal/mol
DOCKED: USER
DOCKED: USER
DOCKED: REMARK SMILES O=C(CCCC/C=C(/O)c1nnc(-c2nc(=O)c(F)c[nH]2)o1)Nc1ccccc1
DOCKED: REMARK SMILES IDX 6 1 7 2 8 3 9 4 10 6 11 7 22 8 12 9 13 10 14 11 15 12 21 13
DOCKED: REMARK SMILES IDX 16 14 20 15 18 16 17 18 19 19 5 20 4 21 3 22 2 23 23 24 1 25
DOCKED: REMARK SMILES IDX 24 27 25 28 29 29 26 30 28 31 27 32
DOCKED: REMARK H PARENT 9 5 21 17 23 26
DOCKED: USER                              x       y       z     vdW  Elec       q    Type
DOCKED: USER                           _______ _______ _______ _____ _____    ______ ____
DOCKED: ROOT
DOCKED: ATOM      1  C   UNL     1     142.421  73.101 220.012 -0.20 -0.01    +0.031 C  
DOCKED: ENDROOT
DOCKED: BRANCH   1   2
DOCKED: ATOM      2  C   UNL     1     141.205  73.870 220.462 -0.21 -0.01    +0.025 C  
DOCKED: BRANCH   2   3
DOCKED: ATOM      3  C   UNL     1     140.579  73.741 221.649 -0.22 -0.02    +0.176 C  
DOCKED: BRANCH   3   4
DOCKED: ATOM      4  O   UNL     1     140.114  74.889 222.294 -0.60 +0.02    -0.503 OA 
DOCKED: ATOM      5  H   UNL     1     139.476  74.847 223.081 -0.42 -0.03    +0.293 HD 
DOCKED: ENDBRANCH   3   4
DOCKED: BRANCH   3   6
DOCKED: ATOM      6  C   UNL     1     140.340  72.450 222.329 -0.21 -0.03    +0.282 A  
DOCKED: ATOM      7  N   UNL     1     140.010  71.320 221.673 -0.15 +0.02    -0.104 NA 
DOCKED: ATOM      8  O   UNL     1     140.425  72.232 223.620 -0.30 +0.04    -0.411 OA 
DOCKED: ATOM      9  N   UNL     1     139.883  70.375 222.590 -0.15 +0.02    -0.104 NA 
DOCKED: ATOM     10  C   UNL     1     140.142  70.962 223.774 -0.22 -0.05    +0.284 A  
DOCKED: BRANCH  10  11
DOCKED: ATOM     11  C   UNL     1     140.109  70.269 225.068 -0.32 -0.03    +0.199 A  
DOCKED: ATOM     12  N   UNL     1     139.658  68.986 225.133 -0.27 +0.03    -0.183 NA 
DOCKED: ATOM     13  N   UNL     1     140.523  70.899 226.205 -0.28 +0.05    -0.339 N  
DOCKED: ATOM     14  C   UNL     1     139.615  68.315 226.313 -0.35 -0.04    +0.309 A  
DOCKED: ATOM     15  C   UNL     1     140.494  70.260 227.405 -0.51 -0.02    +0.129 A  
DOCKED: ATOM     16  C   UNL     1     140.036  68.945 227.485 -0.45 -0.04    +0.206 A  
DOCKED: ATOM     17  H   UNL     1     140.868  71.885 226.168 +0.10 -0.03    +0.168 HD 
DOCKED: ATOM     18  O   UNL     1     139.194  67.129 226.345 -0.81 +0.01    -0.264 OA 
DOCKED: ATOM     19  F   UNL     1     140.004  68.299 228.677 -0.17 +0.04    -0.199 F  
DOCKED: ENDBRANCH  10  11
DOCKED: ENDBRANCH   3   6
DOCKED: ENDBRANCH   2   3
DOCKED: ENDBRANCH   1   2
DOCKED: BRANCH   1  20
DOCKED: ATOM     20  C   UNL     1     143.405  73.961 219.198 -0.25 -0.00    +0.005 C  
DOCKED: BRANCH  20  21
DOCKED: ATOM     21  C   UNL     1     143.604  75.392 219.743 -0.40 -0.01    +0.010 C  
DOCKED: BRANCH  21  22
DOCKED: ATOM     22  C   UNL     1     142.792  76.467 218.998 -0.29 -0.06    +0.100 C  
DOCKED: BRANCH  22  23
DOCKED: ATOM     23  C   UNL     1     142.178  77.471 219.928 -0.21 -0.15    +0.224 C  
DOCKED: ATOM     24  N   UNL     1     141.628  77.046 221.186 -0.06 +0.19    -0.326 N  
DOCKED: ATOM     25  O   UNL     1     142.185  78.691 219.608 -0.20 +0.19    -0.275 OA 
DOCKED: ATOM     26  H   UNL     1     141.856  76.081 221.517 -0.39 -0.10    +0.169 HD 
DOCKED: BRANCH  24  27
DOCKED: ATOM     27  C   UNL     1     140.936  77.920 222.095 -0.39 -0.02    +0.041 A  
DOCKED: ATOM     28  C   UNL     1     141.678  78.758 222.941 -0.53 -0.01    +0.026 A  
DOCKED: ATOM     29  C   UNL     1     139.532  77.914 222.193 -0.30 -0.01    +0.026 A  
DOCKED: ATOM     30  C   UNL     1     141.028  79.605 223.845 -0.54 -0.00    +0.002 A  
DOCKED: ATOM     31  C   UNL     1     138.887  78.761 223.098 -0.33 -0.00    +0.002 A  
DOCKED: ATOM     32  C   UNL     1     139.632  79.610 223.921 -0.42 -0.00    +0.000 A  
DOCKED: ENDBRANCH  24  27
DOCKED: ENDBRANCH  22  23
DOCKED: ENDBRANCH  21  22
DOCKED: ENDBRANCH  20  21
DOCKED: ENDBRANCH   1  20
DOCKED: TORSDOF 10
DOCKED: TER
DOCKED: ENDMDL
________________________________________________________________________________


    FINAL DOCKED STATE:
    ________________________


Run:   3 / 20
Time taken for this run:   0.056s

DOCKED: MODEL        3
DOCKED: USER    Run = 3
DOCKED: USER
DOCKED: USER    Estimated Free Energy of Binding    =  -5.86 kcal/mol  [=(1)+(2)+(3)-(4)]
DOCKED: USER
DOCKED: USER    (1) Final Intermolecular Energy     =  -8.84 kcal/mol
DOCKED: USER        vdW + Hbond + desolv Energy     =  -8.77 kcal/mol
DOCKED: USER        Electrostatic Energy            =  -0.07 kcal/mol
DOCKED: USER        Moving Ligand-Fixed Receptor    =  -8.84 kcal/mol
DOCKED: USER        Moving Ligand-Moving Receptor   =  +0.00 kcal/mol
DOCKED: USER    (2) Final Total Internal Energy     =  -3.17 kcal/mol
DOCKED: USER    (3) Torsional Free Energy           =  +2.98 kcal/mol
DOCKED: USER    (4) Unbound System's Energy         =  -3.17 kcal/mol
DOCKED: USER
DOCKED: USER
DOCKED: REMARK SMILES O=C(CCCC/C=C(/O)c1nnc(-c2nc(=O)c(F)c[nH]2)o1)Nc1ccccc1
DOCKED: REMARK SMILES IDX 6 1 7 2 8 3 9 4 10 6 11 7 22 8 12 9 13 10 14 11 15 12 21 13
DOCKED: REMARK SMILES IDX 16 14 20 15 18 16 17 18 19 19 5 20 4 21 3 22 2 23 23 24 1 25
DOCKED: REMARK SMILES IDX 24 27 25 28 29 29 26 30 28 31 27 32
DOCKED: REMARK H PARENT 9 5 21 17 23 26
DOCKED: USER                              x       y       z     vdW  Elec       q    Type
DOCKED: USER                           _______ _______ _______ _____ _____    ______ ____
DOCKED: ROOT
DOCKED: ATOM      1  C   UNL     1     136.079  69.737 223.568 -0.17 -0.00    +0.031 C  
DOCKED: ENDROOT
DOCKED: BRANCH   1   2
DOCKED: ATOM      2  C   UNL     1     137.202  70.657 223.975 -0.22 -0.00    +0.025 C  
DOCKED: BRANCH   2   3
DOCKED: ATOM      3  C   UNL     1     137.581  71.779 223.331 -0.05 -0.05    +0.176 C  
DOCKED: BRANCH   3   4
DOCKED: ATOM      4  O   UNL     1     136.666  72.825 223.204 -0.02 +0.18    -0.503 OA 
DOCKED: ATOM      5  H   UNL     1     136.955  73.797 223.173 -0.42 -0.15    +0.293 HD 
DOCKED: ENDBRANCH   3   4
DOCKED: BRANCH   3   6
DOCKED: ATOM      6  C   UNL     1     138.922  71.989 222.742 -0.14 -0.08    +0.282 A  
DOCKED: ATOM      7  N   UNL     1     139.838  71.008 222.622 -0.20 +0.02    -0.104 NA 
DOCKED: ATOM      8  O   UNL     1     139.383  73.119 222.261 -0.36 +0.09    -0.411 OA 
DOCKED: ATOM      9  N   UNL     1     140.901  71.552 222.053 -0.20 +0.01    -0.104 NA 
DOCKED: ATOM     10  C   UNL     1     140.594  72.846 221.844 -0.19 -0.03    +0.284 A  
DOCKED: BRANCH  10  11
DOCKED: ATOM     11  C   UNL     1     141.502  73.824 221.229 -0.19 -0.03    +0.199 A  
DOCKED: ATOM     12  N   UNL     1     142.765  73.449 220.891 -0.18 +0.03    -0.183 NA 
DOCKED: ATOM     13  N   UNL     1     141.090  75.103 220.997 -0.14 +0.09    -0.339 N  
DOCKED: ATOM     14  C   UNL     1     143.630  74.327 220.320 -0.22 -0.11    +0.309 A  
DOCKED: ATOM     15  C   UNL     1     141.927  76.011 220.428 -0.22 -0.06    +0.129 A  
DOCKED: ATOM     16  C   UNL     1     143.224  75.640 220.075 -0.23 -0.12    +0.206 A  
DOCKED: ATOM     17  H   UNL     1     140.123  75.404 221.256 +0.05 -0.04    +0.168 HD 
DOCKED: ATOM     18  O   UNL     1     144.793  73.954 220.016 -0.33 +0.07    -0.264 OA 
DOCKED: ATOM     19  F   UNL     1     144.067  76.538 219.507 -0.12 +0.16    -0.199 F  
DOCKED: ENDBRANCH  10  11
DOCKED: ENDBRANCH   3   6
DOCKED: ENDBRANCH   2   3
DOCKED: ENDBRANCH   1   2
DOCKED: BRANCH   1  20
DOCKED: ATOM     20  C   UNL     1     136.567  68.518 222.763 -0.15 -0.00    +0.005 C  
DOCKED: BRANCH  20  21
DOCKED: ATOM     21  C   UNL     1     138.080  68.519 222.454 -0.20 -0.00    +0.010 C  
DOCKED: BRANCH  21  22
DOCKED: ATOM     22  C   UNL     1     138.913  67.627 223.391 -0.12 -0.01    +0.100 C  
DOCKED: BRANCH  22  23
DOCKED: ATOM     23  C   UNL     1     139.203  68.288 224.706 -0.25 -0.02    +0.224 C  
DOCKED: ATOM     24  N   UNL     1     139.997  69.485 224.751 -0.12 +0.06    -0.326 N  
DOCKED: ATOM     25  O   UNL     1     138.714  67.800 225.761 -0.72 -0.02    -0.275 OA 
DOCKED: ATOM     26  H   UNL     1     140.176  69.986 223.851 +0.07 -0.03    +0.169 HD 
DOCKED: BRANCH  24  27
DOCKED: ATOM     27  C   UNL     1     140.405  70.131 225.969 -0.50 -0.01    +0.041 A  
DOCKED: ATOM     28  C   UNL     1     140.667  71.510 225.961 -0.60 -0.00    +0.026 A  
DOCKED: ATOM     29  C   UNL     1     140.602  69.402 227.157 -0.57 -0.00    +0.026 A  
DOCKED: ATOM     30  C   UNL     1     141.082  72.158 227.130 -0.80 -0.00    +0.002 A  
DOCKED: ATOM     31  C   UNL     1     141.017  70.053 228.322 -0.57 -0.00    +0.002 A  
DOCKED: ATOM     32  C   UNL     1     141.253  71.430 228.311 -0.70 -0.00    +0.000 A  
DOCKED: ENDBRANCH  24  27
DOCKED: ENDBRANCH  22  23
DOCKED: ENDBRANCH  21  22
DOCKED: ENDBRANCH  20  21
DOCKED: ENDBRANCH   1  20
DOCKED: TORSDOF 10
DOCKED: TER
DOCKED: ENDMDL
________________________________________________________________________________


    FINAL DOCKED STATE:
    ________________________


Run:   4 / 20
Time taken for this run:   0.056s

DOCKED: MODEL        4
DOCKED: USER    Run = 4
DOCKED: USER
DOCKED: USER    Estimated Free Energy of Binding    =  -7.50 kcal/mol  [=(1)+(2)+(3)-(4)]
DOCKED: USER
DOCKED: USER    (1) Final Intermolecular Energy     = -10.48 kcal/mol
DOCKED: USER        vdW + Hbond + desolv Energy     = -10.24 kcal/mol
DOCKED: USER        Electrostatic Energy            =  -0.24 kcal/mol
DOCKED: USER        Moving Ligand-Fixed Receptor    = -10.48 kcal/mol
DOCKED: USER        Moving Ligand-Moving Receptor   =  +0.00 kcal/mol
DOCKED: USER    (2) Final Total Internal Energy     =  -2.56 kcal/mol
DOCKED: USER    (3) Torsional Free Energy           =  +2.98 kcal/mol
DOCKED: USER    (4) Unbound System's Energy         =  -2.56 kcal/mol
DOCKED: USER
DOCKED: USER
DOCKED: REMARK SMILES O=C(CCCC/C=C(/O)c1nnc(-c2nc(=O)c(F)c[nH]2)o1)Nc1ccccc1
DOCKED: REMARK SMILES IDX 6 1 7 2 8 3 9 4 10 6 11 7 22 8 12 9 13 10 14 11 15 12 21 13
DOCKED: REMARK SMILES IDX 16 14 20 15 18 16 17 18 19 19 5 20 4 21 3 22 2 23 23 24 1 25
DOCKED: REMARK SMILES IDX 24 27 25 28 29 29 26 30 28 31 27 32
DOCKED: REMARK H PARENT 9 5 21 17 23 26
DOCKED: USER                              x       y       z     vdW  Elec       q    Type
DOCKED: USER                           _______ _______ _______ _____ _____    ______ ____
DOCKED: ROOT
DOCKED: ATOM      1  C   UNL     1     139.848  69.949 221.299 -0.12 -0.01    +0.031 C  
DOCKED: ENDROOT
DOCKED: BRANCH   1   2
DOCKED: ATOM      2  C   UNL     1     140.311  71.375 221.147 -0.17 -0.00    +0.025 C  
DOCKED: BRANCH   2   3
DOCKED: ATOM      3  C   UNL     1     139.909  72.424 221.892 -0.21 -0.03    +0.176 C  
DOCKED: BRANCH   3   4
DOCKED: ATOM      4  O   UNL     1     138.907  72.230 222.844 -0.09 +0.15    -0.503 OA 
DOCKED: ATOM      5  H   UNL     1     138.465  73.002 223.331 -0.39 -0.22    +0.293 HD 
DOCKED: ENDBRANCH   3   4
DOCKED: BRANCH   3   6
DOCKED: ATOM      6  C   UNL     1     140.466  73.790 221.778 -0.17 -0.02    +0.282 A  
DOCKED: ATOM      7  N   UNL     1     141.603  74.070 221.112 -0.26 +0.02    -0.104 NA 
DOCKED: ATOM      8  O   UNL     1     139.939  74.880 222.282 -0.66 +0.03    -0.411 OA 
DOCKED: ATOM      9  N   UNL     1     141.787  75.376 221.214 -0.26 +0.04    -0.104 NA 
DOCKED: ATOM     10  C   UNL     1     140.753  75.846 221.936 -0.24 -0.07    +0.284 A  
DOCKED: BRANCH  10  11
DOCKED: ATOM     11  C   UNL     1     140.565  77.260 222.291 -0.31 -0.06    +0.199 A  
DOCKED: ATOM     12  N   UNL     1     139.348  77.688 222.724 -0.22 +0.03    -0.183 NA 
DOCKED: ATOM     13  N   UNL     1     141.597  78.145 222.187 -0.15 +0.18    -0.339 N  
DOCKED: ATOM     14  C   UNL     1     139.139  78.987 223.061 -0.19 -0.05    +0.309 A  
DOCKED: ATOM     15  C   UNL     1     141.426  79.454 222.515 -0.40 -0.04    +0.129 A  
DOCKED: ATOM     16  C   UNL     1     140.185  79.906 222.962 -0.28 -0.04    +0.206 A  
DOCKED: ATOM     17  H   UNL     1     142.535  77.828 221.852 -0.44 -0.17    +0.168 HD 
DOCKED: ATOM     18  O   UNL     1     138.003  79.356 223.460 -0.20 +0.03    -0.264 OA 
DOCKED: ATOM     19  F   UNL     1     140.004  81.209 223.291 -0.10 +0.02    -0.199 F  
DOCKED: ENDBRANCH  10  11
DOCKED: ENDBRANCH   3   6
DOCKED: ENDBRANCH   2   3
DOCKED: ENDBRANCH   1   2
DOCKED: BRANCH   1  20
DOCKED: ATOM     20  C   UNL     1     138.319  69.804 221.208 -0.10 -0.00    +0.005 C  
DOCKED: BRANCH  20  21
DOCKED: ATOM     21  C   UNL     1     137.666  69.126 222.432 -0.16 -0.00    +0.010 C  
DOCKED: BRANCH  21  22
DOCKED: ATOM     22  C   UNL     1     138.566  68.092 223.131 -0.23 -0.01    +0.100 C  
DOCKED: BRANCH  22  23
DOCKED: ATOM     23  C   UNL     1     139.065  68.571 224.462 -0.24 -0.03    +0.224 C  
DOCKED: ATOM     24  N   UNL     1     139.355  69.964 224.665 -0.15 +0.05    -0.326 N  
DOCKED: ATOM     25  O   UNL     1     139.190  67.745 225.407 -0.86 +0.00    -0.275 OA 
DOCKED: ATOM     26  H   UNL     1     139.013  70.643 223.946 +0.08 -0.03    +0.169 HD 
DOCKED: BRANCH  24  27
DOCKED: ATOM     27  C   UNL     1     139.926  70.498 225.871 -0.48 -0.01    +0.041 A  
DOCKED: ATOM     28  C   UNL     1     140.845  71.556 225.788 -0.59 -0.00    +0.026 A  
DOCKED: ATOM     29  C   UNL     1     139.626  69.948 227.132 -0.50 -0.00    +0.026 A  
DOCKED: ATOM     30  C   UNL     1     141.426  72.081 226.947 -0.76 -0.00    +0.002 A  
DOCKED: ATOM     31  C   UNL     1     140.209  70.475 228.287 -0.61 -0.00    +0.002 A  
DOCKED: ATOM     32  C   UNL     1     141.105  71.544 228.197 -0.78 -0.00    +0.000 A  
DOCKED: ENDBRANCH  24  27
DOCKED: ENDBRANCH  22  23
DOCKED: ENDBRANCH  21  22
DOCKED: ENDBRANCH  20  21
DOCKED: ENDBRANCH   1  20
DOCKED: TORSDOF 10
DOCKED: TER
DOCKED: ENDMDL
________________________________________________________________________________


    FINAL DOCKED STATE:
    ________________________


Run:   5 / 20
Time taken for this run:   0.056s

DOCKED: MODEL        5
DOCKED: USER    Run = 5
DOCKED: USER
DOCKED: USER    Estimated Free Energy of Binding    =  -5.01 kcal/mol  [=(1)+(2)+(3)-(4)]
DOCKED: USER
DOCKED: USER    (1) Final Intermolecular Energy     =  -7.99 kcal/mol
DOCKED: USER        vdW + Hbond + desolv Energy     =  -7.99 kcal/mol
DOCKED: USER        Electrostatic Energy            =  +0.00 kcal/mol
DOCKED: USER        Moving Ligand-Fixed Receptor    =  -7.99 kcal/mol
DOCKED: USER        Moving Ligand-Moving Receptor   =  +0.00 kcal/mol
DOCKED: USER    (2) Final Total Internal Energy     =  -3.92 kcal/mol
DOCKED: USER    (3) Torsional Free Energy           =  +2.98 kcal/mol
DOCKED: USER    (4) Unbound System's Energy         =  -3.92 kcal/mol
DOCKED: USER
DOCKED: USER
DOCKED: REMARK SMILES O=C(CCCC/C=C(/O)c1nnc(-c2nc(=O)c(F)c[nH]2)o1)Nc1ccccc1
DOCKED: REMARK SMILES IDX 6 1 7 2 8 3 9 4 10 6 11 7 22 8 12 9 13 10 14 11 15 12 21 13
DOCKED: REMARK SMILES IDX 16 14 20 15 18 16 17 18 19 19 5 20 4 21 3 22 2 23 23 24 1 25
DOCKED: REMARK SMILES IDX 24 27 25 28 29 29 26 30 28 31 27 32
DOCKED: REMARK H PARENT 9 5 21 17 23 26
DOCKED: USER                              x       y       z     vdW  Elec       q    Type
DOCKED: USER                           _______ _______ _______ _____ _____    ______ ____
DOCKED: ROOT
DOCKED: ATOM      1  C   UNL     1     141.172  73.775 219.238 -0.08 -0.01    +0.031 C  
DOCKED: ENDROOT
DOCKED: BRANCH   1   2
DOCKED: ATOM      2  C   UNL     1     140.864  73.166 220.582 -0.19 -0.00    +0.025 C  
DOCKED: BRANCH   2   3
DOCKED: ATOM      3  C   UNL     1     139.986  73.643 221.487 -0.21 -0.03    +0.176 C  
DOCKED: BRANCH   3   4
DOCKED: ATOM      4  O   UNL     1     139.026  72.778 222.013 -0.11 +0.12    -0.503 OA 
DOCKED: ATOM      5  H   UNL     1     138.425  73.042 222.787 -0.37 -0.14    +0.293 HD 
DOCKED: ENDBRANCH   3   4
DOCKED: BRANCH   3   6
DOCKED: ATOM      6  C   UNL     1     139.968  75.038 221.975 -0.18 -0.04    +0.282 A  
DOCKED: ATOM      7  N   UNL     1     141.081  75.714 222.323 -0.37 +0.02    -0.104 NA 
DOCKED: ATOM      8  O   UNL     1     138.902  75.789 222.121 -0.20 +0.09    -0.411 OA 
DOCKED: ATOM      9  N   UNL     1     140.688  76.920 222.700 -0.35 +0.03    -0.104 NA 
DOCKED: ATOM     10  C   UNL     1     139.349  76.937 222.567 -0.16 -0.05    +0.284 A  
DOCKED: BRANCH  10  11
DOCKED: ATOM     11  C   UNL     1     138.499  78.093 222.884 -0.18 -0.03    +0.199 A  
DOCKED: ATOM     12  N   UNL     1     139.039  79.171 223.515 -0.25 +0.03    -0.183 NA 
DOCKED: ATOM     13  N   UNL     1     137.176  78.094 222.552 -0.09 +0.05    -0.339 N  
DOCKED: ATOM     14  C   UNL     1     138.283  80.257 223.822 -0.22 -0.04    +0.309 A  
DOCKED: ATOM     15  C   UNL     1     136.387  79.163 222.844 -0.13 -0.02    +0.129 A  
DOCKED: ATOM     16  C   UNL     1     136.928  80.275 223.489 -0.16 -0.03    +0.206 A  
DOCKED: ATOM     17  H   UNL     1     136.750  77.271 222.070 +0.04 -0.03    +0.168 HD 
DOCKED: ATOM     18  O   UNL     1     138.807  81.242 224.406 -0.23 +0.02    -0.264 OA 
DOCKED: ATOM     19  F   UNL     1     136.149  81.346 223.783 -0.04 +0.02    -0.199 F  
DOCKED: ENDBRANCH  10  11
DOCKED: ENDBRANCH   3   6
DOCKED: ENDBRANCH   2   3
DOCKED: ENDBRANCH   1   2
DOCKED: BRANCH   1  20
DOCKED: ATOM     20  C   UNL     1     142.651  74.175 219.087 -0.18 -0.00    +0.005 C  
DOCKED: BRANCH  20  21
DOCKED: ATOM     21  C   UNL     1     142.972  75.620 219.526 -0.35 -0.01    +0.010 C  
DOCKED: BRANCH  21  22
DOCKED: ATOM     22  C   UNL     1     142.248  76.701 218.705 -0.23 -0.05    +0.100 C  
DOCKED: BRANCH  22  23
DOCKED: ATOM     23  C   UNL     1     142.202  78.024 219.410 -0.17 -0.15    +0.224 C  
DOCKED: ATOM     24  N   UNL     1     142.149  78.074 220.846 -0.11 +0.24    -0.326 N  
DOCKED: ATOM     25  O   UNL     1     142.246  79.086 218.731 -0.22 +0.20    -0.275 OA 
DOCKED: ATOM     26  H   UNL     1     142.357  77.195 221.372 -0.46 -0.16    +0.169 HD 
DOCKED: BRANCH  24  27
DOCKED: ATOM     27  C   UNL     1     142.006  79.289 221.601 -0.38 -0.02    +0.041 A  
DOCKED: ATOM     28  C   UNL     1     141.191  80.317 221.102 -0.31 -0.01    +0.026 A  
DOCKED: ATOM     29  C   UNL     1     142.707  79.492 222.804 -0.57 -0.01    +0.026 A  
DOCKED: ATOM     30  C   UNL     1     141.049  81.514 221.812 -0.38 -0.00    +0.002 A  
DOCKED: ATOM     31  C   UNL     1     142.563  80.691 223.510 -0.67 -0.00    +0.002 A  
DOCKED: ATOM     32  C   UNL     1     141.731  81.700 223.017 -0.48 -0.00    +0.000 A  
DOCKED: ENDBRANCH  24  27
DOCKED: ENDBRANCH  22  23
DOCKED: ENDBRANCH  21  22
DOCKED: ENDBRANCH  20  21
DOCKED: ENDBRANCH   1  20
DOCKED: TORSDOF 10
DOCKED: TER
DOCKED: ENDMDL
________________________________________________________________________________


    FINAL DOCKED STATE:
    ________________________


Run:   6 / 20
Time taken for this run:   0.056s

DOCKED: MODEL        6
DOCKED: USER    Run = 6
DOCKED: USER
DOCKED: USER    Estimated Free Energy of Binding    =  -4.56 kcal/mol  [=(1)+(2)+(3)-(4)]
DOCKED: USER
DOCKED: USER    (1) Final Intermolecular Energy     =  -7.55 kcal/mol
DOCKED: USER        vdW + Hbond + desolv Energy     =  -7.49 kcal/mol
DOCKED: USER        Electrostatic Energy            =  -0.06 kcal/mol
DOCKED: USER        Moving Ligand-Fixed Receptor    =  -7.55 kcal/mol
DOCKED: USER        Moving Ligand-Moving Receptor   =  +0.00 kcal/mol
DOCKED: USER    (2) Final Total Internal Energy     =  -4.74 kcal/mol
DOCKED: USER    (3) Torsional Free Energy           =  +2.98 kcal/mol
DOCKED: USER    (4) Unbound System's Energy         =  -4.74 kcal/mol
DOCKED: USER
DOCKED: USER
DOCKED: REMARK SMILES O=C(CCCC/C=C(/O)c1nnc(-c2nc(=O)c(F)c[nH]2)o1)Nc1ccccc1
DOCKED: REMARK SMILES IDX 6 1 7 2 8 3 9 4 10 6 11 7 22 8 12 9 13 10 14 11 15 12 21 13
DOCKED: REMARK SMILES IDX 16 14 20 15 18 16 17 18 19 19 5 20 4 21 3 22 2 23 23 24 1 25
DOCKED: REMARK SMILES IDX 24 27 25 28 29 29 26 30 28 31 27 32
DOCKED: REMARK H PARENT 9 5 21 17 23 26
DOCKED: USER                              x       y       z     vdW  Elec       q    Type
DOCKED: USER                           _______ _______ _______ _____ _____    ______ ____
DOCKED: ROOT
DOCKED: ATOM      1  C   UNL     1     142.585  75.306 220.357 -0.27 -0.01    +0.031 C  
DOCKED: ENDROOT
DOCKED: BRANCH   1   2
DOCKED: ATOM      2  C   UNL     1     141.304  74.531 220.534 -0.24 -0.01    +0.025 C  
DOCKED: BRANCH   2   3
DOCKED: ATOM      3  C   UNL     1     140.298  74.842 221.376 -0.24 -0.03    +0.176 C  
DOCKED: BRANCH   3   4
DOCKED: ATOM      4  O   UNL     1     139.924  73.915 222.350 -0.74 +0.03    -0.503 OA 
DOCKED: ATOM      5  H   UNL     1     139.164  74.088 222.999 -0.48 -0.12    +0.293 HD 
DOCKED: ENDBRANCH   3   4
DOCKED: BRANCH   3   6
DOCKED: ATOM      6  C   UNL     1     139.550  76.118 221.346 -0.16 -0.07    +0.282 A  
DOCKED: ATOM      7  N   UNL     1     138.901  76.568 220.254 -0.05 +0.03    -0.104 NA 
DOCKED: ATOM      8  O   UNL     1     139.410  76.952 222.348 -0.18 +0.09    -0.411 OA 
DOCKED: ATOM      9  N   UNL     1     138.347  77.721 220.592 -0.05 +0.02    -0.104 NA 
DOCKED: ATOM     10  C   UNL     1     138.676  77.931 221.881 -0.12 -0.06    +0.284 A  
DOCKED: BRANCH  10  11
DOCKED: ATOM     11  C   UNL     1     138.266  79.108 222.659 -0.18 -0.03    +0.199 A  
DOCKED: ATOM     12  N   UNL     1     137.268  79.908 222.194 -0.08 +0.03    -0.183 NA 
DOCKED: ATOM     13  N   UNL     1     138.878  79.406 223.842 -0.17 +0.04    -0.339 N  
DOCKED: ATOM     14  C   UNL     1     136.864  81.002 222.889 -0.08 -0.04    +0.309 A  
DOCKED: ATOM     15  C   UNL     1     138.501  80.494 224.565 -0.27 -0.01    +0.129 A  
DOCKED: ATOM     16  C   UNL     1     137.478  81.321 224.100 -0.23 -0.02    +0.206 A  
DOCKED: ATOM     17  H   UNL     1     139.648  78.801 224.207 +0.09 -0.02    +0.168 HD 
DOCKED: ATOM     18  O   UNL     1     135.938  81.725 222.436 -0.04 +0.03    -0.264 OA 
DOCKED: ATOM     19  F   UNL     1     137.095  82.409 224.815 -0.07 +0.01    -0.199 F  
DOCKED: ENDBRANCH  10  11
DOCKED: ENDBRANCH   3   6
DOCKED: ENDBRANCH   2   3
DOCKED: ENDBRANCH   1   2
DOCKED: BRANCH   1  20
DOCKED: ATOM     20  C   UNL     1     142.656  76.043 219.008 -0.30 -0.00    +0.005 C  
DOCKED: BRANCH  20  21
DOCKED: ATOM     21  C   UNL     1     141.286  76.470 218.439 -0.12 -0.00    +0.010 C  
DOCKED: BRANCH  21  22
DOCKED: ATOM     22  C   UNL     1     141.195  77.962 218.072 -0.12 -0.05    +0.100 C  
DOCKED: BRANCH  22  23
DOCKED: ATOM     23  C   UNL     1     141.677  78.855 219.177 -0.18 -0.13    +0.224 C  
DOCKED: ATOM     24  N   UNL     1     141.127  78.729 220.498 -0.10 +0.15    -0.326 N  
DOCKED: ATOM     25  O   UNL     1     142.593  79.689 218.939 -0.23 +0.22    -0.275 OA 
DOCKED: ATOM     26  H   UNL     1     140.557  77.878 220.709 +0.07 -0.06    +0.169 HD 
DOCKED: BRANCH  24  27
DOCKED: ATOM     27  C   UNL     1     141.458  79.602 221.592 -0.37 -0.02    +0.041 A  
DOCKED: ATOM     28  C   UNL     1     142.054  79.066 222.743 -0.53 -0.01    +0.026 A  
DOCKED: ATOM     29  C   UNL     1     141.147  80.975 221.555 -0.36 -0.01    +0.026 A  
DOCKED: ATOM     30  C   UNL     1     142.370  79.894 223.827 -0.62 -0.00    +0.002 A  
DOCKED: ATOM     31  C   UNL     1     141.464  81.797 222.640 -0.45 -0.00    +0.002 A  
DOCKED: ATOM     32  C   UNL     1     142.078  81.259 223.773 -0.63 -0.00    +0.000 A  
DOCKED: ENDBRANCH  24  27
DOCKED: ENDBRANCH  22  23
DOCKED: ENDBRANCH  21  22
DOCKED: ENDBRANCH  20  21
DOCKED: ENDBRANCH   1  20
DOCKED: TORSDOF 10
DOCKED: TER
DOCKED: ENDMDL
________________________________________________________________________________


    FINAL DOCKED STATE:
    ________________________


Run:   7 / 20
Time taken for this run:   0.056s

DOCKED: MODEL        7
DOCKED: USER    Run = 7
DOCKED: USER
DOCKED: USER    Estimated Free Energy of Binding    =  -4.83 kcal/mol  [=(1)+(2)+(3)-(4)]
DOCKED: USER
DOCKED: USER    (1) Final Intermolecular Energy     =  -7.81 kcal/mol
DOCKED: USER        vdW + Hbond + desolv Energy     =  -7.79 kcal/mol
DOCKED: USER        Electrostatic Energy            =  -0.02 kcal/mol
DOCKED: USER        Moving Ligand-Fixed Receptor    =  -7.81 kcal/mol
DOCKED: USER        Moving Ligand-Moving Receptor   =  +0.00 kcal/mol
DOCKED: USER    (2) Final Total Internal Energy     =  -4.19 kcal/mol
DOCKED: USER    (3) Torsional Free Energy           =  +2.98 kcal/mol
DOCKED: USER    (4) Unbound System's Energy         =  -4.19 kcal/mol
DOCKED: USER
DOCKED: USER
DOCKED: REMARK SMILES O=C(CCCC/C=C(/O)c1nnc(-c2nc(=O)c(F)c[nH]2)o1)Nc1ccccc1
DOCKED: REMARK SMILES IDX 6 1 7 2 8 3 9 4 10 6 11 7 22 8 12 9 13 10 14 11 15 12 21 13
DOCKED: REMARK SMILES IDX 16 14 20 15 18 16 17 18 19 19 5 20 4 21 3 22 2 23 23 24 1 25
DOCKED: REMARK SMILES IDX 24 27 25 28 29 29 26 30 28 31 27 32
DOCKED: REMARK H PARENT 9 5 21 17 23 26
DOCKED: USER                              x       y       z     vdW  Elec       q    Type
DOCKED: USER                           _______ _______ _______ _____ _____    ______ ____
DOCKED: ROOT
DOCKED: ATOM      1  C   UNL     1     141.261  74.146 219.373 -0.11 -0.01    +0.031 C  
DOCKED: ENDROOT
DOCKED: BRANCH   1   2
DOCKED: ATOM      2  C   UNL     1     141.050  73.417 220.675 -0.21 -0.00    +0.025 C  
DOCKED: BRANCH   2   3
DOCKED: ATOM      3  C   UNL     1     140.293  73.840 221.707 -0.21 -0.02    +0.176 C  
DOCKED: BRANCH   3   4
DOCKED: ATOM      4  O   UNL     1     139.777  72.894 222.595 -0.47 +0.08    -0.503 OA 
DOCKED: ATOM      5  H   UNL     1     138.925  73.055 223.122 -0.40 -0.15    +0.293 HD 
DOCKED: ENDBRANCH   3   4
DOCKED: BRANCH   3   6
DOCKED: ATOM      6  C   UNL     1     139.967  75.257 221.977 -0.20 -0.04    +0.282 A  
DOCKED: ATOM      7  N   UNL     1     138.711  75.745 221.944 -0.24 +0.02    -0.104 NA 
DOCKED: ATOM      8  O   UNL     1     140.826  76.199 222.286 -0.30 +0.11    -0.411 OA 
DOCKED: ATOM      9  N   UNL     1     138.799  77.032 222.239 -0.23 +0.02    -0.104 NA 
DOCKED: ATOM     10  C   UNL     1     140.106  77.282 222.442 -0.23 -0.07    +0.284 A  
DOCKED: BRANCH  10  11
DOCKED: ATOM     11  C   UNL     1     140.652  78.600 222.792 -0.33 -0.06    +0.199 A  
DOCKED: ATOM     12  N   UNL     1     141.999  78.797 222.774 -0.35 +0.09    -0.183 NA 
DOCKED: ATOM     13  N   UNL     1     139.822  79.627 223.137 -0.16 +0.06    -0.339 N  
DOCKED: ATOM     14  C   UNL     1     142.537  80.003 223.091 -0.40 -0.10    +0.309 A  
DOCKED: ATOM     15  C   UNL     1     140.324  80.848 223.462 -0.36 -0.02    +0.129 A  
DOCKED: ATOM     16  C   UNL     1     141.702  81.064 223.445 -0.42 -0.03    +0.206 A  
DOCKED: ATOM     17  H   UNL     1     138.787  79.486 223.158 +0.07 -0.03    +0.168 HD 
DOCKED: ATOM     18  O   UNL     1     143.786  80.158 223.065 -0.46 +0.09    -0.264 OA 
DOCKED: ATOM     19  F   UNL     1     142.213  82.278 223.767 -0.04 +0.01    -0.199 F  
DOCKED: ENDBRANCH  10  11
DOCKED: ENDBRANCH   3   6
DOCKED: ENDBRANCH   2   3
DOCKED: ENDBRANCH   1   2
DOCKED: BRANCH   1  20
DOCKED: ATOM     20  C   UNL     1     142.447  73.592 218.562 -0.10 -0.00    +0.005 C  
DOCKED: BRANCH  20  21
DOCKED: ATOM     21  C   UNL     1     143.768  74.367 218.751 -0.24 -0.00    +0.010 C  
DOCKED: BRANCH  21  22
DOCKED: ATOM     22  C   UNL     1     143.699  75.477 219.814 -0.33 -0.06    +0.100 C  
DOCKED: BRANCH  22  23
DOCKED: ATOM     23  C   UNL     1     143.067  76.734 219.293 -0.26 -0.15    +0.224 C  
DOCKED: ATOM     24  N   UNL     1     142.253  77.543 220.156 -0.15 +0.23    -0.326 N  
DOCKED: ATOM     25  O   UNL     1     143.290  77.087 218.103 -0.26 +0.20    -0.275 OA 
DOCKED: ATOM     26  H   UNL     1     142.290  77.351 221.183 -0.41 -0.15    +0.169 HD 
DOCKED: BRANCH  24  27
DOCKED: ATOM     27  C   UNL     1     141.532  78.708 219.720 -0.25 -0.02    +0.041 A  
DOCKED: ATOM     28  C   UNL     1     140.194  78.577 219.315 -0.10 -0.01    +0.026 A  
DOCKED: ATOM     29  C   UNL     1     142.153  79.969 219.638 -0.25 -0.02    +0.026 A  
DOCKED: ATOM     30  C   UNL     1     139.477  79.693 218.871 -0.06 -0.00    +0.002 A  
DOCKED: ATOM     31  C   UNL     1     141.433  81.081 219.192 -0.26 -0.00    +0.002 A  
DOCKED: ATOM     32  C   UNL     1     140.095  80.945 218.813 -0.09 -0.00    +0.000 A  
DOCKED: ENDBRANCH  24  27
DOCKED: ENDBRANCH  22  23
DOCKED: ENDBRANCH  21  22
DOCKED: ENDBRANCH  20  21
DOCKED: ENDBRANCH   1  20
DOCKED: TORSDOF 10
DOCKED: TER
DOCKED: ENDMDL
________________________________________________________________________________


    FINAL DOCKED STATE:
    ________________________


Run:   8 / 20
Time taken for this run:   0.056s

DOCKED: MODEL        8
DOCKED: USER    Run = 8
DOCKED: USER
DOCKED: USER    Estimated Free Energy of Binding    =  -7.36 kcal/mol  [=(1)+(2)+(3)-(4)]
DOCKED: USER
DOCKED: USER    (1) Final Intermolecular Energy     = -10.35 kcal/mol
DOCKED: USER        vdW + Hbond + desolv Energy     =  -9.92 kcal/mol
DOCKED: USER        Electrostatic Energy            =  -0.43 kcal/mol
DOCKED: USER        Moving Ligand-Fixed Receptor    = -10.35 kcal/mol
DOCKED: USER        Moving Ligand-Moving Receptor   =  +0.00 kcal/mol
DOCKED: USER    (2) Final Total Internal Energy     =  -2.84 kcal/mol
DOCKED: USER    (3) Torsional Free Energy           =  +2.98 kcal/mol
DOCKED: USER    (4) Unbound System's Energy         =  -2.84 kcal/mol
DOCKED: USER
DOCKED: USER
DOCKED: REMARK SMILES O=C(CCCC/C=C(/O)c1nnc(-c2nc(=O)c(F)c[nH]2)o1)Nc1ccccc1
DOCKED: REMARK SMILES IDX 6 1 7 2 8 3 9 4 10 6 11 7 22 8 12 9 13 10 14 11 15 12 21 13
DOCKED: REMARK SMILES IDX 16 14 20 15 18 16 17 18 19 19 5 20 4 21 3 22 2 23 23 24 1 25
DOCKED: REMARK SMILES IDX 24 27 25 28 29 29 26 30 28 31 27 32
DOCKED: REMARK H PARENT 9 5 21 17 23 26
DOCKED: USER                              x       y       z     vdW  Elec       q    Type
DOCKED: USER                           _______ _______ _______ _____ _____    ______ ____
DOCKED: ROOT
DOCKED: ATOM      1  C   UNL     1     138.487  69.867 220.346 -0.06 -0.01    +0.031 C  
DOCKED: ENDROOT
DOCKED: BRANCH   1   2
DOCKED: ATOM      2  C   UNL     1     137.807  71.037 221.010 -0.06 -0.00    +0.025 C  
DOCKED: BRANCH   2   3
DOCKED: ATOM      3  C   UNL     1     138.324  71.805 221.989 -0.12 -0.04    +0.176 C  
DOCKED: BRANCH   3   4
DOCKED: ATOM      4  O   UNL     1     137.685  71.836 223.230 -0.06 +0.16    -0.503 OA 
DOCKED: ATOM      5  H   UNL     1     137.785  72.615 223.871 -0.40 -0.22    +0.293 HD 
DOCKED: ENDBRANCH   3   4
DOCKED: BRANCH   3   6
DOCKED: ATOM      6  C   UNL     1     139.544  72.629 221.846 -0.16 -0.05    +0.282 A  
DOCKED: ATOM      7  N   UNL     1     139.642  73.891 222.310 -0.79 +0.01    -0.104 NA 
DOCKED: ATOM      8  O   UNL     1     140.664  72.254 221.277 -0.10 +0.06    -0.411 OA 
DOCKED: ATOM      9  N   UNL     1     140.861  74.309 222.013 -0.68 +0.00    -0.104 NA 
DOCKED: ATOM     10  C   UNL     1     141.465  73.286 221.380 -0.14 -0.03    +0.284 A  
DOCKED: BRANCH  10  11
DOCKED: ATOM     11  C   UNL     1     142.842  73.324 220.869 -0.16 -0.04    +0.199 A  
DOCKED: ATOM     12  N   UNL     1     143.425  72.179 220.421 -0.18 +0.02    -0.183 NA 
DOCKED: ATOM     13  N   UNL     1     143.540  74.496 220.843 -0.13 +0.14    -0.339 N  
DOCKED: ATOM     14  C   UNL     1     144.696  72.180 219.941 -0.19 +0.00    +0.309 A  
DOCKED: ATOM     15  C   UNL     1     144.815  74.535 220.371 -0.38 -0.05    +0.129 A  
DOCKED: ATOM     16  C   UNL     1     145.424  73.369 219.906 -0.37 +0.00    +0.206 A  
DOCKED: ATOM     17  H   UNL     1     143.103  75.380 221.187 -0.34 -0.12    +0.168 HD 
DOCKED: ATOM     18  O   UNL     1     145.211  71.106 219.532 -0.22 -0.08    -0.264 OA 
DOCKED: ATOM     19  F   UNL     1     146.695  73.398 219.433 -0.11 -0.15    -0.199 F  
DOCKED: ENDBRANCH  10  11
DOCKED: ENDBRANCH   3   6
DOCKED: ENDBRANCH   2   3
DOCKED: ENDBRANCH   1   2
DOCKED: BRANCH   1  20
DOCKED: ATOM     20  C   UNL     1     139.568  69.223 221.233 -0.14 -0.00    +0.005 C  
DOCKED: BRANCH  20  21
DOCKED: ATOM     21  C   UNL     1     139.134  67.910 221.920 -0.16 -0.00    +0.010 C  
DOCKED: BRANCH  21  22
DOCKED: ATOM     22  C   UNL     1     138.154  68.108 223.089 -0.19 -0.01    +0.100 C  
DOCKED: BRANCH  22  23
DOCKED: ATOM     23  C   UNL     1     138.843  68.533 224.352 -0.24 -0.02    +0.224 C  
DOCKED: ATOM     24  N   UNL     1     139.034  69.929 224.635 -0.15 +0.05    -0.326 N  
DOCKED: ATOM     25  O   UNL     1     139.218  67.653 225.175 -0.86 -0.00    -0.275 OA 
DOCKED: ATOM     26  H   UNL     1     138.503  70.620 224.057 +0.07 -0.03    +0.169 HD 
DOCKED: BRANCH  24  27
DOCKED: ATOM     27  C   UNL     1     139.766  70.425 225.768 -0.45 -0.01    +0.041 A  
DOCKED: ATOM     28  C   UNL     1     140.671  71.484 225.593 -0.57 -0.00    +0.026 A  
DOCKED: ATOM     29  C   UNL     1     139.637  69.837 227.041 -0.50 -0.00    +0.026 A  
DOCKED: ATOM     30  C   UNL     1     141.407  71.973 226.677 -0.72 -0.00    +0.002 A  
DOCKED: ATOM     31  C   UNL     1     140.374  70.329 228.122 -0.62 -0.00    +0.002 A  
DOCKED: ATOM     32  C   UNL     1     141.255  71.398 227.942 -0.72 -0.00    +0.000 A  
DOCKED: ENDBRANCH  24  27
DOCKED: ENDBRANCH  22  23
DOCKED: ENDBRANCH  21  22
DOCKED: ENDBRANCH  20  21
DOCKED: ENDBRANCH   1  20
DOCKED: TORSDOF 10
DOCKED: TER
DOCKED: ENDMDL
________________________________________________________________________________


    FINAL DOCKED STATE:
    ________________________


Run:   9 / 20
Time taken for this run:   0.056s

DOCKED: MODEL        9
DOCKED: USER    Run = 9
DOCKED: USER
DOCKED: USER    Estimated Free Energy of Binding    =  -6.99 kcal/mol  [=(1)+(2)+(3)-(4)]
DOCKED: USER
DOCKED: USER    (1) Final Intermolecular Energy     =  -9.97 kcal/mol
DOCKED: USER        vdW + Hbond + desolv Energy     =  -9.90 kcal/mol
DOCKED: USER        Electrostatic Energy            =  -0.07 kcal/mol
DOCKED: USER        Moving Ligand-Fixed Receptor    =  -9.97 kcal/mol
DOCKED: USER        Moving Ligand-Moving Receptor   =  +0.00 kcal/mol
DOCKED: USER    (2) Final Total Internal Energy     =  -2.60 kcal/mol
DOCKED: USER    (3) Torsional Free Energy           =  +2.98 kcal/mol
DOCKED: USER    (4) Unbound System's Energy         =  -2.60 kcal/mol
DOCKED: USER
DOCKED: USER
DOCKED: REMARK SMILES O=C(CCCC/C=C(/O)c1nnc(-c2nc(=O)c(F)c[nH]2)o1)Nc1ccccc1
DOCKED: REMARK SMILES IDX 6 1 7 2 8 3 9 4 10 6 11 7 22 8 12 9 13 10 14 11 15 12 21 13
DOCKED: REMARK SMILES IDX 16 14 20 15 18 16 17 18 19 19 5 20 4 21 3 22 2 23 23 24 1 25
DOCKED: REMARK SMILES IDX 24 27 25 28 29 29 26 30 28 31 27 32
DOCKED: REMARK H PARENT 9 5 21 17 23 26
DOCKED: USER                              x       y       z     vdW  Elec       q    Type
DOCKED: USER                           _______ _______ _______ _____ _____    ______ ____
DOCKED: ROOT
DOCKED: ATOM      1  C   UNL     1     139.469  70.712 220.496 -0.09 -0.01    +0.031 C  
DOCKED: ENDROOT
DOCKED: BRANCH   1   2
DOCKED: ATOM      2  C   UNL     1     138.365  71.669 220.863 -0.08 -0.00    +0.025 C  
DOCKED: BRANCH   2   3
DOCKED: ATOM      3  C   UNL     1     138.368  72.523 221.907 -0.13 -0.04    +0.176 C  
DOCKED: BRANCH   3   4
DOCKED: ATOM      4  O   UNL     1     137.484  72.298 222.964 -0.04 +0.18    -0.503 OA 
DOCKED: ATOM      5  H   UNL     1     137.332  72.981 223.698 -0.48 -0.21    +0.293 HD 
DOCKED: ENDBRANCH   3   4
DOCKED: BRANCH   3   6
DOCKED: ATOM      6  C   UNL     1     139.257  73.698 222.019 -0.14 -0.06    +0.282 A  
DOCKED: ATOM      7  N   UNL     1     140.588  73.641 221.810 -0.64 +0.01    -0.104 NA 
DOCKED: ATOM      8  O   UNL     1     138.885  74.920 222.317 -0.33 +0.11    -0.411 OA 
DOCKED: ATOM      9  N   UNL     1     141.051  74.867 221.989 -0.58 +0.01    -0.104 NA 
DOCKED: ATOM     10  C   UNL     1     139.986  75.629 222.299 -0.14 -0.04    +0.284 A  
DOCKED: BRANCH  10  11
DOCKED: ATOM     11  C   UNL     1     140.053  77.069 222.583 -0.22 -0.05    +0.199 A  
DOCKED: ATOM     12  N   UNL     1     141.264  77.668 222.743 -0.31 +0.08    -0.183 NA 
DOCKED: ATOM     13  N   UNL     1     138.912  77.809 222.690 -0.14 +0.06    -0.339 N  
DOCKED: ATOM     14  C   UNL     1     141.362  78.997 223.006 -0.32 -0.10    +0.309 A  
DOCKED: ATOM     15  C   UNL     1     138.969  79.143 222.953 -0.26 -0.02    +0.129 A  
DOCKED: ATOM     16  C   UNL     1     140.205  79.769 223.117 -0.30 -0.04    +0.206 A  
DOCKED: ATOM     17  H   UNL     1     137.976  77.360 222.572 +0.05 -0.03    +0.168 HD 
DOCKED: ATOM     18  O   UNL     1     142.496  79.526 223.149 -0.43 +0.10    -0.264 OA 
DOCKED: ATOM     19  F   UNL     1     140.273  81.098 223.379 -0.11 +0.02    -0.199 F  
DOCKED: ENDBRANCH  10  11
DOCKED: ENDBRANCH   3   6
DOCKED: ENDBRANCH   2   3
DOCKED: ENDBRANCH   1   2
DOCKED: BRANCH   1  20
DOCKED: ATOM     20  C   UNL     1     139.893  69.810 221.669 -0.07 -0.00    +0.005 C  
DOCKED: BRANCH  20  21
DOCKED: ATOM     21  C   UNL     1     139.146  68.460 221.739 -0.16 -0.00    +0.010 C  
DOCKED: BRANCH  21  22
DOCKED: ATOM     22  C   UNL     1     138.200  68.328 222.945 -0.21 -0.01    +0.100 C  
DOCKED: BRANCH  22  23
DOCKED: ATOM     23  C   UNL     1     138.868  68.677 224.241 -0.23 -0.03    +0.224 C  
DOCKED: ATOM     24  N   UNL     1     139.084  70.054 224.593 -0.15 +0.05    -0.326 N  
DOCKED: ATOM     25  O   UNL     1     139.204  67.752 225.030 -0.83 +0.00    -0.275 OA 
DOCKED: ATOM     26  H   UNL     1     138.582  70.783 224.037 +0.06 -0.04    +0.169 HD 
DOCKED: BRANCH  24  27
DOCKED: ATOM     27  C   UNL     1     139.799  70.480 225.765 -0.45 -0.01    +0.041 A  
DOCKED: ATOM     28  C   UNL     1     139.557  69.839 226.990 -0.48 -0.00    +0.026 A  
DOCKED: ATOM     29  C   UNL     1     140.698  71.562 225.724 -0.58 -0.00    +0.026 A  
DOCKED: ATOM     30  C   UNL     1     140.229  70.246 228.147 -0.62 -0.00    +0.002 A  
DOCKED: ATOM     31  C   UNL     1     141.367  71.967 226.883 -0.75 -0.00    +0.002 A  
DOCKED: ATOM     32  C   UNL     1     141.137  71.307 228.093 -0.73 -0.00    +0.000 A  
DOCKED: ENDBRANCH  24  27
DOCKED: ENDBRANCH  22  23
DOCKED: ENDBRANCH  21  22
DOCKED: ENDBRANCH  20  21
DOCKED: ENDBRANCH   1  20
DOCKED: TORSDOF 10
DOCKED: TER
DOCKED: ENDMDL
________________________________________________________________________________


    FINAL DOCKED STATE:
    ________________________


Run:   10 / 20
Time taken for this run:   0.056s

DOCKED: MODEL        10
DOCKED: USER    Run = 10
DOCKED: USER
DOCKED: USER    Estimated Free Energy of Binding    =  -5.35 kcal/mol  [=(1)+(2)+(3)-(4)]
DOCKED: USER
DOCKED: USER    (1) Final Intermolecular Energy     =  -8.34 kcal/mol
DOCKED: USER        vdW + Hbond + desolv Energy     =  -8.27 kcal/mol
DOCKED: USER        Electrostatic Energy            =  -0.07 kcal/mol
DOCKED: USER        Moving Ligand-Fixed Receptor    =  -8.34 kcal/mol
DOCKED: USER        Moving Ligand-Moving Receptor   =  +0.00 kcal/mol
DOCKED: USER    (2) Final Total Internal Energy     =  -3.79 kcal/mol
DOCKED: USER    (3) Torsional Free Energy           =  +2.98 kcal/mol
DOCKED: USER    (4) Unbound System's Energy         =  -3.79 kcal/mol
DOCKED: USER
DOCKED: USER
DOCKED: REMARK SMILES O=C(CCCC/C=C(/O)c1nnc(-c2nc(=O)c(F)c[nH]2)o1)Nc1ccccc1
DOCKED: REMARK SMILES IDX 6 1 7 2 8 3 9 4 10 6 11 7 22 8 12 9 13 10 14 11 15 12 21 13
DOCKED: REMARK SMILES IDX 16 14 20 15 18 16 17 18 19 19 5 20 4 21 3 22 2 23 23 24 1 25
DOCKED: REMARK SMILES IDX 24 27 25 28 29 29 26 30 28 31 27 32
DOCKED: REMARK H PARENT 9 5 21 17 23 26
DOCKED: USER                              x       y       z     vdW  Elec       q    Type
DOCKED: USER                           _______ _______ _______ _____ _____    ______ ____
DOCKED: ROOT
DOCKED: ATOM      1  C   UNL     1     140.733  74.443 219.094 -0.07 -0.01    +0.031 C  
DOCKED: ENDROOT
DOCKED: BRANCH   1   2
DOCKED: ATOM      2  C   UNL     1     139.681  74.255 220.157 -0.11 -0.01    +0.025 C  
DOCKED: BRANCH   2   3
DOCKED: ATOM      3  C   UNL     1     139.824  74.521 221.470 -0.22 -0.03    +0.176 C  
DOCKED: BRANCH   3   4
DOCKED: ATOM      4  O   UNL     1     139.919  73.456 222.367 -0.70 +0.05    -0.503 OA 
DOCKED: ATOM      5  H   UNL     1     139.303  73.366 223.168 -0.41 -0.12    +0.293 HD 
DOCKED: ENDBRANCH   3   4
DOCKED: BRANCH   3   6
DOCKED: ATOM      6  C   UNL     1     139.893  75.883 222.042 -0.23 -0.06    +0.282 A  
DOCKED: ATOM      7  N   UNL     1     140.967  76.350 222.710 -0.28 +0.03    -0.104 NA 
DOCKED: ATOM      8  O   UNL     1     138.956  76.798 221.970 -0.12 +0.09    -0.411 OA 
DOCKED: ATOM      9  N   UNL     1     140.680  77.592 223.065 -0.27 +0.03    -0.104 NA 
DOCKED: ATOM     10  C   UNL     1     139.441  77.839 222.599 -0.19 -0.06    +0.284 A  
DOCKED: BRANCH  10  11
DOCKED: ATOM     11  C   UNL     1     138.728  79.111 222.777 -0.20 -0.03    +0.199 A  
DOCKED: ATOM     12  N   UNL     1     138.718  79.712 223.997 -0.26 +0.02    -0.183 NA 
DOCKED: ATOM     13  N   UNL     1     138.073  79.692 221.730 -0.03 +0.06    -0.339 N  
DOCKED: ATOM     14  C   UNL     1     138.069  80.889 224.196 -0.23 -0.03    +0.309 A  
DOCKED: ATOM     15  C   UNL     1     137.412  80.869 221.891 -0.09 -0.02    +0.129 A  
DOCKED: ATOM     16  C   UNL     1     137.396  81.497 223.136 -0.15 -0.02    +0.206 A  
DOCKED: ATOM     17  H   UNL     1     138.071  79.237 220.789 +0.04 -0.03    +0.168 HD 
DOCKED: ATOM     18  O   UNL     1     138.077  81.424 225.336 -0.29 +0.02    -0.264 OA 
DOCKED: ATOM     19  F   UNL     1     136.739  82.671 223.306 -0.03 +0.02    -0.199 F  
DOCKED: ENDBRANCH  10  11
DOCKED: ENDBRANCH   3   6
DOCKED: ENDBRANCH   2   3
DOCKED: ENDBRANCH   1   2
DOCKED: BRANCH   1  20
DOCKED: ATOM     20  C   UNL     1     142.165  74.414 219.658 -0.21 -0.00    +0.005 C  
DOCKED: BRANCH  20  21
DOCKED: ATOM     21  C   UNL     1     142.860  75.792 219.710 -0.36 -0.01    +0.010 C  
DOCKED: BRANCH  21  22
DOCKED: ATOM     22  C   UNL     1     142.184  76.870 218.845 -0.24 -0.05    +0.100 C  
DOCKED: BRANCH  22  23
DOCKED: ATOM     23  C   UNL     1     142.199  78.222 219.494 -0.13 -0.16    +0.224 C  
DOCKED: ATOM     24  N   UNL     1     142.107  78.336 220.923 -0.11 +0.23    -0.326 N  
DOCKED: ATOM     25  O   UNL     1     142.330  79.249 218.774 -0.23 +0.21    -0.275 OA 
DOCKED: ATOM     26  H   UNL     1     142.243  77.469 221.491 -0.44 -0.15    +0.169 HD 
DOCKED: BRANCH  24  27
DOCKED: ATOM     27  C   UNL     1     142.017  79.589 221.623 -0.40 -0.02    +0.041 A  
DOCKED: ATOM     28  C   UNL     1     142.682  79.740 222.850 -0.60 -0.01    +0.026 A  
DOCKED: ATOM     29  C   UNL     1     141.233  80.650 221.133 -0.33 -0.01    +0.026 A  
DOCKED: ATOM     30  C   UNL     1     142.596  80.944 223.558 -0.64 -0.00    +0.002 A  
DOCKED: ATOM     31  C   UNL     1     141.150  81.851 221.844 -0.39 -0.00    +0.002 A  
DOCKED: ATOM     32  C   UNL     1     141.834  82.000 223.053 -0.34 -0.00    +0.000 A  
DOCKED: ENDBRANCH  24  27
DOCKED: ENDBRANCH  22  23
DOCKED: ENDBRANCH  21  22
DOCKED: ENDBRANCH  20  21
DOCKED: ENDBRANCH   1  20
DOCKED: TORSDOF 10
DOCKED: TER
DOCKED: ENDMDL
________________________________________________________________________________


    FINAL DOCKED STATE:
    ________________________


Run:   11 / 20
Time taken for this run:   0.056s

DOCKED: MODEL        11
DOCKED: USER    Run = 11
DOCKED: USER
DOCKED: USER    Estimated Free Energy of Binding    =  -6.28 kcal/mol  [=(1)+(2)+(3)-(4)]
DOCKED: USER
DOCKED: USER    (1) Final Intermolecular Energy     =  -9.26 kcal/mol
DOCKED: USER        vdW + Hbond + desolv Energy     =  -9.07 kcal/mol
DOCKED: USER        Electrostatic Energy            =  -0.18 kcal/mol
DOCKED: USER        Moving Ligand-Fixed Receptor    =  -9.26 kcal/mol
DOCKED: USER        Moving Ligand-Moving Receptor   =  +0.00 kcal/mol
DOCKED: USER    (2) Final Total Internal Energy     =  -2.56 kcal/mol
DOCKED: USER    (3) Torsional Free Energy           =  +2.98 kcal/mol
DOCKED: USER    (4) Unbound System's Energy         =  -2.56 kcal/mol
DOCKED: USER
DOCKED: USER
DOCKED: REMARK SMILES O=C(CCCC/C=C(/O)c1nnc(-c2nc(=O)c(F)c[nH]2)o1)Nc1ccccc1
DOCKED: REMARK SMILES IDX 6 1 7 2 8 3 9 4 10 6 11 7 22 8 12 9 13 10 14 11 15 12 21 13
DOCKED: REMARK SMILES IDX 16 14 20 15 18 16 17 18 19 19 5 20 4 21 3 22 2 23 23 24 1 25
DOCKED: REMARK SMILES IDX 24 27 25 28 29 29 26 30 28 31 27 32
DOCKED: REMARK H PARENT 9 5 21 17 23 26
DOCKED: USER                              x       y       z     vdW  Elec       q    Type
DOCKED: USER                           _______ _______ _______ _____ _____    ______ ____
DOCKED: ROOT
DOCKED: ATOM      1  C   UNL     1     135.712  74.927 223.508 -0.24 -0.01    +0.031 C  
DOCKED: ENDROOT
DOCKED: BRANCH   1   2
DOCKED: ATOM      2  C   UNL     1     136.269  74.483 222.180 -0.15 -0.01    +0.025 C  
DOCKED: BRANCH   2   3
DOCKED: ATOM      3  C   UNL     1     137.531  74.071 221.946 -0.11 -0.05    +0.176 C  
DOCKED: BRANCH   3   4
DOCKED: ATOM      4  O   UNL     1     137.744  72.754 221.533 -0.02 +0.12    -0.503 OA 
DOCKED: ATOM      5  H   UNL     1     138.668  72.396 221.319 +0.06 -0.06    +0.293 HD 
DOCKED: ENDBRANCH   3   4
DOCKED: BRANCH   3   6
DOCKED: ATOM      6  C   UNL     1     138.728  74.926 222.093 -0.12 -0.07    +0.282 A  
DOCKED: ATOM      7  N   UNL     1     139.987  74.466 221.946 -0.81 +0.01    -0.104 NA 
DOCKED: ATOM      8  O   UNL     1     138.729  76.209 222.365 -0.19 +0.09    -0.411 OA 
DOCKED: ATOM      9  N   UNL     1     140.791  75.499 222.139 -0.49 +0.02    -0.104 NA 
DOCKED: ATOM     10  C   UNL     1     139.993  76.553 222.395 -0.22 -0.06    +0.284 A  
DOCKED: BRANCH  10  11
DOCKED: ATOM     11  C   UNL     1     140.479  77.912 222.673 -0.31 -0.06    +0.199 A  
DOCKED: ATOM     12  N   UNL     1     139.644  78.820 223.248 -0.24 +0.03    -0.183 NA 
DOCKED: ATOM     13  N   UNL     1     141.756  78.270 222.357 -0.16 +0.18    -0.339 N  
DOCKED: ATOM     14  C   UNL     1     140.061  80.084 223.519 -0.25 -0.05    +0.309 A  
DOCKED: ATOM     15  C   UNL     1     142.209  79.527 222.613 -0.48 -0.05    +0.129 A  
DOCKED: ATOM     16  C   UNL     1     141.365  80.467 223.203 -0.39 -0.04    +0.206 A  
DOCKED: ATOM     17  H   UNL     1     142.405  77.582 221.912 -0.43 -0.18    +0.168 HD 
DOCKED: ATOM     18  O   UNL     1     139.268  80.904 224.052 -0.28 +0.03    -0.264 OA 
DOCKED: ATOM     19  F   UNL     1     141.807  81.723 223.463 -0.17 +0.02    -0.199 F  
DOCKED: ENDBRANCH  10  11
DOCKED: ENDBRANCH   3   6
DOCKED: ENDBRANCH   2   3
DOCKED: ENDBRANCH   1   2
DOCKED: BRANCH   1  20
DOCKED: ATOM     20  C   UNL     1     135.473  73.756 224.478 -0.22 -0.00    +0.005 C  
DOCKED: BRANCH  20  21
DOCKED: ATOM     21  C   UNL     1     134.704  72.565 223.865 -0.17 -0.00    +0.010 C  
DOCKED: BRANCH  21  22
DOCKED: ATOM     22  C   UNL     1     135.600  71.545 223.141 -0.11 -0.02    +0.100 C  
DOCKED: BRANCH  22  23
DOCKED: ATOM     23  C   UNL     1     136.608  70.914 224.055 -0.12 -0.04    +0.224 C  
DOCKED: ATOM     24  N   UNL     1     137.974  71.360 224.041 -0.09 +0.09    -0.326 N  
DOCKED: ATOM     25  O   UNL     1     136.233  70.016 224.858 -0.15 +0.02    -0.275 OA 
DOCKED: ATOM     26  H   UNL     1     138.189  72.255 223.546 -0.36 -0.08    +0.169 HD 
DOCKED: BRANCH  24  27
DOCKED: ATOM     27  C   UNL     1     139.025  70.750 224.810 -0.33 -0.01    +0.041 A  
DOCKED: ATOM     28  C   UNL     1     138.953  69.381 225.108 -0.38 -0.00    +0.026 A  
DOCKED: ATOM     29  C   UNL     1     140.098  71.507 225.317 -0.45 -0.00    +0.026 A  
DOCKED: ATOM     30  C   UNL     1     139.955  68.769 225.868 -0.52 -0.00    +0.002 A  
DOCKED: ATOM     31  C   UNL     1     141.097  70.892 226.076 -0.63 -0.00    +0.002 A  
DOCKED: ATOM     32  C   UNL     1     141.029  69.523 226.349 -0.55 -0.00    +0.000 A  
DOCKED: ENDBRANCH  24  27
DOCKED: ENDBRANCH  22  23
DOCKED: ENDBRANCH  21  22
DOCKED: ENDBRANCH  20  21
DOCKED: ENDBRANCH   1  20
DOCKED: TORSDOF 10
DOCKED: TER
DOCKED: ENDMDL
________________________________________________________________________________


    FINAL DOCKED STATE:
    ________________________


Run:   12 / 20
Time taken for this run:   0.056s

DOCKED: MODEL        12
DOCKED: USER    Run = 12
DOCKED: USER
DOCKED: USER    Estimated Free Energy of Binding    =  -7.38 kcal/mol  [=(1)+(2)+(3)-(4)]
DOCKED: USER
DOCKED: USER    (1) Final Intermolecular Energy     = -10.36 kcal/mol
DOCKED: USER        vdW + Hbond + desolv Energy     = -10.16 kcal/mol
DOCKED: USER        Electrostatic Energy            =  -0.20 kcal/mol
DOCKED: USER        Moving Ligand-Fixed Receptor    = -10.36 kcal/mol
DOCKED: USER        Moving Ligand-Moving Receptor   =  +0.00 kcal/mol
DOCKED: USER    (2) Final Total Internal Energy     =  -2.48 kcal/mol
DOCKED: USER    (3) Torsional Free Energy           =  +2.98 kcal/mol
DOCKED: USER    (4) Unbound System's Energy         =  -2.48 kcal/mol
DOCKED: USER
DOCKED: USER
DOCKED: REMARK SMILES O=C(CCCC/C=C(/O)c1nnc(-c2nc(=O)c(F)c[nH]2)o1)Nc1ccccc1
DOCKED: REMARK SMILES IDX 6 1 7 2 8 3 9 4 10 6 11 7 22 8 12 9 13 10 14 11 15 12 21 13
DOCKED: REMARK SMILES IDX 16 14 20 15 18 16 17 18 19 19 5 20 4 21 3 22 2 23 23 24 1 25
DOCKED: REMARK SMILES IDX 24 27 25 28 29 29 26 30 28 31 27 32
DOCKED: REMARK H PARENT 9 5 21 17 23 26
DOCKED: USER                              x       y       z     vdW  Elec       q    Type
DOCKED: USER                           _______ _______ _______ _____ _____    ______ ____
DOCKED: ROOT
DOCKED: ATOM      1  C   UNL     1     138.567  70.600 220.353 -0.06 -0.01    +0.031 C  
DOCKED: ENDROOT
DOCKED: BRANCH   1   2
DOCKED: ATOM      2  C   UNL     1     137.962  71.918 220.763 -0.07 -0.00    +0.025 C  
DOCKED: BRANCH   2   3
DOCKED: ATOM      3  C   UNL     1     138.218  72.588 221.905 -0.13 -0.05    +0.176 C  
DOCKED: BRANCH   3   4
DOCKED: ATOM      4  O   UNL     1     137.566  72.197 223.076 -0.04 +0.18    -0.503 OA 
DOCKED: ATOM      5  H   UNL     1     137.326  72.857 223.808 -0.48 -0.20    +0.293 HD 
DOCKED: ENDBRANCH   3   4
DOCKED: BRANCH   3   6
DOCKED: ATOM      6  C   UNL     1     139.158  73.724 222.012 -0.13 -0.07    +0.282 A  
DOCKED: ATOM      7  N   UNL     1     140.485  73.606 221.807 -0.63 +0.01    -0.104 NA 
DOCKED: ATOM      8  O   UNL     1     138.839  74.963 222.299 -0.29 +0.11    -0.411 OA 
DOCKED: ATOM      9  N   UNL     1     141.002  74.812 221.979 -0.61 +0.01    -0.104 NA 
DOCKED: ATOM     10  C   UNL     1     139.971  75.623 222.280 -0.15 -0.04    +0.284 A  
DOCKED: BRANCH  10  11
DOCKED: ATOM     11  C   UNL     1     140.100  77.061 222.554 -0.24 -0.05    +0.199 A  
DOCKED: ATOM     12  N   UNL     1     138.984  77.804 222.786 -0.20 +0.03    -0.183 NA 
DOCKED: ATOM     13  N   UNL     1     141.327  77.656 222.574 -0.18 +0.16    -0.339 N  
DOCKED: ATOM     14  C   UNL     1     139.068  79.135 223.043 -0.19 -0.05    +0.309 A  
DOCKED: ATOM     15  C   UNL     1     141.451  78.987 222.827 -0.44 -0.05    +0.129 A  
DOCKED: ATOM     16  C   UNL     1     140.315  79.760 223.069 -0.30 -0.04    +0.206 A  
DOCKED: ATOM     17  H   UNL     1     142.191  77.096 222.394 -0.44 -0.17    +0.168 HD 
DOCKED: ATOM     18  O   UNL     1     138.019  79.800 223.255 -0.19 +0.04    -0.264 OA 
DOCKED: ATOM     19  F   UNL     1     140.428  81.087 223.323 -0.11 +0.03    -0.199 F  
DOCKED: ENDBRANCH  10  11
DOCKED: ENDBRANCH   3   6
DOCKED: ENDBRANCH   2   3
DOCKED: ENDBRANCH   1   2
DOCKED: BRANCH   1  20
DOCKED: ATOM     20  C   UNL     1     139.543  70.038 221.402 -0.14 -0.00    +0.005 C  
DOCKED: BRANCH  20  21
DOCKED: ATOM     21  C   UNL     1     139.320  68.551 221.751 -0.13 -0.00    +0.010 C  
DOCKED: BRANCH  21  22
DOCKED: ATOM     22  C   UNL     1     138.343  68.319 222.917 -0.22 -0.01    +0.100 C  
DOCKED: BRANCH  22  23
DOCKED: ATOM     23  C   UNL     1     138.938  68.676 224.246 -0.23 -0.03    +0.224 C  
DOCKED: ATOM     24  N   UNL     1     139.192  70.051 224.576 -0.15 +0.05    -0.326 N  
DOCKED: ATOM     25  O   UNL     1     139.178  67.760 225.080 -0.83 +0.00    -0.275 OA 
DOCKED: ATOM     26  H   UNL     1     138.762  70.786 223.969 +0.07 -0.04    +0.169 HD 
DOCKED: BRANCH  24  27
DOCKED: ATOM     27  C   UNL     1     139.846  70.480 225.783 -0.46 -0.01    +0.041 A  
DOCKED: ATOM     28  C   UNL     1     139.557  69.826 226.991 -0.48 -0.00    +0.026 A  
DOCKED: ATOM     29  C   UNL     1     140.731  71.575 225.790 -0.58 -0.00    +0.026 A  
DOCKED: ATOM     30  C   UNL     1     140.168  70.236 228.181 -0.62 -0.00    +0.002 A  
DOCKED: ATOM     31  C   UNL     1     141.339  71.980 226.981 -0.76 -0.00    +0.002 A  
DOCKED: ATOM     32  C   UNL     1     141.063  71.310 228.175 -0.75 -0.00    +0.000 A  
DOCKED: ENDBRANCH  24  27
DOCKED: ENDBRANCH  22  23
DOCKED: ENDBRANCH  21  22
DOCKED: ENDBRANCH  20  21
DOCKED: ENDBRANCH   1  20
DOCKED: TORSDOF 10
DOCKED: TER
DOCKED: ENDMDL
________________________________________________________________________________


    FINAL DOCKED STATE:
    ________________________


Run:   13 / 20
Time taken for this run:   0.056s

DOCKED: MODEL        13
DOCKED: USER    Run = 13
DOCKED: USER
DOCKED: USER    Estimated Free Energy of Binding    =  -7.37 kcal/mol  [=(1)+(2)+(3)-(4)]
DOCKED: USER
DOCKED: USER    (1) Final Intermolecular Energy     = -10.35 kcal/mol
DOCKED: USER        vdW + Hbond + desolv Energy     =  -9.94 kcal/mol
DOCKED: USER        Electrostatic Energy            =  -0.42 kcal/mol
DOCKED: USER        Moving Ligand-Fixed Receptor    = -10.35 kcal/mol
DOCKED: USER        Moving Ligand-Moving Receptor   =  +0.00 kcal/mol
DOCKED: USER    (2) Final Total Internal Energy     =  -2.67 kcal/mol
DOCKED: USER    (3) Torsional Free Energy           =  +2.98 kcal/mol
DOCKED: USER    (4) Unbound System's Energy         =  -2.67 kcal/mol
DOCKED: USER
DOCKED: USER
DOCKED: REMARK SMILES O=C(CCCC/C=C(/O)c1nnc(-c2nc(=O)c(F)c[nH]2)o1)Nc1ccccc1
DOCKED: REMARK SMILES IDX 6 1 7 2 8 3 9 4 10 6 11 7 22 8 12 9 13 10 14 11 15 12 21 13
DOCKED: REMARK SMILES IDX 16 14 20 15 18 16 17 18 19 19 5 20 4 21 3 22 2 23 23 24 1 25
DOCKED: REMARK SMILES IDX 24 27 25 28 29 29 26 30 28 31 27 32
DOCKED: REMARK H PARENT 9 5 21 17 23 26
DOCKED: USER                              x       y       z     vdW  Elec       q    Type
DOCKED: USER                           _______ _______ _______ _____ _____    ______ ____
DOCKED: ROOT
DOCKED: ATOM      1  C   UNL     1     137.265  69.762 221.189 -0.06 -0.01    +0.031 C  
DOCKED: ENDROOT
DOCKED: BRANCH   1   2
DOCKED: ATOM      2  C   UNL     1     137.656  71.217 221.165 -0.07 -0.00    +0.025 C  
DOCKED: BRANCH   2   3
DOCKED: ATOM      3  C   UNL     1     138.301  71.882 222.144 -0.13 -0.04    +0.176 C  
DOCKED: BRANCH   3   4
DOCKED: ATOM      4  O   UNL     1     137.817  71.794 223.451 -0.06 +0.17    -0.503 OA 
DOCKED: ATOM      5  H   UNL     1     137.687  72.612 224.036 -0.42 -0.22    +0.293 HD 
DOCKED: ENDBRANCH   3   4
DOCKED: BRANCH   3   6
DOCKED: ATOM      6  C   UNL     1     139.510  72.708 221.934 -0.16 -0.05    +0.282 A  
DOCKED: ATOM      7  N   UNL     1     139.592  74.002 222.301 -0.78 +0.02    -0.104 NA 
DOCKED: ATOM      8  O   UNL     1     140.633  72.305 221.391 -0.11 +0.05    -0.411 OA 
DOCKED: ATOM      9  N   UNL     1     140.805  74.412 221.968 -0.73 +0.00    -0.104 NA 
DOCKED: ATOM     10  C   UNL     1     141.421  73.351 221.412 -0.14 -0.03    +0.284 A  
DOCKED: BRANCH  10  11
DOCKED: ATOM     11  C   UNL     1     142.796  73.368 220.895 -0.13 -0.03    +0.199 A  
DOCKED: ATOM     12  N   UNL     1     143.371  72.208 220.477 -0.18 +0.02    -0.183 NA 
DOCKED: ATOM     13  N   UNL     1     143.500  74.535 220.833 -0.12 +0.14    -0.339 N  
DOCKED: ATOM     14  C   UNL     1     144.640  72.189 219.993 -0.19 -0.00    +0.309 A  
DOCKED: ATOM     15  C   UNL     1     144.773  74.555 220.355 -0.37 -0.05    +0.129 A  
DOCKED: ATOM     16  C   UNL     1     145.374  73.373 219.921 -0.37 -0.00    +0.206 A  
DOCKED: ATOM     17  H   UNL     1     143.069  75.431 221.154 -0.34 -0.12    +0.168 HD 
DOCKED: ATOM     18  O   UNL     1     145.149  71.101 219.612 -0.21 -0.07    -0.264 OA 
DOCKED: ATOM     19  F   UNL     1     146.643  73.382 219.443 -0.11 -0.15    -0.199 F  
DOCKED: ENDBRANCH  10  11
DOCKED: ENDBRANCH   3   6
DOCKED: ENDBRANCH   2   3
DOCKED: ENDBRANCH   1   2
DOCKED: BRANCH   1  20
DOCKED: ATOM     20  C   UNL     1     138.390  68.833 220.697 -0.10 -0.00    +0.005 C  
DOCKED: BRANCH  20  21
DOCKED: ATOM     21  C   UNL     1     139.230  68.193 221.823 -0.14 -0.00    +0.010 C  
DOCKED: BRANCH  21  22
DOCKED: ATOM     22  C   UNL     1     138.411  67.771 223.055 -0.20 -0.01    +0.100 C  
DOCKED: BRANCH  22  23
DOCKED: ATOM     23  C   UNL     1     139.002  68.274 224.339 -0.19 -0.02    +0.224 C  
DOCKED: ATOM     24  N   UNL     1     139.160  69.685 224.555 -0.14 +0.05    -0.326 N  
DOCKED: ATOM     25  O   UNL     1     139.322  67.446 225.235 -0.89 -0.00    -0.275 OA 
DOCKED: ATOM     26  H   UNL     1     138.667  70.337 223.902 +0.07 -0.03    +0.169 HD 
DOCKED: BRANCH  24  27
DOCKED: ATOM     27  C   UNL     1     139.803  70.253 225.709 -0.45 -0.01    +0.041 A  
DOCKED: ATOM     28  C   UNL     1     140.684  71.333 225.544 -0.57 -0.00    +0.026 A  
DOCKED: ATOM     29  C   UNL     1     139.609  69.716 226.996 -0.51 -0.00    +0.026 A  
DOCKED: ATOM     30  C   UNL     1     141.334  71.891 226.650 -0.74 -0.00    +0.002 A  
DOCKED: ATOM     31  C   UNL     1     140.260  70.278 228.098 -0.63 -0.00    +0.002 A  
DOCKED: ATOM     32  C   UNL     1     141.118  71.367 227.927 -0.77 -0.00    +0.000 A  
DOCKED: ENDBRANCH  24  27
DOCKED: ENDBRANCH  22  23
DOCKED: ENDBRANCH  21  22
DOCKED: ENDBRANCH  20  21
DOCKED: ENDBRANCH   1  20
DOCKED: TORSDOF 10
DOCKED: TER
DOCKED: ENDMDL
________________________________________________________________________________


    FINAL DOCKED STATE:
    ________________________


Run:   14 / 20
Time taken for this run:   0.056s

DOCKED: MODEL        14
DOCKED: USER    Run = 14
DOCKED: USER
DOCKED: USER    Estimated Free Energy of Binding    =  -7.45 kcal/mol  [=(1)+(2)+(3)-(4)]
DOCKED: USER
DOCKED: USER    (1) Final Intermolecular Energy     = -10.44 kcal/mol
DOCKED: USER        vdW + Hbond + desolv Energy     = -10.18 kcal/mol
DOCKED: USER        Electrostatic Energy            =  -0.26 kcal/mol
DOCKED: USER        Moving Ligand-Fixed Receptor    = -10.44 kcal/mol
DOCKED: USER        Moving Ligand-Moving Receptor   =  +0.00 kcal/mol
DOCKED: USER    (2) Final Total Internal Energy     =  -2.44 kcal/mol
DOCKED: USER    (3) Torsional Free Energy           =  +2.98 kcal/mol
DOCKED: USER    (4) Unbound System's Energy         =  -2.44 kcal/mol
DOCKED: USER
DOCKED: USER
DOCKED: REMARK SMILES O=C(CCCC/C=C(/O)c1nnc(-c2nc(=O)c(F)c[nH]2)o1)Nc1ccccc1
DOCKED: REMARK SMILES IDX 6 1 7 2 8 3 9 4 10 6 11 7 22 8 12 9 13 10 14 11 15 12 21 13
DOCKED: REMARK SMILES IDX 16 14 20 15 18 16 17 18 19 19 5 20 4 21 3 22 2 23 23 24 1 25
DOCKED: REMARK SMILES IDX 24 27 25 28 29 29 26 30 28 31 27 32
DOCKED: REMARK H PARENT 9 5 21 17 23 26
DOCKED: USER                              x       y       z     vdW  Elec       q    Type
DOCKED: USER                           _______ _______ _______ _____ _____    ______ ____
DOCKED: ROOT
DOCKED: ATOM      1  C   UNL     1     140.332  70.278 220.819 -0.11 -0.00    +0.031 C  
DOCKED: ENDROOT
DOCKED: BRANCH   1   2
DOCKED: ATOM      2  C   UNL     1     139.664  71.627 220.758 -0.11 -0.00    +0.025 C  
DOCKED: BRANCH   2   3
DOCKED: ATOM      3  C   UNL     1     139.635  72.543 221.746 -0.19 -0.03    +0.176 C  
DOCKED: BRANCH   3   4
DOCKED: ATOM      4  O   UNL     1     138.913  72.260 222.907 -0.09 +0.16    -0.503 OA 
DOCKED: ATOM      5  H   UNL     1     138.418  72.977 223.426 -0.38 -0.23    +0.293 HD 
DOCKED: ENDBRANCH   3   4
DOCKED: BRANCH   3   6
DOCKED: ATOM      6  C   UNL     1     140.326  73.849 221.693 -0.18 -0.03    +0.282 A  
DOCKED: ATOM      7  N   UNL     1     141.523  74.028 221.098 -0.27 +0.02    -0.104 NA 
DOCKED: ATOM      8  O   UNL     1     139.880  74.978 222.189 -0.62 +0.04    -0.411 OA 
DOCKED: ATOM      9  N   UNL     1     141.826  75.308 221.237 -0.26 +0.04    -0.104 NA 
DOCKED: ATOM     10  C   UNL     1     140.802  75.865 221.910 -0.23 -0.07    +0.284 A  
DOCKED: BRANCH  10  11
DOCKED: ATOM     11  C   UNL     1     140.732  77.285 222.284 -0.32 -0.07    +0.199 A  
DOCKED: ATOM     12  N   UNL     1     139.605  77.769 222.874 -0.17 +0.03    -0.183 NA 
DOCKED: ATOM     13  N   UNL     1     141.783  78.119 222.043 -0.08 +0.20    -0.339 N  
DOCKED: ATOM     14  C   UNL     1     139.506  79.075 223.233 -0.21 -0.05    +0.309 A  
DOCKED: ATOM     15  C   UNL     1     141.721  79.433 222.387 -0.42 -0.05    +0.129 A  
DOCKED: ATOM     16  C   UNL     1     140.573  79.943 222.994 -0.31 -0.04    +0.206 A  
DOCKED: ATOM     17  H   UNL     1     142.652  77.759 221.588 -0.45 -0.19    +0.168 HD 
DOCKED: ATOM     18  O   UNL     1     138.453  79.498 223.777 -0.24 +0.03    -0.264 OA 
DOCKED: ATOM     19  F   UNL     1     140.502  81.252 223.342 -0.11 +0.02    -0.199 F  
DOCKED: ENDBRANCH  10  11
DOCKED: ENDBRANCH   3   6
DOCKED: ENDBRANCH   2   3
DOCKED: ENDBRANCH   1   2
DOCKED: BRANCH   1  20
DOCKED: ATOM     20  C   UNL     1     139.326  69.115 220.886 -0.13 -0.00    +0.005 C  
DOCKED: BRANCH  20  21
DOCKED: ATOM     21  C   UNL     1     138.346  69.185 222.077 -0.16 -0.00    +0.010 C  
DOCKED: BRANCH  21  22
DOCKED: ATOM     22  C   UNL     1     138.510  68.042 223.094 -0.23 -0.01    +0.100 C  
DOCKED: BRANCH  22  23
DOCKED: ATOM     23  C   UNL     1     139.043  68.519 224.413 -0.23 -0.03    +0.224 C  
DOCKED: ATOM     24  N   UNL     1     139.335  69.912 224.612 -0.15 +0.05    -0.326 N  
DOCKED: ATOM     25  O   UNL     1     139.195  67.690 225.352 -0.87 -0.00    -0.275 OA 
DOCKED: ATOM     26  H   UNL     1     138.972  70.592 223.905 +0.08 -0.03    +0.169 HD 
DOCKED: BRANCH  24  27
DOCKED: ATOM     27  C   UNL     1     139.936  70.444 225.805 -0.48 -0.01    +0.041 A  
DOCKED: ATOM     28  C   UNL     1     139.594  69.894 227.050 -0.49 -0.00    +0.026 A  
DOCKED: ATOM     29  C   UNL     1     140.818  71.539 225.757 -0.59 -0.00    +0.026 A  
DOCKED: ATOM     30  C   UNL     1     140.154  70.405 228.226 -0.62 -0.00    +0.002 A  
DOCKED: ATOM     31  C   UNL     1     141.374  72.047 226.935 -0.76 -0.00    +0.002 A  
DOCKED: ATOM     32  C   UNL     1     141.046  71.479 228.168 -0.78 -0.00    +0.000 A  
DOCKED: ENDBRANCH  24  27
DOCKED: ENDBRANCH  22  23
DOCKED: ENDBRANCH  21  22
DOCKED: ENDBRANCH  20  21
DOCKED: ENDBRANCH   1  20
DOCKED: TORSDOF 10
DOCKED: TER
DOCKED: ENDMDL
________________________________________________________________________________


    FINAL DOCKED STATE:
    ________________________


Run:   15 / 20
Time taken for this run:   0.056s

DOCKED: MODEL        15
DOCKED: USER    Run = 15
DOCKED: USER
DOCKED: USER    Estimated Free Energy of Binding    =  -6.33 kcal/mol  [=(1)+(2)+(3)-(4)]
DOCKED: USER
DOCKED: USER    (1) Final Intermolecular Energy     =  -9.32 kcal/mol
DOCKED: USER        vdW + Hbond + desolv Energy     =  -9.07 kcal/mol
DOCKED: USER        Electrostatic Energy            =  -0.25 kcal/mol
DOCKED: USER        Moving Ligand-Fixed Receptor    =  -9.32 kcal/mol
DOCKED: USER        Moving Ligand-Moving Receptor   =  +0.00 kcal/mol
DOCKED: USER    (2) Final Total Internal Energy     =  -3.09 kcal/mol
DOCKED: USER    (3) Torsional Free Energy           =  +2.98 kcal/mol
DOCKED: USER    (4) Unbound System's Energy         =  -3.09 kcal/mol
DOCKED: USER
DOCKED: USER
DOCKED: REMARK SMILES O=C(CCCC/C=C(/O)c1nnc(-c2nc(=O)c(F)c[nH]2)o1)Nc1ccccc1
DOCKED: REMARK SMILES IDX 6 1 7 2 8 3 9 4 10 6 11 7 22 8 12 9 13 10 14 11 15 12 21 13
DOCKED: REMARK SMILES IDX 16 14 20 15 18 16 17 18 19 19 5 20 4 21 3 22 2 23 23 24 1 25
DOCKED: REMARK SMILES IDX 24 27 25 28 29 29 26 30 28 31 27 32
DOCKED: REMARK H PARENT 9 5 21 17 23 26
DOCKED: USER                              x       y       z     vdW  Elec       q    Type
DOCKED: USER                           _______ _______ _______ _____ _____    ______ ____
DOCKED: ROOT
DOCKED: ATOM      1  C   UNL     1     136.865  72.912 219.475 -0.02 -0.01    +0.031 C  
DOCKED: ENDROOT
DOCKED: BRANCH   1   2
DOCKED: ATOM      2  C   UNL     1     136.829  73.967 220.550 -0.06 -0.00    +0.025 C  
DOCKED: BRANCH   2   3
DOCKED: ATOM      3  C   UNL     1     137.541  73.958 221.695 -0.11 -0.05    +0.176 C  
DOCKED: BRANCH   3   4
DOCKED: ATOM      4  O   UNL     1     137.160  73.089 222.718 -0.02 +0.19    -0.503 OA 
DOCKED: ATOM      5  H   UNL     1     137.195  73.356 223.697 -0.43 -0.23    +0.293 HD 
DOCKED: ENDBRANCH   3   4
DOCKED: BRANCH   3   6
DOCKED: ATOM      6  C   UNL     1     138.721  74.813 221.950 -0.16 -0.07    +0.282 A  
DOCKED: ATOM      7  N   UNL     1     139.984  74.343 221.967 -0.83 +0.01    -0.104 NA 
DOCKED: ATOM      8  O   UNL     1     138.701  76.105 222.174 -0.17 +0.09    -0.411 OA 
DOCKED: ATOM      9  N   UNL     1     140.769  75.378 222.215 -0.49 +0.01    -0.104 NA 
DOCKED: ATOM     10  C   UNL     1     139.956  76.445 222.339 -0.25 -0.06    +0.284 A  
DOCKED: BRANCH  10  11
DOCKED: ATOM     11  C   UNL     1     140.418  77.810 222.623 -0.30 -0.05    +0.199 A  
DOCKED: ATOM     12  N   UNL     1     139.565  78.703 223.195 -0.24 +0.03    -0.183 NA 
DOCKED: ATOM     13  N   UNL     1     141.691  78.190 222.316 -0.13 +0.18    -0.339 N  
DOCKED: ATOM     14  C   UNL     1     139.959  79.973 223.472 -0.25 -0.05    +0.309 A  
DOCKED: ATOM     15  C   UNL     1     142.122  79.453 222.577 -0.47 -0.05    +0.129 A  
DOCKED: ATOM     16  C   UNL     1     141.259  80.378 223.165 -0.37 -0.04    +0.206 A  
DOCKED: ATOM     17  H   UNL     1     142.354  77.514 221.873 -0.44 -0.17    +0.168 HD 
DOCKED: ATOM     18  O   UNL     1     139.150  80.779 224.002 -0.29 +0.03    -0.264 OA 
DOCKED: ATOM     19  F   UNL     1     141.679  81.640 223.430 -0.17 +0.02    -0.199 F  
DOCKED: ENDBRANCH  10  11
DOCKED: ENDBRANCH   3   6
DOCKED: ENDBRANCH   2   3
DOCKED: ENDBRANCH   1   2
DOCKED: BRANCH   1  20
DOCKED: ATOM     20  C   UNL     1     137.078  71.494 220.035 -0.02 -0.00    +0.005 C  
DOCKED: BRANCH  20  21
DOCKED: ATOM     21  C   UNL     1     138.504  70.936 219.837 -0.04 -0.00    +0.010 C  
DOCKED: BRANCH  21  22
DOCKED: ATOM     22  C   UNL     1     139.571  71.611 220.715 -0.09 -0.02    +0.100 C  
DOCKED: BRANCH  22  23
DOCKED: ATOM     23  C   UNL     1     139.710  70.955 222.057 -0.14 -0.04    +0.224 C  
DOCKED: ATOM     24  N   UNL     1     139.611  71.740 223.257 -0.18 +0.07    -0.326 N  
DOCKED: ATOM     25  O   UNL     1     139.878  69.707 222.118 -0.08 +0.05    -0.275 OA 
DOCKED: ATOM     26  H   UNL     1     139.235  72.712 223.174 -0.31 -0.06    +0.169 HD 
DOCKED: BRANCH  24  27
DOCKED: ATOM     27  C   UNL     1     139.826  71.216 224.578 -0.43 -0.01    +0.041 A  
DOCKED: ATOM     28  C   UNL     1     140.777  71.824 225.413 -0.44 -0.00    +0.026 A  
DOCKED: ATOM     29  C   UNL     1     139.144  70.072 225.035 -0.38 -0.00    +0.026 A  
DOCKED: ATOM     30  C   UNL     1     141.016  71.322 226.697 -0.71 -0.00    +0.002 A  
DOCKED: ATOM     31  C   UNL     1     139.386  69.574 226.319 -0.47 -0.00    +0.002 A  
DOCKED: ATOM     32  C   UNL     1     140.318  70.200 227.151 -0.60 -0.00    +0.000 A  
DOCKED: ENDBRANCH  24  27
DOCKED: ENDBRANCH  22  23
DOCKED: ENDBRANCH  21  22
DOCKED: ENDBRANCH  20  21
DOCKED: ENDBRANCH   1  20
DOCKED: TORSDOF 10
DOCKED: TER
DOCKED: ENDMDL
________________________________________________________________________________


    FINAL DOCKED STATE:
    ________________________


Run:   16 / 20
Time taken for this run:   0.056s

DOCKED: MODEL        16
DOCKED: USER    Run = 16
DOCKED: USER
DOCKED: USER    Estimated Free Energy of Binding    =  -7.36 kcal/mol  [=(1)+(2)+(3)-(4)]
DOCKED: USER
DOCKED: USER    (1) Final Intermolecular Energy     = -10.34 kcal/mol
DOCKED: USER        vdW + Hbond + desolv Energy     = -10.12 kcal/mol
DOCKED: USER        Electrostatic Energy            =  -0.22 kcal/mol
DOCKED: USER        Moving Ligand-Fixed Receptor    = -10.34 kcal/mol
DOCKED: USER        Moving Ligand-Moving Receptor   =  +0.00 kcal/mol
DOCKED: USER    (2) Final Total Internal Energy     =  -2.64 kcal/mol
DOCKED: USER    (3) Torsional Free Energy           =  +2.98 kcal/mol
DOCKED: USER    (4) Unbound System's Energy         =  -2.64 kcal/mol
DOCKED: USER
DOCKED: USER
DOCKED: REMARK SMILES O=C(CCCC/C=C(/O)c1nnc(-c2nc(=O)c(F)c[nH]2)o1)Nc1ccccc1
DOCKED: REMARK SMILES IDX 6 1 7 2 8 3 9 4 10 6 11 7 22 8 12 9 13 10 14 11 15 12 21 13
DOCKED: REMARK SMILES IDX 16 14 20 15 18 16 17 18 19 19 5 20 4 21 3 22 2 23 23 24 1 25
DOCKED: REMARK SMILES IDX 24 27 25 28 29 29 26 30 28 31 27 32
DOCKED: REMARK H PARENT 9 5 21 17 23 26
DOCKED: USER                              x       y       z     vdW  Elec       q    Type
DOCKED: USER                           _______ _______ _______ _____ _____    ______ ____
DOCKED: ROOT
DOCKED: ATOM      1  C   UNL     1     140.318  70.374 220.698 -0.12 -0.00    +0.031 C  
DOCKED: ENDROOT
DOCKED: BRANCH   1   2
DOCKED: ATOM      2  C   UNL     1     140.305  71.135 221.998 -0.20 -0.00    +0.025 C  
DOCKED: BRANCH   2   3
DOCKED: ATOM      3  C   UNL     1     139.729  72.335 222.210 -0.23 -0.03    +0.176 C  
DOCKED: BRANCH   3   4
DOCKED: ATOM      4  O   UNL     1     138.431  72.379 222.720 -0.06 +0.17    -0.503 OA 
DOCKED: ATOM      5  H   UNL     1     138.010  73.237 223.060 -0.44 -0.19    +0.293 HD 
DOCKED: ENDBRANCH   3   4
DOCKED: BRANCH   3   6
DOCKED: ATOM      6  C   UNL     1     140.385  73.633 221.942 -0.17 -0.02    +0.282 A  
DOCKED: ATOM      7  N   UNL     1     141.516  73.754 221.219 -0.27 +0.01    -0.104 NA 
DOCKED: ATOM      8  O   UNL     1     139.964  74.807 222.348 -0.66 +0.02    -0.411 OA 
DOCKED: ATOM      9  N   UNL     1     141.804  75.045 221.182 -0.28 +0.03    -0.104 NA 
DOCKED: ATOM     10  C   UNL     1     140.836  75.666 221.883 -0.22 -0.07    +0.284 A  
DOCKED: BRANCH  10  11
DOCKED: ATOM     11  C   UNL     1     140.771  77.118 222.098 -0.30 -0.07    +0.199 A  
DOCKED: ATOM     12  N   UNL     1     139.673  77.661 222.691 -0.23 +0.04    -0.183 NA 
DOCKED: ATOM     13  N   UNL     1     141.799  77.925 221.706 -0.05 +0.22    -0.339 N  
DOCKED: ATOM     14  C   UNL     1     139.581  78.999 222.906 -0.20 -0.06    +0.309 A  
DOCKED: ATOM     15  C   UNL     1     141.741  79.269 221.903 -0.37 -0.06    +0.129 A  
DOCKED: ATOM     16  C   UNL     1     140.623  79.839 222.512 -0.26 -0.05    +0.206 A  
DOCKED: ATOM     17  H   UNL     1     142.645  77.519 221.246 -0.45 -0.18    +0.168 HD 
DOCKED: ATOM     18  O   UNL     1     138.554  79.475 223.458 -0.24 +0.04    -0.264 OA 
DOCKED: ATOM     19  F   UNL     1     140.557  81.178 222.714 -0.09 +0.03    -0.199 F  
DOCKED: ENDBRANCH  10  11
DOCKED: ENDBRANCH   3   6
DOCKED: ENDBRANCH   2   3
DOCKED: ENDBRANCH   1   2
DOCKED: BRANCH   1  20
DOCKED: ATOM     20  C   UNL     1     139.335  69.190 220.688 -0.12 -0.00    +0.005 C  
DOCKED: BRANCH  20  21
DOCKED: ATOM     21  C   UNL     1     138.307  69.202 221.841 -0.14 -0.00    +0.010 C  
DOCKED: BRANCH  21  22
DOCKED: ATOM     22  C   UNL     1     138.442  68.019 222.815 -0.23 -0.01    +0.100 C  
DOCKED: BRANCH  22  23
DOCKED: ATOM     23  C   UNL     1     138.985  68.434 224.151 -0.20 -0.03    +0.224 C  
DOCKED: ATOM     24  N   UNL     1     139.175  69.827 224.451 -0.14 +0.05    -0.326 N  
DOCKED: ATOM     25  O   UNL     1     139.237  67.550 225.015 -0.85 -0.00    -0.275 OA 
DOCKED: ATOM     26  H   UNL     1     138.734  70.527 223.812 +0.07 -0.03    +0.169 HD 
DOCKED: BRANCH  24  27
DOCKED: ATOM     27  C   UNL     1     139.777  70.311 225.663 -0.45 -0.01    +0.041 A  
DOCKED: ATOM     28  C   UNL     1     140.664  71.397 225.604 -0.57 -0.00    +0.026 A  
DOCKED: ATOM     29  C   UNL     1     139.539  69.687 226.902 -0.49 -0.00    +0.026 A  
DOCKED: ATOM     30  C   UNL     1     141.275  71.876 226.768 -0.75 -0.00    +0.002 A  
DOCKED: ATOM     31  C   UNL     1     140.152  70.168 228.063 -0.63 -0.00    +0.002 A  
DOCKED: ATOM     32  C   UNL     1     141.016  71.265 227.997 -0.77 -0.00    +0.000 A  
DOCKED: ENDBRANCH  24  27
DOCKED: ENDBRANCH  22  23
DOCKED: ENDBRANCH  21  22
DOCKED: ENDBRANCH  20  21
DOCKED: ENDBRANCH   1  20
DOCKED: TORSDOF 10
DOCKED: TER
DOCKED: ENDMDL
________________________________________________________________________________


    FINAL DOCKED STATE:
    ________________________


Run:   17 / 20
Time taken for this run:   0.056s

DOCKED: MODEL        17
DOCKED: USER    Run = 17
DOCKED: USER
DOCKED: USER    Estimated Free Energy of Binding    =  -7.33 kcal/mol  [=(1)+(2)+(3)-(4)]
DOCKED: USER
DOCKED: USER    (1) Final Intermolecular Energy     = -10.32 kcal/mol
DOCKED: USER        vdW + Hbond + desolv Energy     = -10.12 kcal/mol
DOCKED: USER        Electrostatic Energy            =  -0.19 kcal/mol
DOCKED: USER        Moving Ligand-Fixed Receptor    = -10.32 kcal/mol
DOCKED: USER        Moving Ligand-Moving Receptor   =  +0.00 kcal/mol
DOCKED: USER    (2) Final Total Internal Energy     =  -2.63 kcal/mol
DOCKED: USER    (3) Torsional Free Energy           =  +2.98 kcal/mol
DOCKED: USER    (4) Unbound System's Energy         =  -2.63 kcal/mol
DOCKED: USER
DOCKED: USER
DOCKED: REMARK SMILES O=C(CCCC/C=C(/O)c1nnc(-c2nc(=O)c(F)c[nH]2)o1)Nc1ccccc1
DOCKED: REMARK SMILES IDX 6 1 7 2 8 3 9 4 10 6 11 7 22 8 12 9 13 10 14 11 15 12 21 13
DOCKED: REMARK SMILES IDX 16 14 20 15 18 16 17 18 19 19 5 20 4 21 3 22 2 23 23 24 1 25
DOCKED: REMARK SMILES IDX 24 27 25 28 29 29 26 30 28 31 27 32
DOCKED: REMARK H PARENT 9 5 21 17 23 26
DOCKED: USER                              x       y       z     vdW  Elec       q    Type
DOCKED: USER                           _______ _______ _______ _____ _____    ______ ____
DOCKED: ROOT
DOCKED: ATOM      1  C   UNL     1     139.757  70.093 221.006 -0.12 -0.01    +0.031 C  
DOCKED: ENDROOT
DOCKED: BRANCH   1   2
DOCKED: ATOM      2  C   UNL     1     140.189  71.127 222.013 -0.21 -0.00    +0.025 C  
DOCKED: BRANCH   2   3
DOCKED: ATOM      3  C   UNL     1     139.616  72.331 222.211 -0.22 -0.03    +0.176 C  
DOCKED: BRANCH   3   4
DOCKED: ATOM      4  O   UNL     1     138.311  72.383 222.704 -0.05 +0.17    -0.503 OA 
DOCKED: ATOM      5  H   UNL     1     137.905  73.235 223.075 -0.44 -0.18    +0.293 HD 
DOCKED: ENDBRANCH   3   4
DOCKED: BRANCH   3   6
DOCKED: ATOM      6  C   UNL     1     140.280  73.625 221.943 -0.17 -0.02    +0.282 A  
DOCKED: ATOM      7  N   UNL     1     141.413  73.738 221.221 -0.28 +0.01    -0.104 NA 
DOCKED: ATOM      8  O   UNL     1     139.865  74.802 222.347 -0.67 +0.03    -0.411 OA 
DOCKED: ATOM      9  N   UNL     1     141.709  75.027 221.183 -0.28 +0.03    -0.104 NA 
DOCKED: ATOM     10  C   UNL     1     140.744  75.654 221.882 -0.23 -0.06    +0.284 A  
DOCKED: BRANCH  10  11
DOCKED: ATOM     11  C   UNL     1     140.687  77.107 222.095 -0.30 -0.07    +0.199 A  
DOCKED: ATOM     12  N   UNL     1     139.603  77.654 222.709 -0.23 +0.04    -0.183 NA 
DOCKED: ATOM     13  N   UNL     1     141.709  77.910 221.681 -0.08 +0.21    -0.339 N  
DOCKED: ATOM     14  C   UNL     1     139.518  78.993 222.923 -0.19 -0.06    +0.309 A  
DOCKED: ATOM     15  C   UNL     1     141.659  79.255 221.877 -0.36 -0.06    +0.129 A  
DOCKED: ATOM     16  C   UNL     1     140.555  79.829 222.507 -0.26 -0.05    +0.206 A  
DOCKED: ATOM     17  H   UNL     1     142.544  77.501 221.206 -0.45 -0.17    +0.168 HD 
DOCKED: ATOM     18  O   UNL     1     138.504  79.473 223.495 -0.24 +0.04    -0.264 OA 
DOCKED: ATOM     19  F   UNL     1     140.497  81.169 222.707 -0.09 +0.03    -0.199 F  
DOCKED: ENDBRANCH  10  11
DOCKED: ENDBRANCH   3   6
DOCKED: ENDBRANCH   2   3
DOCKED: ENDBRANCH   1   2
DOCKED: BRANCH   1  20
DOCKED: ATOM     20  C   UNL     1     138.230  69.908 220.956 -0.08 -0.00    +0.005 C  
DOCKED: BRANCH  20  21
DOCKED: ATOM     21  C   UNL     1     137.601  69.416 222.277 -0.14 -0.00    +0.010 C  
DOCKED: BRANCH  21  22
DOCKED: ATOM     22  C   UNL     1     138.357  68.248 222.935 -0.22 -0.01    +0.100 C  
DOCKED: BRANCH  22  23
DOCKED: ATOM     23  C   UNL     1     138.934  68.616 224.270 -0.23 -0.03    +0.224 C  
DOCKED: ATOM     24  N   UNL     1     139.127  69.997 224.616 -0.15 +0.05    -0.326 N  
DOCKED: ATOM     25  O   UNL     1     139.210  67.702 225.095 -0.84 +0.00    -0.275 OA 
DOCKED: ATOM     26  H   UNL     1     138.668  70.719 224.015 +0.07 -0.03    +0.169 HD 
DOCKED: BRANCH  24  27
DOCKED: ATOM     27  C   UNL     1     139.760  70.439 225.829 -0.44 -0.01    +0.041 A  
DOCKED: ATOM     28  C   UNL     1     140.637  71.534 225.788 -0.58 -0.00    +0.026 A  
DOCKED: ATOM     29  C   UNL     1     139.561  69.765 227.049 -0.50 -0.00    +0.026 A  
DOCKED: ATOM     30  C   UNL     1     141.277  71.973 226.952 -0.77 -0.00    +0.002 A  
DOCKED: ATOM     31  C   UNL     1     140.203  70.207 228.210 -0.61 -0.00    +0.002 A  
DOCKED: ATOM     32  C   UNL     1     141.057  71.312 228.163 -0.75 -0.00    +0.000 A  
DOCKED: ENDBRANCH  24  27
DOCKED: ENDBRANCH  22  23
DOCKED: ENDBRANCH  21  22
DOCKED: ENDBRANCH  20  21
DOCKED: ENDBRANCH   1  20
DOCKED: TORSDOF 10
DOCKED: TER
DOCKED: ENDMDL
________________________________________________________________________________


    FINAL DOCKED STATE:
    ________________________


Run:   18 / 20
Time taken for this run:   0.056s

DOCKED: MODEL        18
DOCKED: USER    Run = 18
DOCKED: USER
DOCKED: USER    Estimated Free Energy of Binding    =  -7.32 kcal/mol  [=(1)+(2)+(3)-(4)]
DOCKED: USER
DOCKED: USER    (1) Final Intermolecular Energy     = -10.30 kcal/mol
DOCKED: USER        vdW + Hbond + desolv Energy     = -10.08 kcal/mol
DOCKED: USER        Electrostatic Energy            =  -0.22 kcal/mol
DOCKED: USER        Moving Ligand-Fixed Receptor    = -10.30 kcal/mol
DOCKED: USER        Moving Ligand-Moving Receptor   =  +0.00 kcal/mol
DOCKED: USER    (2) Final Total Internal Energy     =  -2.17 kcal/mol
DOCKED: USER    (3) Torsional Free Energy           =  +2.98 kcal/mol
DOCKED: USER    (4) Unbound System's Energy         =  -2.17 kcal/mol
DOCKED: USER
DOCKED: USER
DOCKED: REMARK SMILES O=C(CCCC/C=C(/O)c1nnc(-c2nc(=O)c(F)c[nH]2)o1)Nc1ccccc1
DOCKED: REMARK SMILES IDX 6 1 7 2 8 3 9 4 10 6 11 7 22 8 12 9 13 10 14 11 15 12 21 13
DOCKED: REMARK SMILES IDX 16 14 20 15 18 16 17 18 19 19 5 20 4 21 3 22 2 23 23 24 1 25
DOCKED: REMARK SMILES IDX 24 27 25 28 29 29 26 30 28 31 27 32
DOCKED: REMARK H PARENT 9 5 21 17 23 26
DOCKED: USER                              x       y       z     vdW  Elec       q    Type
DOCKED: USER                           _______ _______ _______ _____ _____    ______ ____
DOCKED: ROOT
DOCKED: ATOM      1  C   UNL     1     137.905  71.297 220.887 -0.06 -0.01    +0.031 C  
DOCKED: ENDROOT
DOCKED: BRANCH   1   2
DOCKED: ATOM      2  C   UNL     1     139.123  72.184 220.948 -0.12 -0.00    +0.025 C  
DOCKED: BRANCH   2   3
DOCKED: ATOM      3  C   UNL     1     139.464  72.995 221.969 -0.21 -0.03    +0.176 C  
DOCKED: BRANCH   3   4
DOCKED: ATOM      4  O   UNL     1     140.041  72.434 223.110 -0.35 +0.07    -0.503 OA 
DOCKED: ATOM      5  H   UNL     1     139.967  72.868 224.024 -0.15 -0.07    +0.293 HD 
DOCKED: ENDBRANCH   3   4
DOCKED: BRANCH   3   6
DOCKED: ATOM      6  C   UNL     1     139.273  74.461 221.969 -0.17 -0.06    +0.282 A  
DOCKED: ATOM      7  N   UNL     1     138.168  75.062 221.485 -0.14 +0.03    -0.104 NA 
DOCKED: ATOM      8  O   UNL     1     140.120  75.348 222.436 -0.45 +0.03    -0.411 OA 
DOCKED: ATOM      9  N   UNL     1     138.342  76.363 221.654 -0.16 +0.02    -0.104 NA 
DOCKED: ATOM     10  C   UNL     1     139.546  76.509 222.238 -0.22 -0.06    +0.284 A  
DOCKED: BRANCH  10  11
DOCKED: ATOM     11  C   UNL     1     140.139  77.802 222.603 -0.27 -0.05    +0.199 A  
DOCKED: ATOM     12  N   UNL     1     139.346  78.787 223.106 -0.24 +0.03    -0.183 NA 
DOCKED: ATOM     13  N   UNL     1     141.475  78.024 222.440 -0.19 +0.16    -0.339 N  
DOCKED: ATOM     14  C   UNL     1     139.862  79.995 223.454 -0.25 -0.05    +0.309 A  
DOCKED: ATOM     15  C   UNL     1     142.027  79.221 222.777 -0.47 -0.05    +0.129 A  
DOCKED: ATOM     16  C   UNL     1     141.226  80.238 223.295 -0.38 -0.04    +0.206 A  
DOCKED: ATOM     17  H   UNL     1     142.093  77.276 222.052 -0.45 -0.15    +0.168 HD 
DOCKED: ATOM     18  O   UNL     1     139.106  80.889 223.918 -0.28 +0.03    -0.264 OA 
DOCKED: ATOM     19  F   UNL     1     141.768  81.435 223.634 -0.17 +0.02    -0.199 F  
DOCKED: ENDBRANCH  10  11
DOCKED: ENDBRANCH   3   6
DOCKED: ENDBRANCH   2   3
DOCKED: ENDBRANCH   1   2
DOCKED: BRANCH   1  20
DOCKED: ATOM     20  C   UNL     1     138.245  69.804 221.045 -0.09 -0.00    +0.005 C  
DOCKED: BRANCH  20  21
DOCKED: ATOM     21  C   UNL     1     137.745  69.169 222.361 -0.16 -0.00    +0.010 C  
DOCKED: BRANCH  21  22
DOCKED: ATOM     22  C   UNL     1     138.736  68.179 222.996 -0.22 -0.02    +0.100 C  
DOCKED: BRANCH  22  23
DOCKED: ATOM     23  C   UNL     1     139.162  68.595 224.373 -0.22 -0.03    +0.224 C  
DOCKED: ATOM     24  N   UNL     1     139.487  69.969 224.642 -0.15 +0.05    -0.326 N  
DOCKED: ATOM     25  O   UNL     1     139.197  67.734 225.294 -0.86 +0.00    -0.275 OA 
DOCKED: ATOM     26  H   UNL     1     139.216  70.683 223.928 +0.08 -0.03    +0.169 HD 
DOCKED: BRANCH  24  27
DOCKED: ATOM     27  C   UNL     1     139.995  70.441 225.901 -0.49 -0.01    +0.041 A  
DOCKED: ATOM     28  C   UNL     1     140.892  71.520 225.920 -0.62 -0.00    +0.026 A  
DOCKED: ATOM     29  C   UNL     1     139.655  69.811 227.114 -0.51 -0.00    +0.026 A  
DOCKED: ATOM     30  C   UNL     1     141.413  71.987 227.131 -0.77 -0.00    +0.002 A  
DOCKED: ATOM     31  C   UNL     1     140.178  70.280 228.322 -0.60 -0.00    +0.002 A  
DOCKED: ATOM     32  C   UNL     1     141.053  71.370 228.332 -0.73 -0.00    +0.000 A  
DOCKED: ENDBRANCH  24  27
DOCKED: ENDBRANCH  22  23
DOCKED: ENDBRANCH  21  22
DOCKED: ENDBRANCH  20  21
DOCKED: ENDBRANCH   1  20
DOCKED: TORSDOF 10
DOCKED: TER
DOCKED: ENDMDL
________________________________________________________________________________


    FINAL DOCKED STATE:
    ________________________


Run:   19 / 20
Time taken for this run:   0.056s

DOCKED: MODEL        19
DOCKED: USER    Run = 19
DOCKED: USER
DOCKED: USER    Estimated Free Energy of Binding    =  -5.88 kcal/mol  [=(1)+(2)+(3)-(4)]
DOCKED: USER
DOCKED: USER    (1) Final Intermolecular Energy     =  -8.86 kcal/mol
DOCKED: USER        vdW + Hbond + desolv Energy     =  -8.56 kcal/mol
DOCKED: USER        Electrostatic Energy            =  -0.31 kcal/mol
DOCKED: USER        Moving Ligand-Fixed Receptor    =  -8.86 kcal/mol
DOCKED: USER        Moving Ligand-Moving Receptor   =  +0.00 kcal/mol
DOCKED: USER    (2) Final Total Internal Energy     =  -3.28 kcal/mol
DOCKED: USER    (3) Torsional Free Energy           =  +2.98 kcal/mol
DOCKED: USER    (4) Unbound System's Energy         =  -3.28 kcal/mol
DOCKED: USER
DOCKED: USER
DOCKED: REMARK SMILES O=C(CCCC/C=C(/O)c1nnc(-c2nc(=O)c(F)c[nH]2)o1)Nc1ccccc1
DOCKED: REMARK SMILES IDX 6 1 7 2 8 3 9 4 10 6 11 7 22 8 12 9 13 10 14 11 15 12 21 13
DOCKED: REMARK SMILES IDX 16 14 20 15 18 16 17 18 19 19 5 20 4 21 3 22 2 23 23 24 1 25
DOCKED: REMARK SMILES IDX 24 27 25 28 29 29 26 30 28 31 27 32
DOCKED: REMARK H PARENT 9 5 21 17 23 26
DOCKED: USER                              x       y       z     vdW  Elec       q    Type
DOCKED: USER                           _______ _______ _______ _____ _____    ______ ____
DOCKED: ROOT
DOCKED: ATOM      1  C   UNL     1     137.785  75.435 222.337 -0.21 -0.01    +0.031 C  
DOCKED: ENDROOT
DOCKED: BRANCH   1   2
DOCKED: ATOM      2  C   UNL     1     138.857  76.468 222.104 -0.29 -0.01    +0.025 C  
DOCKED: BRANCH   2   3
DOCKED: ATOM      3  C   UNL     1     140.178  76.226 221.979 -0.30 -0.04    +0.176 C  
DOCKED: BRANCH   3   4
DOCKED: ATOM      4  O   UNL     1     141.067  77.301 222.029 -0.15 +0.21    -0.503 OA 
DOCKED: ATOM      5  H   UNL     1     142.070  77.179 221.944 -0.39 -0.26    +0.293 HD 
DOCKED: ENDBRANCH   3   4
DOCKED: BRANCH   3   6
DOCKED: ATOM      6  C   UNL     1     140.765  74.882 221.794 -0.14 -0.03    +0.282 A  
DOCKED: ATOM      7  N   UNL     1     140.234  73.764 222.327 -0.83 -0.00    -0.104 NA 
DOCKED: ATOM      8  O   UNL     1     141.841  74.601 221.098 -0.18 +0.11    -0.411 OA 
DOCKED: ATOM      9  N   UNL     1     141.012  72.761 221.952 -0.36 +0.01    -0.104 NA 
DOCKED: ATOM     10  C   UNL     1     141.988  73.304 221.201 -0.10 -0.04    +0.284 A  
DOCKED: BRANCH  10  11
DOCKED: ATOM     11  C   UNL     1     143.078  72.538 220.579 -0.19 -0.03    +0.199 A  
DOCKED: ATOM     12  N   UNL     1     144.230  73.172 220.230 -0.25 +0.03    -0.183 NA 
DOCKED: ATOM     13  N   UNL     1     142.943  71.201 220.348 -0.08 +0.04    -0.339 N  
DOCKED: ATOM     14  C   UNL     1     145.257  72.495 219.655 -0.22 +0.06    +0.309 A  
DOCKED: ATOM     15  C   UNL     1     143.949  70.489 219.773 -0.19 +0.00    +0.129 A  
DOCKED: ATOM     16  C   UNL     1     145.136  71.126 219.412 -0.18 +0.06    +0.206 A  
DOCKED: ATOM     17  H   UNL     1     142.061  70.705 220.610 +0.05 -0.02    +0.168 HD 
DOCKED: ATOM     18  O   UNL     1     146.313  73.105 219.341 -0.78 -0.20    -0.264 OA 
DOCKED: ATOM     19  F   UNL     1     146.146  70.425 218.838 -0.09 -0.18    -0.199 F  
DOCKED: ENDBRANCH  10  11
DOCKED: ENDBRANCH   3   6
DOCKED: ENDBRANCH   2   3
DOCKED: ENDBRANCH   1   2
DOCKED: BRANCH   1  20
DOCKED: ATOM     20  C   UNL     1     137.457  74.618 221.074 -0.12 -0.00    +0.005 C  
DOCKED: BRANCH  20  21
DOCKED: ATOM     21  C   UNL     1     137.488  73.088 221.276 -0.11 -0.00    +0.010 C  
DOCKED: BRANCH  21  22
DOCKED: ATOM     22  C   UNL     1     136.551  72.582 222.387 -0.12 -0.03    +0.100 C  
DOCKED: BRANCH  22  23
DOCKED: ATOM     23  C   UNL     1     137.266  71.738 223.401 -0.08 -0.06    +0.224 C  
DOCKED: ATOM     24  N   UNL     1     138.691  71.843 223.550 +0.01 +0.11    -0.326 N  
DOCKED: ATOM     25  O   UNL     1     136.597  70.967 224.141 -0.14 +0.04    -0.275 OA 
DOCKED: ATOM     26  H   UNL     1     139.170  72.654 223.097 -0.30 -0.06    +0.169 HD 
DOCKED: BRANCH  24  27
DOCKED: ATOM     27  C   UNL     1     139.470  71.009 224.425 -0.39 -0.01    +0.041 A  
DOCKED: ATOM     28  C   UNL     1     140.632  71.528 225.015 -0.50 -0.00    +0.026 A  
DOCKED: ATOM     29  C   UNL     1     139.122  69.665 224.660 -0.35 -0.00    +0.026 A  
DOCKED: ATOM     30  C   UNL     1     141.415  70.731 225.857 -0.59 -0.00    +0.002 A  
DOCKED: ATOM     31  C   UNL     1     139.908  68.872 225.501 -0.46 -0.00    +0.002 A  
DOCKED: ATOM     32  C   UNL     1     141.051  69.404 226.103 -0.53 -0.00    +0.000 A  
DOCKED: ENDBRANCH  24  27
DOCKED: ENDBRANCH  22  23
DOCKED: ENDBRANCH  21  22
DOCKED: ENDBRANCH  20  21
DOCKED: ENDBRANCH   1  20
DOCKED: TORSDOF 10
DOCKED: TER
DOCKED: ENDMDL
________________________________________________________________________________


    FINAL DOCKED STATE:
    ________________________


Run:   20 / 20
Time taken for this run:   0.056s

DOCKED: MODEL        20
DOCKED: USER    Run = 20
DOCKED: USER
DOCKED: USER    Estimated Free Energy of Binding    =  -6.74 kcal/mol  [=(1)+(2)+(3)-(4)]
DOCKED: USER
DOCKED: USER    (1) Final Intermolecular Energy     =  -9.72 kcal/mol
DOCKED: USER        vdW + Hbond + desolv Energy     =  -9.57 kcal/mol
DOCKED: USER        Electrostatic Energy            =  -0.15 kcal/mol
DOCKED: USER        Moving Ligand-Fixed Receptor    =  -9.72 kcal/mol
DOCKED: USER        Moving Ligand-Moving Receptor   =  +0.00 kcal/mol
DOCKED: USER    (2) Final Total Internal Energy     =  -2.57 kcal/mol
DOCKED: USER    (3) Torsional Free Energy           =  +2.98 kcal/mol
DOCKED: USER    (4) Unbound System's Energy         =  -2.57 kcal/mol
DOCKED: USER
DOCKED: USER
DOCKED: REMARK SMILES O=C(CCCC/C=C(/O)c1nnc(-c2nc(=O)c(F)c[nH]2)o1)Nc1ccccc1
DOCKED: REMARK SMILES IDX 6 1 7 2 8 3 9 4 10 6 11 7 22 8 12 9 13 10 14 11 15 12 21 13
DOCKED: REMARK SMILES IDX 16 14 20 15 18 16 17 18 19 19 5 20 4 21 3 22 2 23 23 24 1 25
DOCKED: REMARK SMILES IDX 24 27 25 28 29 29 26 30 28 31 27 32
DOCKED: REMARK H PARENT 9 5 21 17 23 26
DOCKED: USER                              x       y       z     vdW  Elec       q    Type
DOCKED: USER                           _______ _______ _______ _____ _____    ______ ____
DOCKED: ROOT
DOCKED: ATOM      1  C   UNL     1     137.936  70.588 221.058 -0.07 -0.01    +0.031 C  
DOCKED: ENDROOT
DOCKED: BRANCH   1   2
DOCKED: ATOM      2  C   UNL     1     139.386  70.991 221.146 -0.12 -0.00    +0.025 C  
DOCKED: BRANCH   2   3
DOCKED: ATOM      3  C   UNL     1     139.898  71.941 221.953 -0.20 -0.03    +0.176 C  
DOCKED: BRANCH   3   4
DOCKED: ATOM      4  O   UNL     1     140.929  71.596 222.829 -0.11 +0.04    -0.503 OA 
DOCKED: ATOM      5  H   UNL     1     141.396  72.282 223.413 +0.17 +0.02    +0.293 HD 
DOCKED: ENDBRANCH   3   4
DOCKED: BRANCH   3   6
DOCKED: ATOM      6  C   UNL     1     139.445  73.348 221.977 -0.17 -0.06    +0.282 A  
DOCKED: ATOM      7  N   UNL     1     138.195  73.727 221.642 -0.14 +0.03    -0.104 NA 
DOCKED: ATOM      8  O   UNL     1     140.169  74.385 222.326 -0.74 -0.01    -0.411 OA 
DOCKED: ATOM      9  N   UNL     1     138.149  75.041 221.785 -0.18 +0.03    -0.104 NA 
DOCKED: ATOM     10  C   UNL     1     139.372  75.417 222.205 -0.19 -0.05    +0.284 A  
DOCKED: BRANCH  10  11
DOCKED: ATOM     11  C   UNL     1     139.760  76.806 222.487 -0.23 -0.04    +0.199 A  
DOCKED: ATOM     12  N   UNL     1     138.800  77.733 222.752 -0.21 +0.03    -0.183 NA 
DOCKED: ATOM     13  N   UNL     1     141.074  77.173 222.483 -0.22 +0.14    -0.339 N  
DOCKED: ATOM     14  C   UNL     1     139.125  79.024 223.018 -0.19 -0.05    +0.309 A  
DOCKED: ATOM     15  C   UNL     1     141.438  78.458 222.743 -0.42 -0.05    +0.129 A  
DOCKED: ATOM     16  C   UNL     1     140.464  79.417 223.019 -0.31 -0.05    +0.206 A  
DOCKED: ATOM     17  H   UNL     1     141.820  76.471 222.277 -0.51 -0.11    +0.168 HD 
DOCKED: ATOM     18  O   UNL     1     138.216  79.862 223.261 -0.20 +0.04    -0.264 OA 
DOCKED: ATOM     19  F   UNL     1     140.816  80.700 223.280 -0.12 +0.03    -0.199 F  
DOCKED: ENDBRANCH  10  11
DOCKED: ENDBRANCH   3   6
DOCKED: ENDBRANCH   2   3
DOCKED: ENDBRANCH   1   2
DOCKED: BRANCH   1  20
DOCKED: ATOM     20  C   UNL     1     137.363  70.121 222.408 -0.13 -0.00    +0.005 C  
DOCKED: BRANCH  20  21
DOCKED: ATOM     21  C   UNL     1     137.435  68.596 222.640 -0.18 -0.00    +0.010 C  
DOCKED: BRANCH  21  22
DOCKED: ATOM     22  C   UNL     1     138.820  68.092 223.082 -0.22 -0.02    +0.100 C  
DOCKED: BRANCH  22  23
DOCKED: ATOM     23  C   UNL     1     139.199  68.579 224.450 -0.22 -0.03    +0.224 C  
DOCKED: ATOM     24  N   UNL     1     139.540  69.959 224.655 -0.15 +0.05    -0.326 N  
DOCKED: ATOM     25  O   UNL     1     139.179  67.771 225.418 -0.85 +0.00    -0.275 OA 
DOCKED: ATOM     26  H   UNL     1     139.313  70.636 223.891 +0.08 -0.03    +0.169 HD 
DOCKED: BRANCH  24  27
DOCKED: ATOM     27  C   UNL     1     140.007  70.493 225.906 -0.49 -0.01    +0.041 A  
DOCKED: ATOM     28  C   UNL     1     140.889  71.584 225.901 -0.60 -0.00    +0.026 A  
DOCKED: ATOM     29  C   UNL     1     139.642  69.911 227.135 -0.50 -0.00    +0.026 A  
DOCKED: ATOM     30  C   UNL     1     141.370  72.111 227.105 -0.78 -0.00    +0.002 A  
DOCKED: ATOM     31  C   UNL     1     140.125  70.440 228.335 -0.61 -0.00    +0.002 A  
DOCKED: ATOM     32  C   UNL     1     140.985  71.541 228.322 -0.77 -0.00    +0.000 A  
DOCKED: ENDBRANCH  24  27
DOCKED: ENDBRANCH  22  23
DOCKED: ENDBRANCH  21  22
DOCKED: ENDBRANCH  20  21
DOCKED: ENDBRANCH   1  20
DOCKED: TORSDOF 10
DOCKED: TER
DOCKED: ENDMDL
________________________________________________________________________________


    CLUSTERING HISTOGRAM
    ____________________


________________________________________________________________________________
     |           |     |           |     |
Clus | Lowest    | Run | Mean      | Num | Histogram
-ter | Binding   |     | Binding   | in  |
Rank | Energy    |     | Energy    | Clus|    5    10   15   20   25   30   35
_____|___________|_____|___________|_____|____:____|____:____|____:____|____:___
   1 |     -7.50 |   4 |     -7.16 |   9 |#########
   2 |     -7.37 |  13 |     -6.87 |   3 |###
   3 |     -7.06 |   2 |     -7.06 |   1 |#
   4 |     -6.28 |  11 |     -6.28 |   1 |#
   5 |     -5.88 |  19 |     -5.88 |   1 |#
   6 |     -5.35 |  10 |     -4.97 |   3 |###
   7 |     -5.35 |   1 |     -5.35 |   1 |#
   8 |     -4.83 |   7 |     -4.83 |   1 |#
_____|___________|_____|___________|_____|______________________________________


    RMSD TABLE
    __________


_______________________________________________________________________
     |      |      |           |         |                 |
Rank | Sub- | Run  | Binding   | Cluster | Reference       | Grep
     | Rank |      | Energy    | RMSD    | RMSD            | Pattern
_____|______|______|___________|_________|_________________|___________
   1      1      4       -7.50      0.00    271.89           RANKING
   1      2     14       -7.45      0.37    271.89           RANKING
   1      3     12       -7.38      0.90    271.70           RANKING
   1      4     16       -7.36      0.53    271.74           RANKING
   1      5     17       -7.33      0.44    271.75           RANKING
   1      6     18       -7.32      1.09    272.01           RANKING
   1      7      9       -6.99      1.51    271.73           RANKING
   1      8     20       -6.74      1.25    271.78           RANKING
   1      9     15       -6.33      1.74    271.45           RANKING
   2      1     13       -7.37      0.00    271.20           RANKING
   2      2      8       -7.36      0.35    271.23           RANKING
   2      3      3       -5.86      1.86    271.34           RANKING
   3      1      2       -7.06      0.00    272.03           RANKING
   4      1     11       -6.28      0.00    271.65           RANKING
   5      1     19       -5.88      0.00    271.07           RANKING
   6      1     10       -5.35      0.00    272.06           RANKING
   6      2      5       -5.01      1.06    271.82           RANKING
   6      3      6       -4.56      1.62    271.92           RANKING
   7      1      1       -5.35      0.00    271.67           RANKING
   8      1      7       -4.83      0.00    271.81           RANKING

Run time 1.085 sec
Idle time 0.000 sec
