AutoDock-GPU version: v1.6

**********************************************************
**    AutoDock-GPU AUTODOCKTOOLS-COMPATIBLE DLG FILE    **
**********************************************************


    DOCKING PARAMETERS
    ________________________


Ligand file:                               /home/a/REINVENT4/ReinventStudies/pleaseWork/justRnve/graph-dock-3mta9a/graph-DockGPU/node-autodockgpu/inputs/XGSHBZRHDDCGNQ-UHFFFAOYNA-N.pdbqt
Grid fld file:                             /home/a/REINVENT4/ReinventStudies/mols/Rad51/maps/rad51_receptor.maps.fld

Random seed:                               42
Number of runs:                            20
Number of energy evaluations:              1613968
Number of generations:                     42000
Size of population:                        150
Rate of crossover:                         80.000000%
Tournament selection probability limit:    60.000000%
Rate of mutation:                          2.000000%
Maximal allowed delta movement:            +/- 6.000000A
Maximal allowed delta angle:               +/- 90.000000

Rate of local search:                      100.000000%
Maximal number of local search iterations: 300
Rho lower bound:                           0.010000
Spread of local search delta movement:     2.000000A
Spread of local search delta angle:        74.999999
Limit of consecutive successes/failures:   4

Handle symmetry during clustering:         YES
RMSD tolerance:                            2.000000A

Program call in command line was:          /home/a/REINVENT4/ReinventStudies/adgpu-v1.6_linux_x64_cuda12_128wi --filelist batch.txt --heuristics 1 --nrun 20 --psize 150 --lsit 300 --seed 42 --heurmax 12000000 


    GRID PARAMETERS
    ________________________


Receptor name:                             rad51_receptor
Number of grid points (x, y, z):           53, 53, 53
Grid center (x, y, z):                     139.950000, 75.640000, 221.970000A
Grid size (x, y, z):                       19.500000, 19.500000, 19.500000A
Grid spacing:                              0.375000A


    LIGAND PARAMETERS
    ________________________


Ligand name:                               /home/a/REINVENT4/ReinventStudies/pleaseWork/justRnve/graph-dock-3mta9a/graph-DockGPU/node-autodockgpu/inputs/XGSHBZRHDDCGNQ-UHFFFAOYNA-N
Number of atoms:                           25
Number of rotatable bonds:                 8
Number of atom types:                      5


    DUMMY DATA (only for ADT-compatibility)
    ________________________


DPF> outlev 1
DPF> ga_run 20
DPF> fld /home/a/REINVENT4/ReinventStudies/mols/Rad51/maps/rad51_receptor.maps.fld
DPF> move /home/a/REINVENT4/ReinventStudies/pleaseWork/justRnve/graph-dock-3mta9a/graph-DockGPU/node-autodockgpu/inputs/XGSHBZRHDDCGNQ-UHFFFAOYNA-N.pdbqt


    COUNTER STATES
    ________________________


Number of energy evaluations performed:    1244239
Number of generations used:                60


    INPUT LIGAND PDBQT FILE:
    ________________________


INPUT-LIGAND-PDBQT: REMARK SMILES CCCCCCCn1nnc(-c2nnn(C)c2-c2ccc(F)cc2)n1
INPUT-LIGAND-PDBQT: REMARK SMILES IDX 6 1 5 2 4 3 3 4 2 5 1 6 7 7 8 8 9 9 25 10 10 11 11 12 12 13
INPUT-LIGAND-PDBQT: REMARK SMILES IDX 13 14 17 15 14 16 15 17 16 18 18 19 19 20 24 21 20 22 23 23
INPUT-LIGAND-PDBQT: REMARK SMILES IDX 21 24 22 25
INPUT-LIGAND-PDBQT: REMARK H PARENT
INPUT-LIGAND-PDBQT: ROOT
INPUT-LIGAND-PDBQT: ATOM      1  C   UNL     1      -2.493   1.181  -3.551  1.00  0.00     0.026 C 
INPUT-LIGAND-PDBQT: ENDROOT
INPUT-LIGAND-PDBQT: BRANCH   1   2
INPUT-LIGAND-PDBQT: ATOM      2  C   UNL     1      -3.238   1.323  -2.207  1.00  0.00     0.002 C 
INPUT-LIGAND-PDBQT: BRANCH   2   3
INPUT-LIGAND-PDBQT: ATOM      3  C   UNL     1      -2.948   0.150  -1.251  1.00  0.00     0.000 C 
INPUT-LIGAND-PDBQT: BRANCH   3   4
INPUT-LIGAND-PDBQT: ATOM      4  C   UNL     1      -3.349   0.447   0.206  1.00  0.00    -0.000 C 
INPUT-LIGAND-PDBQT: BRANCH   4   5
INPUT-LIGAND-PDBQT: ATOM      5  C   UNL     1      -4.845   0.743   0.411  1.00  0.00    -0.003 C 
INPUT-LIGAND-PDBQT: ATOM      6  C   UNL     1      -5.741  -0.445   0.063  1.00  0.00     0.004 C 
INPUT-LIGAND-PDBQT: ENDBRANCH   4   5
INPUT-LIGAND-PDBQT: ENDBRANCH   3   4
INPUT-LIGAND-PDBQT: ENDBRANCH   2   3
INPUT-LIGAND-PDBQT: ENDBRANCH   1   2
INPUT-LIGAND-PDBQT: BRANCH   1   7
INPUT-LIGAND-PDBQT: ATOM      7  C   UNL     1      -1.191   1.995  -3.611  1.00  0.00     0.170 C 
INPUT-LIGAND-PDBQT: BRANCH   7   8
INPUT-LIGAND-PDBQT: ATOM      8  N   UNL     1      -0.261   1.581  -2.567  1.00  0.00    -0.164 N 
INPUT-LIGAND-PDBQT: ATOM      9  N   UNL     1      -0.155   2.174  -1.390  1.00  0.00    -0.047 NA
INPUT-LIGAND-PDBQT: ATOM     10  N   UNL     1       0.481   0.488  -2.621  1.00  0.00    -0.129 NA
INPUT-LIGAND-PDBQT: ATOM     11  N   UNL     1       0.679   1.479  -0.635  1.00  0.00    -0.106 NA
INPUT-LIGAND-PDBQT: ATOM     12  C   UNL     1       1.060   0.439  -1.406  1.00  0.00     0.227 A 
INPUT-LIGAND-PDBQT: BRANCH  12  13
INPUT-LIGAND-PDBQT: ATOM     13  C   UNL     1       1.965  -0.631  -0.969  1.00  0.00     0.162 A 
INPUT-LIGAND-PDBQT: ATOM     14  N   UNL     1       2.648  -1.429  -1.814  1.00  0.00    -0.126 NA
INPUT-LIGAND-PDBQT: ATOM     15  C   UNL     1       2.304  -0.983   0.326  1.00  0.00     0.100 A 
INPUT-LIGAND-PDBQT: ATOM     16  N   UNL     1       3.380  -2.244  -1.066  1.00  0.00    -0.066 NA
INPUT-LIGAND-PDBQT: ATOM     17  N   UNL     1       3.184  -1.999   0.220  1.00  0.00    -0.247 N 
INPUT-LIGAND-PDBQT: ATOM     18  C   UNL     1       3.833  -2.740   1.296  1.00  0.00     0.176 C 
INPUT-LIGAND-PDBQT: BRANCH  15  19
INPUT-LIGAND-PDBQT: ATOM     19  C   UNL     1       1.724  -0.471   1.586  1.00  0.00     0.002 A 
INPUT-LIGAND-PDBQT: ATOM     20  C   UNL     1       0.329  -0.416   1.748  1.00  0.00     0.013 A 
INPUT-LIGAND-PDBQT: ATOM     21  C   UNL     1       2.557  -0.045   2.634  1.00  0.00     0.013 A 
INPUT-LIGAND-PDBQT: ATOM     22  C   UNL     1      -0.224   0.067   2.938  1.00  0.00     0.040 A 
INPUT-LIGAND-PDBQT: ATOM     23  C   UNL     1       2.000   0.434   3.824  1.00  0.00     0.040 A 
INPUT-LIGAND-PDBQT: ATOM     24  C   UNL     1       0.611   0.491   3.976  1.00  0.00     0.123 A 
INPUT-LIGAND-PDBQT: ATOM     25  F   UNL     1       0.074   0.957   5.131  1.00  0.00    -0.207 F 
INPUT-LIGAND-PDBQT: ENDBRANCH  15  19
INPUT-LIGAND-PDBQT: ENDBRANCH  12  13
INPUT-LIGAND-PDBQT: ENDBRANCH   7   8
INPUT-LIGAND-PDBQT: ENDBRANCH   1   7
INPUT-LIGAND-PDBQT: TORSDOF 8


    FINAL DOCKED STATE:
    ________________________


Run:   1 / 20
Time taken for this run:   0.045s

DOCKED: MODEL        1
DOCKED: USER    Run = 1
DOCKED: USER
DOCKED: USER    Estimated Free Energy of Binding    =  -5.67 kcal/mol  [=(1)+(2)+(3)-(4)]
DOCKED: USER
DOCKED: USER    (1) Final Intermolecular Energy     =  -8.06 kcal/mol
DOCKED: USER        vdW + Hbond + desolv Energy     =  -8.01 kcal/mol
DOCKED: USER        Electrostatic Energy            =  -0.04 kcal/mol
DOCKED: USER        Moving Ligand-Fixed Receptor    =  -8.06 kcal/mol
DOCKED: USER        Moving Ligand-Moving Receptor   =  +0.00 kcal/mol
DOCKED: USER    (2) Final Total Internal Energy     =  -1.96 kcal/mol
DOCKED: USER    (3) Torsional Free Energy           =  +2.39 kcal/mol
DOCKED: USER    (4) Unbound System's Energy         =  -1.96 kcal/mol
DOCKED: USER
DOCKED: USER
DOCKED: REMARK SMILES CCCCCCCn1nnc(-c2nnn(C)c2-c2ccc(F)cc2)n1
DOCKED: REMARK SMILES IDX 6 1 5 2 4 3 3 4 2 5 1 6 7 7 8 8 9 9 25 10 10 11 11 12 12 13
DOCKED: REMARK SMILES IDX 13 14 17 15 14 16 15 17 16 18 18 19 19 20 24 21 20 22 23 23
DOCKED: REMARK SMILES IDX 21 24 22 25
DOCKED: REMARK H PARENT
DOCKED: USER                              x       y       z     vdW  Elec       q    Type
DOCKED: USER                           _______ _______ _______ _____ _____    ______ ____
DOCKED: ROOT
DOCKED: ATOM      1  C   UNL     1     142.835  74.670 219.300 -0.25 -0.01    +0.026 C  
DOCKED: ENDROOT
DOCKED: BRANCH   1   2
DOCKED: ATOM      2  C   UNL     1     143.309  76.065 218.841 -0.35 -0.00    +0.002 C  
DOCKED: BRANCH   2   3
DOCKED: ATOM      3  C   UNL     1     142.134  77.030 218.595 -0.26 -0.00    +0.000 C  
DOCKED: BRANCH   3   4
DOCKED: ATOM      4  C   UNL     1     142.561  78.510 218.589 -0.29 +0.00    -0.000 C  
DOCKED: BRANCH   4   5
DOCKED: ATOM      5  C   UNL     1     141.413  79.506 218.349 -0.22 +0.00    -0.003 C  
DOCKED: ATOM      6  C   UNL     1     141.849  80.964 218.497 -0.29 -0.00    +0.004 C  
DOCKED: ENDBRANCH   4   5
DOCKED: ENDBRANCH   3   4
DOCKED: ENDBRANCH   2   3
DOCKED: ENDBRANCH   1   2
DOCKED: BRANCH   1   7
DOCKED: ATOM      7  C   UNL     1     142.766  74.525 220.828 -0.14 -0.06    +0.170 C  
DOCKED: BRANCH   7   8
DOCKED: ATOM      8  N   UNL     1     141.425  74.810 221.325 -0.24 +0.04    -0.164 N  
DOCKED: ATOM      9  N   UNL     1     140.657  73.924 221.937 -0.80 +0.00    -0.047 NA 
DOCKED: ATOM     10  N   UNL     1     140.878  76.013 221.347 -0.27 +0.04    -0.129 NA 
DOCKED: ATOM     11  N   UNL     1     139.567  74.532 222.373 -0.74 +0.01    -0.106 NA 
DOCKED: ATOM     12  C   UNL     1     139.719  75.822 222.006 -0.25 -0.04    +0.227 A  
DOCKED: BRANCH  12  13
DOCKED: ATOM     13  C   UNL     1     138.761  76.891 222.312 -0.25 -0.03    +0.162 A  
DOCKED: ATOM     14  N   UNL     1     137.423  76.743 222.244 -0.17 +0.02    -0.126 NA 
DOCKED: ATOM     15  C   UNL     1     139.032  78.178 222.745 -0.26 -0.02    +0.100 A  
DOCKED: ATOM     16  N   UNL     1     136.889  77.898 222.620 -0.17 +0.01    -0.066 NA 
DOCKED: ATOM     17  N   UNL     1     137.835  78.774 222.918 -0.14 +0.04    -0.247 N  
DOCKED: ATOM     18  C   UNL     1     137.568  80.142 223.348 -0.21 -0.02    +0.176 C  
DOCKED: BRANCH  15  19
DOCKED: ATOM     19  C   UNL     1     140.350  78.838 222.858 -0.42 -0.00    +0.002 A  
DOCKED: ATOM     20  C   UNL     1     141.012  79.291 221.704 -0.34 -0.00    +0.013 A  
DOCKED: ATOM     21  C   UNL     1     140.948  79.028 224.115 -0.41 -0.00    +0.013 A  
DOCKED: ATOM     22  C   UNL     1     142.259  79.916 221.806 -0.43 -0.02    +0.040 A  
DOCKED: ATOM     23  C   UNL     1     142.193  79.657 224.213 -0.45 -0.01    +0.040 A  
DOCKED: ATOM     24  C   UNL     1     142.848  80.100 223.060 -0.56 -0.04    +0.123 A  
DOCKED: ATOM     25  F   UNL     1     144.056  80.709 223.159 -0.12 +0.05    -0.207 F  
DOCKED: ENDBRANCH  15  19
DOCKED: ENDBRANCH  12  13
DOCKED: ENDBRANCH   7   8
DOCKED: ENDBRANCH   1   7
DOCKED: TORSDOF 8
DOCKED: TER
DOCKED: ENDMDL
________________________________________________________________________________


    FINAL DOCKED STATE:
    ________________________


Run:   2 / 20
Time taken for this run:   0.045s

DOCKED: MODEL        2
DOCKED: USER    Run = 2
DOCKED: USER
DOCKED: USER    Estimated Free Energy of Binding    =  -6.15 kcal/mol  [=(1)+(2)+(3)-(4)]
DOCKED: USER
DOCKED: USER    (1) Final Intermolecular Energy     =  -8.53 kcal/mol
DOCKED: USER        vdW + Hbond + desolv Energy     =  -8.55 kcal/mol
DOCKED: USER        Electrostatic Energy            =  +0.01 kcal/mol
DOCKED: USER        Moving Ligand-Fixed Receptor    =  -8.53 kcal/mol
DOCKED: USER        Moving Ligand-Moving Receptor   =  +0.00 kcal/mol
DOCKED: USER    (2) Final Total Internal Energy     =  -1.45 kcal/mol
DOCKED: USER    (3) Torsional Free Energy           =  +2.39 kcal/mol
DOCKED: USER    (4) Unbound System's Energy         =  -1.45 kcal/mol
DOCKED: USER
DOCKED: USER
DOCKED: REMARK SMILES CCCCCCCn1nnc(-c2nnn(C)c2-c2ccc(F)cc2)n1
DOCKED: REMARK SMILES IDX 6 1 5 2 4 3 3 4 2 5 1 6 7 7 8 8 9 9 25 10 10 11 11 12 12 13
DOCKED: REMARK SMILES IDX 13 14 17 15 14 16 15 17 16 18 18 19 19 20 24 21 20 22 23 23
DOCKED: REMARK SMILES IDX 21 24 22 25
DOCKED: REMARK H PARENT
DOCKED: USER                              x       y       z     vdW  Elec       q    Type
DOCKED: USER                           _______ _______ _______ _____ _____    ______ ____
DOCKED: ROOT
DOCKED: ATOM      1  C   UNL     1     138.821  68.281 225.685 -0.42 -0.00    +0.026 C  
DOCKED: ENDROOT
DOCKED: BRANCH   1   2
DOCKED: ATOM      2  C   UNL     1     140.036  67.767 226.487 -0.68 -0.00    +0.002 C  
DOCKED: BRANCH   2   3
DOCKED: ATOM      3  C   UNL     1     140.124  68.404 227.887 -0.65 -0.00    +0.000 C  
DOCKED: BRANCH   3   4
DOCKED: ATOM      4  C   UNL     1     141.043  69.639 227.930 -0.61 +0.00    -0.000 C  
DOCKED: BRANCH   4   5
DOCKED: ATOM      5  C   UNL     1     140.305  70.982 228.062 -0.69 +0.00    -0.003 C  
DOCKED: ATOM      6  C   UNL     1     141.147  72.173 227.606 -0.81 -0.00    +0.004 C  
DOCKED: ENDBRANCH   4   5
DOCKED: ENDBRANCH   3   4
DOCKED: ENDBRANCH   2   3
DOCKED: ENDBRANCH   1   2
DOCKED: BRANCH   1   7
DOCKED: ATOM      7  C   UNL     1     139.155  68.609 224.222 -0.23 -0.02    +0.170 C  
DOCKED: BRANCH   7   8
DOCKED: ATOM      8  N   UNL     1     139.568  70.000 224.074 -0.21 +0.03    -0.164 N  
DOCKED: ATOM      9  N   UNL     1     140.095  70.725 225.045 -0.41 +0.01    -0.047 NA 
DOCKED: ATOM     10  N   UNL     1     139.591  70.651 222.923 -0.19 +0.02    -0.129 NA 
DOCKED: ATOM     11  N   UNL     1     140.475  71.891 224.550 -0.36 +0.02    -0.106 NA 
DOCKED: ATOM     12  C   UNL     1     140.162  71.829 223.239 -0.26 -0.03    +0.227 A  
DOCKED: BRANCH  12  13
DOCKED: ATOM     13  C   UNL     1     140.437  72.896 222.269 -0.23 -0.01    +0.162 A  
DOCKED: ATOM     14  N   UNL     1     139.904  74.132 222.341 -0.83 +0.01    -0.126 NA 
DOCKED: ATOM     15  C   UNL     1     141.281  72.853 221.173 -0.23 -0.01    +0.100 A  
DOCKED: ATOM     16  N   UNL     1     140.402  74.825 221.325 -0.38 +0.01    -0.066 NA 
DOCKED: ATOM     17  N   UNL     1     141.224  74.076 220.607 -0.13 +0.05    -0.247 N  
DOCKED: ATOM     18  C   UNL     1     141.917  74.545 219.413 -0.12 -0.05    +0.176 C  
DOCKED: BRANCH  15  19
DOCKED: ATOM     19  C   UNL     1     141.993  71.680 220.623 -0.20 -0.00    +0.002 A  
DOCKED: ATOM     20  C   UNL     1     143.398  71.663 220.584 -0.28 -0.00    +0.013 A  
DOCKED: ATOM     21  C   UNL     1     141.278  70.570 220.144 -0.11 -0.00    +0.013 A  
DOCKED: ATOM     22  C   UNL     1     144.076  70.556 220.065 -0.21 -0.00    +0.040 A  
DOCKED: ATOM     23  C   UNL     1     141.960  69.462 219.630 -0.11 -0.01    +0.040 A  
DOCKED: ATOM     24  C   UNL     1     143.358  69.456 219.589 -0.16 -0.01    +0.123 A  
DOCKED: ATOM     25  F   UNL     1     144.016  68.381 219.089 -0.05 +0.02    -0.207 F  
DOCKED: ENDBRANCH  15  19
DOCKED: ENDBRANCH  12  13
DOCKED: ENDBRANCH   7   8
DOCKED: ENDBRANCH   1   7
DOCKED: TORSDOF 8
DOCKED: TER
DOCKED: ENDMDL
________________________________________________________________________________


    FINAL DOCKED STATE:
    ________________________


Run:   3 / 20
Time taken for this run:   0.045s

DOCKED: MODEL        3
DOCKED: USER    Run = 3
DOCKED: USER
DOCKED: USER    Estimated Free Energy of Binding    =  -6.66 kcal/mol  [=(1)+(2)+(3)-(4)]
DOCKED: USER
DOCKED: USER    (1) Final Intermolecular Energy     =  -9.04 kcal/mol
DOCKED: USER        vdW + Hbond + desolv Energy     =  -8.98 kcal/mol
DOCKED: USER        Electrostatic Energy            =  -0.07 kcal/mol
DOCKED: USER        Moving Ligand-Fixed Receptor    =  -9.04 kcal/mol
DOCKED: USER        Moving Ligand-Moving Receptor   =  +0.00 kcal/mol
DOCKED: USER    (2) Final Total Internal Energy     =  -1.10 kcal/mol
DOCKED: USER    (3) Torsional Free Energy           =  +2.39 kcal/mol
DOCKED: USER    (4) Unbound System's Energy         =  -1.10 kcal/mol
DOCKED: USER
DOCKED: USER
DOCKED: REMARK SMILES CCCCCCCn1nnc(-c2nnn(C)c2-c2ccc(F)cc2)n1
DOCKED: REMARK SMILES IDX 6 1 5 2 4 3 3 4 2 5 1 6 7 7 8 8 9 9 25 10 10 11 11 12 12 13
DOCKED: REMARK SMILES IDX 13 14 17 15 14 16 15 17 16 18 18 19 19 20 24 21 20 22 23 23
DOCKED: REMARK SMILES IDX 21 24 22 25
DOCKED: REMARK H PARENT
DOCKED: USER                              x       y       z     vdW  Elec       q    Type
DOCKED: USER                           _______ _______ _______ _____ _____    ______ ____
DOCKED: ROOT
DOCKED: ATOM      1  C   UNL     1     140.706  71.515 224.477 -0.42 -0.00    +0.026 C  
DOCKED: ENDROOT
DOCKED: BRANCH   1   2
DOCKED: ATOM      2  C   UNL     1     139.687  70.608 225.199 -0.46 -0.00    +0.002 C  
DOCKED: BRANCH   2   3
DOCKED: ATOM      3  C   UNL     1     140.337  69.328 225.757 -0.50 -0.00    +0.000 C  
DOCKED: BRANCH   3   4
DOCKED: ATOM      4  C   UNL     1     140.767  69.463 227.230 -0.61 +0.00    -0.000 C  
DOCKED: BRANCH   4   5
DOCKED: ATOM      5  C   UNL     1     140.164  70.673 227.965 -0.67 +0.00    -0.003 C  
DOCKED: ATOM      6  C   UNL     1     141.082  71.895 227.953 -0.83 -0.00    +0.004 C  
DOCKED: ENDBRANCH   4   5
DOCKED: ENDBRANCH   3   4
DOCKED: ENDBRANCH   2   3
DOCKED: ENDBRANCH   1   2
DOCKED: BRANCH   1   7
DOCKED: ATOM      7  C   UNL     1     140.645  71.395 222.946 -0.16 -0.02    +0.170 C  
DOCKED: BRANCH   7   8
DOCKED: ATOM      8  N   UNL     1     140.538  72.707 222.318 -0.25 +0.01    -0.164 N  
DOCKED: ATOM      9  N   UNL     1     139.678  73.639 222.689 -0.59 +0.01    -0.047 NA 
DOCKED: ATOM     10  N   UNL     1     141.375  73.165 221.402 -0.26 +0.01    -0.129 NA 
DOCKED: ATOM     11  N   UNL     1     139.927  74.746 222.010 -0.77 +0.01    -0.106 NA 
DOCKED: ATOM     12  C   UNL     1     140.980  74.440 221.223 -0.21 -0.04    +0.227 A  
DOCKED: BRANCH  12  13
DOCKED: ATOM     13  C   UNL     1     141.636  75.383 220.309 -0.20 -0.06    +0.162 A  
DOCKED: ATOM     14  N   UNL     1     142.401  75.008 219.264 -0.15 +0.05    -0.126 NA 
DOCKED: ATOM     15  C   UNL     1     141.568  76.765 220.320 -0.24 -0.05    +0.100 A  
DOCKED: ATOM     16  N   UNL     1     142.791  76.120 218.655 -0.23 +0.03    -0.066 NA 
DOCKED: ATOM     17  N   UNL     1     142.309  77.185 219.275 -0.19 +0.15    -0.247 N  
DOCKED: ATOM     18  C   UNL     1     142.575  78.557 218.857 -0.08 -0.14    +0.176 C  
DOCKED: BRANCH  15  19
DOCKED: ATOM     19  C   UNL     1     140.945  77.634 221.342 -0.33 -0.00    +0.002 A  
DOCKED: ATOM     20  C   UNL     1     141.750  78.427 222.178 -0.37 -0.01    +0.013 A  
DOCKED: ATOM     21  C   UNL     1     139.548  77.684 221.480 -0.22 -0.00    +0.013 A  
DOCKED: ATOM     22  C   UNL     1     141.165  79.251 223.145 -0.50 -0.01    +0.040 A  
DOCKED: ATOM     23  C   UNL     1     138.967  78.512 222.446 -0.26 -0.01    +0.040 A  
DOCKED: ATOM     24  C   UNL     1     139.774  79.294 223.278 -0.34 -0.02    +0.123 A  
DOCKED: ATOM     25  F   UNL     1     139.208  80.095 224.214 -0.14 +0.02    -0.207 F  
DOCKED: ENDBRANCH  15  19
DOCKED: ENDBRANCH  12  13
DOCKED: ENDBRANCH   7   8
DOCKED: ENDBRANCH   1   7
DOCKED: TORSDOF 8
DOCKED: TER
DOCKED: ENDMDL
________________________________________________________________________________


    FINAL DOCKED STATE:
    ________________________


Run:   4 / 20
Time taken for this run:   0.045s

DOCKED: MODEL        4
DOCKED: USER    Run = 4
DOCKED: USER
DOCKED: USER    Estimated Free Energy of Binding    =  -5.96 kcal/mol  [=(1)+(2)+(3)-(4)]
DOCKED: USER
DOCKED: USER    (1) Final Intermolecular Energy     =  -8.35 kcal/mol
DOCKED: USER        vdW + Hbond + desolv Energy     =  -8.30 kcal/mol
DOCKED: USER        Electrostatic Energy            =  -0.05 kcal/mol
DOCKED: USER        Moving Ligand-Fixed Receptor    =  -8.35 kcal/mol
DOCKED: USER        Moving Ligand-Moving Receptor   =  +0.00 kcal/mol
DOCKED: USER    (2) Final Total Internal Energy     =  -1.86 kcal/mol
DOCKED: USER    (3) Torsional Free Energy           =  +2.39 kcal/mol
DOCKED: USER    (4) Unbound System's Energy         =  -1.86 kcal/mol
DOCKED: USER
DOCKED: USER
DOCKED: REMARK SMILES CCCCCCCn1nnc(-c2nnn(C)c2-c2ccc(F)cc2)n1
DOCKED: REMARK SMILES IDX 6 1 5 2 4 3 3 4 2 5 1 6 7 7 8 8 9 9 25 10 10 11 11 12 12 13
DOCKED: REMARK SMILES IDX 13 14 17 15 14 16 15 17 16 18 18 19 19 20 24 21 20 22 23 23
DOCKED: REMARK SMILES IDX 21 24 22 25
DOCKED: REMARK H PARENT
DOCKED: USER                              x       y       z     vdW  Elec       q    Type
DOCKED: USER                           _______ _______ _______ _____ _____    ______ ____
DOCKED: ROOT
DOCKED: ATOM      1  C   UNL     1     142.924  75.062 219.375 -0.29 -0.01    +0.026 C  
DOCKED: ENDROOT
DOCKED: BRANCH   1   2
DOCKED: ATOM      2  C   UNL     1     143.315  76.553 219.322 -0.38 -0.00    +0.002 C  
DOCKED: BRANCH   2   3
DOCKED: ATOM      3  C   UNL     1     142.147  77.449 218.866 -0.29 -0.00    +0.000 C  
DOCKED: BRANCH   3   4
DOCKED: ATOM      4  C   UNL     1     142.607  78.669 218.047 -0.32 +0.00    -0.000 C  
DOCKED: BRANCH   4   5
DOCKED: ATOM      5  C   UNL     1     142.041  80.016 218.531 -0.31 +0.00    -0.003 C  
DOCKED: ATOM      6  C   UNL     1     142.620  81.211 217.776 -0.34 -0.00    +0.004 C  
DOCKED: ENDBRANCH   4   5
DOCKED: ENDBRANCH   3   4
DOCKED: ENDBRANCH   2   3
DOCKED: ENDBRANCH   1   2
DOCKED: BRANCH   1   7
DOCKED: ATOM      7  C   UNL     1     142.745  74.533 220.807 -0.15 -0.06    +0.170 C  
DOCKED: BRANCH   7   8
DOCKED: ATOM      8  N   UNL     1     141.405  74.811 221.310 -0.24 +0.04    -0.164 N  
DOCKED: ATOM      9  N   UNL     1     140.632  73.914 221.897 -0.77 +0.00    -0.047 NA 
DOCKED: ATOM     10  N   UNL     1     140.865  76.017 221.362 -0.27 +0.04    -0.129 NA 
DOCKED: ATOM     11  N   UNL     1     139.544  74.517 222.348 -0.75 +0.01    -0.106 NA 
DOCKED: ATOM     12  C   UNL     1     139.704  75.815 222.014 -0.25 -0.04    +0.227 A  
DOCKED: BRANCH  12  13
DOCKED: ATOM     13  C   UNL     1     138.752  76.881 222.347 -0.25 -0.03    +0.162 A  
DOCKED: ATOM     14  N   UNL     1     137.412  76.732 222.304 -0.18 +0.02    -0.126 NA 
DOCKED: ATOM     15  C   UNL     1     139.029  78.164 222.785 -0.26 -0.02    +0.100 A  
DOCKED: ATOM     16  N   UNL     1     136.885  77.884 222.699 -0.17 +0.01    -0.066 NA 
DOCKED: ATOM     17  N   UNL     1     137.836  78.759 222.985 -0.14 +0.04    -0.247 N  
DOCKED: ATOM     18  C   UNL     1     137.577  80.123 223.432 -0.22 -0.02    +0.176 C  
DOCKED: BRANCH  15  19
DOCKED: ATOM     19  C   UNL     1     140.349  78.825 222.878 -0.42 -0.00    +0.002 A  
DOCKED: ATOM     20  C   UNL     1     141.007  79.253 221.712 -0.34 -0.00    +0.013 A  
DOCKED: ATOM     21  C   UNL     1     140.953  79.039 224.128 -0.41 -0.00    +0.013 A  
DOCKED: ATOM     22  C   UNL     1     142.254  79.878 221.795 -0.42 -0.02    +0.040 A  
DOCKED: ATOM     23  C   UNL     1     142.200  79.668 224.207 -0.45 -0.01    +0.040 A  
DOCKED: ATOM     24  C   UNL     1     142.851  80.086 223.042 -0.56 -0.04    +0.123 A  
DOCKED: ATOM     25  F   UNL     1     144.060  80.695 223.123 -0.12 +0.05    -0.207 F  
DOCKED: ENDBRANCH  15  19
DOCKED: ENDBRANCH  12  13
DOCKED: ENDBRANCH   7   8
DOCKED: ENDBRANCH   1   7
DOCKED: TORSDOF 8
DOCKED: TER
DOCKED: ENDMDL
________________________________________________________________________________


    FINAL DOCKED STATE:
    ________________________


Run:   5 / 20
Time taken for this run:   0.045s

DOCKED: MODEL        5
DOCKED: USER    Run = 5
DOCKED: USER
DOCKED: USER    Estimated Free Energy of Binding    =  -6.63 kcal/mol  [=(1)+(2)+(3)-(4)]
DOCKED: USER
DOCKED: USER    (1) Final Intermolecular Energy     =  -9.01 kcal/mol
DOCKED: USER        vdW + Hbond + desolv Energy     =  -8.99 kcal/mol
DOCKED: USER        Electrostatic Energy            =  -0.02 kcal/mol
DOCKED: USER        Moving Ligand-Fixed Receptor    =  -9.01 kcal/mol
DOCKED: USER        Moving Ligand-Moving Receptor   =  +0.00 kcal/mol
DOCKED: USER    (2) Final Total Internal Energy     =  -1.29 kcal/mol
DOCKED: USER    (3) Torsional Free Energy           =  +2.39 kcal/mol
DOCKED: USER    (4) Unbound System's Energy         =  -1.29 kcal/mol
DOCKED: USER
DOCKED: USER
DOCKED: REMARK SMILES CCCCCCCn1nnc(-c2nnn(C)c2-c2ccc(F)cc2)n1
DOCKED: REMARK SMILES IDX 6 1 5 2 4 3 3 4 2 5 1 6 7 7 8 8 9 9 25 10 10 11 11 12 12 13
DOCKED: REMARK SMILES IDX 13 14 17 15 14 16 15 17 16 18 18 19 19 20 24 21 20 22 23 23
DOCKED: REMARK SMILES IDX 21 24 22 25
DOCKED: REMARK H PARENT
DOCKED: USER                              x       y       z     vdW  Elec       q    Type
DOCKED: USER                           _______ _______ _______ _____ _____    ______ ____
DOCKED: ROOT
DOCKED: ATOM      1  C   UNL     1     140.240  71.458 222.365 -0.28 -0.00    +0.026 C  
DOCKED: ENDROOT
DOCKED: BRANCH   1   2
DOCKED: ATOM      2  C   UNL     1     139.082  71.481 223.386 -0.30 -0.00    +0.002 C  
DOCKED: BRANCH   2   3
DOCKED: ATOM      3  C   UNL     1     139.429  70.721 224.681 -0.42 -0.00    +0.000 C  
DOCKED: BRANCH   3   4
DOCKED: ATOM      4  C   UNL     1     140.720  71.230 225.350 -0.57 +0.00    -0.000 C  
DOCKED: BRANCH   4   5
DOCKED: ATOM      5  C   UNL     1     140.793  70.988 226.867 -0.69 +0.00    -0.003 C  
DOCKED: ATOM      6  C   UNL     1     141.210  72.232 227.650 -0.78 -0.00    +0.004 C  
DOCKED: ENDBRANCH   4   5
DOCKED: ENDBRANCH   3   4
DOCKED: ENDBRANCH   2   3
DOCKED: ENDBRANCH   1   2
DOCKED: BRANCH   1   7
DOCKED: ATOM      7  C   UNL     1     140.068  72.480 221.231 -0.16 -0.03    +0.170 C  
DOCKED: BRANCH   7   8
DOCKED: ATOM      8  N   UNL     1     140.018  73.842 221.750 -0.22 +0.02    -0.164 N  
DOCKED: ATOM      9  N   UNL     1     141.084  74.596 221.959 -0.63 +0.00    -0.047 NA 
DOCKED: ATOM     10  N   UNL     1     138.903  74.526 221.940 -0.31 +0.03    -0.129 NA 
DOCKED: ATOM     11  N   UNL     1     140.688  75.809 222.305 -0.46 +0.02    -0.106 NA 
DOCKED: ATOM     12  C   UNL     1     139.340  75.753 222.285 -0.24 -0.04    +0.227 A  
DOCKED: BRANCH  12  13
DOCKED: ATOM     13  C   UNL     1     138.457  76.890 222.570 -0.24 -0.03    +0.162 A  
DOCKED: ATOM     14  N   UNL     1     137.111  76.808 222.600 -0.19 +0.02    -0.126 NA 
DOCKED: ATOM     15  C   UNL     1     138.817  78.189 222.885 -0.24 -0.02    +0.100 A  
DOCKED: ATOM     16  N   UNL     1     136.659  78.013 222.920 -0.16 +0.01    -0.066 NA 
DOCKED: ATOM     17  N   UNL     1     137.664  78.858 223.088 -0.13 +0.03    -0.247 N  
DOCKED: ATOM     18  C   UNL     1     137.492  80.266 223.430 -0.21 -0.02    +0.176 C  
DOCKED: BRANCH  15  19
DOCKED: ATOM     19  C   UNL     1     140.169  78.786 222.862 -0.40 -0.00    +0.002 A  
DOCKED: ATOM     20  C   UNL     1     140.918  78.788 221.673 -0.33 -0.00    +0.013 A  
DOCKED: ATOM     21  C   UNL     1     140.714  79.363 224.021 -0.44 -0.00    +0.013 A  
DOCKED: ATOM     22  C   UNL     1     142.198  79.351 221.647 -0.37 -0.02    +0.040 A  
DOCKED: ATOM     23  C   UNL     1     141.993  79.929 223.990 -0.52 -0.01    +0.040 A  
DOCKED: ATOM     24  C   UNL     1     142.735  79.923 222.805 -0.53 -0.05    +0.123 A  
DOCKED: ATOM     25  F   UNL     1     143.975  80.471 222.778 -0.14 +0.06    -0.207 F  
DOCKED: ENDBRANCH  15  19
DOCKED: ENDBRANCH  12  13
DOCKED: ENDBRANCH   7   8
DOCKED: ENDBRANCH   1   7
DOCKED: TORSDOF 8
DOCKED: TER
DOCKED: ENDMDL
________________________________________________________________________________


    FINAL DOCKED STATE:
    ________________________


Run:   6 / 20
Time taken for this run:   0.045s

DOCKED: MODEL        6
DOCKED: USER    Run = 6
DOCKED: USER
DOCKED: USER    Estimated Free Energy of Binding    =  -5.76 kcal/mol  [=(1)+(2)+(3)-(4)]
DOCKED: USER
DOCKED: USER    (1) Final Intermolecular Energy     =  -8.14 kcal/mol
DOCKED: USER        vdW + Hbond + desolv Energy     =  -8.10 kcal/mol
DOCKED: USER        Electrostatic Energy            =  -0.05 kcal/mol
DOCKED: USER        Moving Ligand-Fixed Receptor    =  -8.14 kcal/mol
DOCKED: USER        Moving Ligand-Moving Receptor   =  +0.00 kcal/mol
DOCKED: USER    (2) Final Total Internal Energy     =  -1.92 kcal/mol
DOCKED: USER    (3) Torsional Free Energy           =  +2.39 kcal/mol
DOCKED: USER    (4) Unbound System's Energy         =  -1.92 kcal/mol
DOCKED: USER
DOCKED: USER
DOCKED: REMARK SMILES CCCCCCCn1nnc(-c2nnn(C)c2-c2ccc(F)cc2)n1
DOCKED: REMARK SMILES IDX 6 1 5 2 4 3 3 4 2 5 1 6 7 7 8 8 9 9 25 10 10 11 11 12 12 13
DOCKED: REMARK SMILES IDX 13 14 17 15 14 16 15 17 16 18 18 19 19 20 24 21 20 22 23 23
DOCKED: REMARK SMILES IDX 21 24 22 25
DOCKED: REMARK H PARENT
DOCKED: USER                              x       y       z     vdW  Elec       q    Type
DOCKED: USER                           _______ _______ _______ _____ _____    ______ ____
DOCKED: ROOT
DOCKED: ATOM      1  C   UNL     1     142.943  74.961 219.365 -0.29 -0.01    +0.026 C  
DOCKED: ENDROOT
DOCKED: BRANCH   1   2
DOCKED: ATOM      2  C   UNL     1     143.067  76.489 219.189 -0.37 -0.00    +0.002 C  
DOCKED: BRANCH   2   3
DOCKED: ATOM      3  C   UNL     1     141.947  77.068 218.305 -0.22 -0.00    +0.000 C  
DOCKED: BRANCH   3   4
DOCKED: ATOM      4  C   UNL     1     141.629  78.541 218.623 -0.23 +0.00    -0.000 C  
DOCKED: BRANCH   4   5
DOCKED: ATOM      5  C   UNL     1     142.193  79.552 217.608 -0.29 +0.00    -0.003 C  
DOCKED: ATOM      6  C   UNL     1     142.511  80.909 218.233 -0.33 -0.00    +0.004 C  
DOCKED: ENDBRANCH   4   5
DOCKED: ENDBRANCH   3   4
DOCKED: ENDBRANCH   2   3
DOCKED: ENDBRANCH   1   2
DOCKED: BRANCH   1   7
DOCKED: ATOM      7  C   UNL     1     142.790  74.530 220.832 -0.14 -0.06    +0.170 C  
DOCKED: BRANCH   7   8
DOCKED: ATOM      8  N   UNL     1     141.443  74.797 221.322 -0.24 +0.04    -0.164 N  
DOCKED: ATOM      9  N   UNL     1     140.670  73.892 221.899 -0.77 +0.00    -0.047 NA 
DOCKED: ATOM     10  N   UNL     1     140.893  75.998 221.373 -0.27 +0.04    -0.129 NA 
DOCKED: ATOM     11  N   UNL     1     139.574  74.485 222.340 -0.77 +0.01    -0.106 NA 
DOCKED: ATOM     12  C   UNL     1     139.727  75.785 222.013 -0.25 -0.04    +0.227 A  
DOCKED: BRANCH  12  13
DOCKED: ATOM     13  C   UNL     1     138.763  76.843 222.341 -0.25 -0.03    +0.162 A  
DOCKED: ATOM     14  N   UNL     1     137.426  76.679 222.298 -0.18 +0.03    -0.126 NA 
DOCKED: ATOM     15  C   UNL     1     139.027  78.131 222.770 -0.26 -0.02    +0.100 A  
DOCKED: ATOM     16  N   UNL     1     136.886  77.827 222.687 -0.17 +0.01    -0.066 NA 
DOCKED: ATOM     17  N   UNL     1     137.828  78.714 222.968 -0.13 +0.04    -0.247 N  
DOCKED: ATOM     18  C   UNL     1     137.553  80.078 223.407 -0.21 -0.02    +0.176 C  
DOCKED: BRANCH  15  19
DOCKED: ATOM     19  C   UNL     1     140.340  78.806 222.859 -0.42 -0.00    +0.002 A  
DOCKED: ATOM     20  C   UNL     1     140.982  79.255 221.692 -0.34 -0.00    +0.013 A  
DOCKED: ATOM     21  C   UNL     1     140.953  79.014 224.106 -0.41 -0.00    +0.013 A  
DOCKED: ATOM     22  C   UNL     1     142.223  79.894 221.771 -0.43 -0.02    +0.040 A  
DOCKED: ATOM     23  C   UNL     1     142.192  79.657 224.182 -0.46 -0.01    +0.040 A  
DOCKED: ATOM     24  C   UNL     1     142.827  80.096 223.016 -0.55 -0.04    +0.123 A  
DOCKED: ATOM     25  F   UNL     1     144.030  80.719 223.092 -0.11 +0.05    -0.207 F  
DOCKED: ENDBRANCH  15  19
DOCKED: ENDBRANCH  12  13
DOCKED: ENDBRANCH   7   8
DOCKED: ENDBRANCH   1   7
DOCKED: TORSDOF 8
DOCKED: TER
DOCKED: ENDMDL
________________________________________________________________________________


    FINAL DOCKED STATE:
    ________________________


Run:   7 / 20
Time taken for this run:   0.045s

DOCKED: MODEL        7
DOCKED: USER    Run = 7
DOCKED: USER
DOCKED: USER    Estimated Free Energy of Binding    =  -5.74 kcal/mol  [=(1)+(2)+(3)-(4)]
DOCKED: USER
DOCKED: USER    (1) Final Intermolecular Energy     =  -8.13 kcal/mol
DOCKED: USER        vdW + Hbond + desolv Energy     =  -8.08 kcal/mol
DOCKED: USER        Electrostatic Energy            =  -0.05 kcal/mol
DOCKED: USER        Moving Ligand-Fixed Receptor    =  -8.13 kcal/mol
DOCKED: USER        Moving Ligand-Moving Receptor   =  +0.00 kcal/mol
DOCKED: USER    (2) Final Total Internal Energy     =  -1.95 kcal/mol
DOCKED: USER    (3) Torsional Free Energy           =  +2.39 kcal/mol
DOCKED: USER    (4) Unbound System's Energy         =  -1.95 kcal/mol
DOCKED: USER
DOCKED: USER
DOCKED: REMARK SMILES CCCCCCCn1nnc(-c2nnn(C)c2-c2ccc(F)cc2)n1
DOCKED: REMARK SMILES IDX 6 1 5 2 4 3 3 4 2 5 1 6 7 7 8 8 9 9 25 10 10 11 11 12 12 13
DOCKED: REMARK SMILES IDX 13 14 17 15 14 16 15 17 16 18 18 19 19 20 24 21 20 22 23 23
DOCKED: REMARK SMILES IDX 21 24 22 25
DOCKED: REMARK H PARENT
DOCKED: USER                              x       y       z     vdW  Elec       q    Type
DOCKED: USER                           _______ _______ _______ _____ _____    ______ ____
DOCKED: ROOT
DOCKED: ATOM      1  C   UNL     1     143.006  75.203 219.468 -0.32 -0.01    +0.026 C  
DOCKED: ENDROOT
DOCKED: BRANCH   1   2
DOCKED: ATOM      2  C   UNL     1     143.222  76.727 219.581 -0.33 -0.00    +0.002 C  
DOCKED: BRANCH   2   3
DOCKED: ATOM      3  C   UNL     1     142.078  77.529 218.931 -0.29 -0.00    +0.000 C  
DOCKED: BRANCH   3   4
DOCKED: ATOM      4  C   UNL     1     142.576  78.740 218.120 -0.33 +0.00    -0.000 C  
DOCKED: BRANCH   4   5
DOCKED: ATOM      5  C   UNL     1     142.204  80.108 218.718 -0.33 +0.00    -0.003 C  
DOCKED: ATOM      6  C   UNL     1     142.616  81.280 217.828 -0.34 -0.00    +0.004 C  
DOCKED: ENDBRANCH   4   5
DOCKED: ENDBRANCH   3   4
DOCKED: ENDBRANCH   2   3
DOCKED: ENDBRANCH   1   2
DOCKED: BRANCH   1   7
DOCKED: ATOM      7  C   UNL     1     142.792  74.519 220.828 -0.14 -0.06    +0.170 C  
DOCKED: BRANCH   7   8
DOCKED: ATOM      8  N   UNL     1     141.435  74.732 221.317 -0.24 +0.04    -0.164 N  
DOCKED: ATOM      9  N   UNL     1     140.707  73.803 221.914 -0.77 +0.00    -0.047 NA 
DOCKED: ATOM     10  N   UNL     1     140.830  75.907 221.348 -0.27 +0.04    -0.129 NA 
DOCKED: ATOM     11  N   UNL     1     139.586  74.353 222.348 -0.78 +0.01    -0.106 NA 
DOCKED: ATOM     12  C   UNL     1     139.677  75.652 221.996 -0.24 -0.04    +0.227 A  
DOCKED: BRANCH  12  13
DOCKED: ATOM     13  C   UNL     1     138.666  76.670 222.306 -0.25 -0.03    +0.162 A  
DOCKED: ATOM     14  N   UNL     1     137.339  76.433 222.315 -0.18 +0.03    -0.126 NA 
DOCKED: ATOM     15  C   UNL     1     138.871  77.990 222.669 -0.26 -0.02    +0.100 A  
DOCKED: ATOM     16  N   UNL     1     136.748  77.566 222.669 -0.17 +0.01    -0.066 NA 
DOCKED: ATOM     17  N   UNL     1     137.647  78.515 222.879 -0.13 +0.04    -0.247 N  
DOCKED: ATOM     18  C   UNL     1     137.310  79.881 223.264 -0.18 -0.02    +0.176 C  
DOCKED: BRANCH  15  19
DOCKED: ATOM     19  C   UNL     1     140.145  78.739 222.684 -0.39 -0.00    +0.002 A  
DOCKED: ATOM     20  C   UNL     1     141.226  78.274 223.453 -0.47 -0.00    +0.013 A  
DOCKED: ATOM     21  C   UNL     1     140.293  79.913 221.926 -0.28 -0.00    +0.013 A  
DOCKED: ATOM     22  C   UNL     1     142.434  78.979 223.470 -0.43 -0.02    +0.040 A  
DOCKED: ATOM     23  C   UNL     1     141.504  80.613 221.943 -0.42 -0.01    +0.040 A  
DOCKED: ATOM     24  C   UNL     1     142.573  80.147 222.714 -0.52 -0.04    +0.123 A  
DOCKED: ATOM     25  F   UNL     1     143.745  80.829 222.729 -0.03 +0.05    -0.207 F  
DOCKED: ENDBRANCH  15  19
DOCKED: ENDBRANCH  12  13
DOCKED: ENDBRANCH   7   8
DOCKED: ENDBRANCH   1   7
DOCKED: TORSDOF 8
DOCKED: TER
DOCKED: ENDMDL
________________________________________________________________________________


    FINAL DOCKED STATE:
    ________________________


Run:   8 / 20
Time taken for this run:   0.045s

DOCKED: MODEL        8
DOCKED: USER    Run = 8
DOCKED: USER
DOCKED: USER    Estimated Free Energy of Binding    =  -6.96 kcal/mol  [=(1)+(2)+(3)-(4)]
DOCKED: USER
DOCKED: USER    (1) Final Intermolecular Energy     =  -9.34 kcal/mol
DOCKED: USER        vdW + Hbond + desolv Energy     =  -9.33 kcal/mol
DOCKED: USER        Electrostatic Energy            =  -0.02 kcal/mol
DOCKED: USER        Moving Ligand-Fixed Receptor    =  -9.34 kcal/mol
DOCKED: USER        Moving Ligand-Moving Receptor   =  +0.00 kcal/mol
DOCKED: USER    (2) Final Total Internal Energy     =  -1.29 kcal/mol
DOCKED: USER    (3) Torsional Free Energy           =  +2.39 kcal/mol
DOCKED: USER    (4) Unbound System's Energy         =  -1.29 kcal/mol
DOCKED: USER
DOCKED: USER
DOCKED: REMARK SMILES CCCCCCCn1nnc(-c2nnn(C)c2-c2ccc(F)cc2)n1
DOCKED: REMARK SMILES IDX 6 1 5 2 4 3 3 4 2 5 1 6 7 7 8 8 9 9 25 10 10 11 11 12 12 13
DOCKED: REMARK SMILES IDX 13 14 17 15 14 16 15 17 16 18 18 19 19 20 24 21 20 22 23 23
DOCKED: REMARK SMILES IDX 21 24 22 25
DOCKED: REMARK H PARENT
DOCKED: USER                              x       y       z     vdW  Elec       q    Type
DOCKED: USER                           _______ _______ _______ _____ _____    ______ ____
DOCKED: ROOT
DOCKED: ATOM      1  C   UNL     1     140.700  71.563 223.142 -0.29 -0.00    +0.026 C  
DOCKED: ENDROOT
DOCKED: BRANCH   1   2
DOCKED: ATOM      2  C   UNL     1     139.414  71.261 223.940 -0.36 -0.00    +0.002 C  
DOCKED: BRANCH   2   3
DOCKED: ATOM      3  C   UNL     1     139.674  70.324 225.135 -0.45 -0.00    +0.000 C  
DOCKED: BRANCH   3   4
DOCKED: ATOM      4  C   UNL     1     141.051  70.549 225.788 -0.59 +0.00    -0.000 C  
DOCKED: BRANCH   4   5
DOCKED: ATOM      5  C   UNL     1     141.175  71.857 226.589 -0.72 +0.00    -0.003 C  
DOCKED: ATOM      6  C   UNL     1     140.766  71.701 228.053 -0.80 -0.00    +0.004 C  
DOCKED: ENDBRANCH   4   5
DOCKED: ENDBRANCH   3   4
DOCKED: ENDBRANCH   2   3
DOCKED: ENDBRANCH   1   2
DOCKED: BRANCH   1   7
DOCKED: ATOM      7  C   UNL     1     140.432  72.273 221.806 -0.22 -0.02    +0.170 C  
DOCKED: BRANCH   7   8
DOCKED: ATOM      8  N   UNL     1     140.332  73.717 221.986 -0.23 +0.01    -0.164 N  
DOCKED: ATOM      9  N   UNL     1     141.297  74.570 221.689 -0.47 +0.01    -0.047 NA 
DOCKED: ATOM     10  N   UNL     1     139.224  74.350 222.333 -0.63 +0.03    -0.129 NA 
DOCKED: ATOM     11  N   UNL     1     140.842  75.802 221.845 -0.41 +0.03    -0.106 NA 
DOCKED: ATOM     12  C   UNL     1     139.560  75.650 222.239 -0.23 -0.04    +0.227 A  
DOCKED: BRANCH  12  13
DOCKED: ATOM     13  C   UNL     1     138.635  76.760 222.500 -0.24 -0.03    +0.162 A  
DOCKED: ATOM     14  N   UNL     1     137.293  76.634 222.503 -0.20 +0.03    -0.126 NA 
DOCKED: ATOM     15  C   UNL     1     138.947  78.071 222.816 -0.25 -0.02    +0.100 A  
DOCKED: ATOM     16  N   UNL     1     136.796  77.825 222.808 -0.17 +0.01    -0.066 NA 
DOCKED: ATOM     17  N   UNL     1     137.769  78.703 222.993 -0.13 +0.04    -0.247 N  
DOCKED: ATOM     18  C   UNL     1     137.545  80.106 223.324 -0.21 -0.02    +0.176 C  
DOCKED: BRANCH  15  19
DOCKED: ATOM     19  C   UNL     1     140.280  78.711 222.819 -0.41 -0.00    +0.002 A  
DOCKED: ATOM     20  C   UNL     1     140.926  78.997 221.604 -0.32 -0.00    +0.013 A  
DOCKED: ATOM     21  C   UNL     1     140.907  79.047 224.030 -0.43 -0.00    +0.013 A  
DOCKED: ATOM     22  C   UNL     1     142.186  79.602 221.602 -0.39 -0.02    +0.040 A  
DOCKED: ATOM     23  C   UNL     1     142.166  79.656 224.023 -0.52 -0.01    +0.040 A  
DOCKED: ATOM     24  C   UNL     1     142.806  79.933 222.811 -0.53 -0.05    +0.123 A  
DOCKED: ATOM     25  F   UNL     1     144.027  80.523 222.808 -0.13 +0.06    -0.207 F  
DOCKED: ENDBRANCH  15  19
DOCKED: ENDBRANCH  12  13
DOCKED: ENDBRANCH   7   8
DOCKED: ENDBRANCH   1   7
DOCKED: TORSDOF 8
DOCKED: TER
DOCKED: ENDMDL
________________________________________________________________________________


    FINAL DOCKED STATE:
    ________________________


Run:   9 / 20
Time taken for this run:   0.045s

DOCKED: MODEL        9
DOCKED: USER    Run = 9
DOCKED: USER
DOCKED: USER    Estimated Free Energy of Binding    =  -6.88 kcal/mol  [=(1)+(2)+(3)-(4)]
DOCKED: USER
DOCKED: USER    (1) Final Intermolecular Energy     =  -9.27 kcal/mol
DOCKED: USER        vdW + Hbond + desolv Energy     =  -9.25 kcal/mol
DOCKED: USER        Electrostatic Energy            =  -0.02 kcal/mol
DOCKED: USER        Moving Ligand-Fixed Receptor    =  -9.27 kcal/mol
DOCKED: USER        Moving Ligand-Moving Receptor   =  +0.00 kcal/mol
DOCKED: USER    (2) Final Total Internal Energy     =  -1.15 kcal/mol
DOCKED: USER    (3) Torsional Free Energy           =  +2.39 kcal/mol
DOCKED: USER    (4) Unbound System's Energy         =  -1.15 kcal/mol
DOCKED: USER
DOCKED: USER
DOCKED: REMARK SMILES CCCCCCCn1nnc(-c2nnn(C)c2-c2ccc(F)cc2)n1
DOCKED: REMARK SMILES IDX 6 1 5 2 4 3 3 4 2 5 1 6 7 7 8 8 9 9 25 10 10 11 11 12 12 13
DOCKED: REMARK SMILES IDX 13 14 17 15 14 16 15 17 16 18 18 19 19 20 24 21 20 22 23 23
DOCKED: REMARK SMILES IDX 21 24 22 25
DOCKED: REMARK H PARENT
DOCKED: USER                              x       y       z     vdW  Elec       q    Type
DOCKED: USER                           _______ _______ _______ _____ _____    ______ ____
DOCKED: ROOT
DOCKED: ATOM      1  C   UNL     1     139.260  71.622 222.332 -0.24 -0.01    +0.026 C  
DOCKED: ENDROOT
DOCKED: BRANCH   1   2
DOCKED: ATOM      2  C   UNL     1     139.444  70.892 223.679 -0.36 -0.00    +0.002 C  
DOCKED: BRANCH   2   3
DOCKED: ATOM      3  C   UNL     1     140.618  71.462 224.498 -0.45 -0.00    +0.000 C  
DOCKED: BRANCH   3   4
DOCKED: ATOM      4  C   UNL     1     140.678  70.905 225.933 -0.62 +0.00    -0.000 C  
DOCKED: BRANCH   4   5
DOCKED: ATOM      5  C   UNL     1     141.078  71.935 227.003 -0.78 +0.00    -0.003 C  
DOCKED: ATOM      6  C   UNL     1     140.355  71.725 228.333 -0.72 -0.00    +0.004 C  
DOCKED: ENDBRANCH   4   5
DOCKED: ENDBRANCH   3   4
DOCKED: ENDBRANCH   2   3
DOCKED: ENDBRANCH   1   2
DOCKED: BRANCH   1   7
DOCKED: ATOM      7  C   UNL     1     140.533  72.338 221.853 -0.22 -0.02    +0.170 C  
DOCKED: BRANCH   7   8
DOCKED: ATOM      8  N   UNL     1     140.406  73.785 221.984 -0.23 +0.01    -0.164 N  
DOCKED: ATOM      9  N   UNL     1     141.339  74.648 221.619 -0.45 +0.01    -0.047 NA 
DOCKED: ATOM     10  N   UNL     1     139.297  74.405 222.351 -0.65 +0.03    -0.129 NA 
DOCKED: ATOM     11  N   UNL     1     140.861  75.874 221.748 -0.37 +0.03    -0.106 NA 
DOCKED: ATOM     12  C   UNL     1     139.599  75.709 222.197 -0.23 -0.04    +0.227 A  
DOCKED: BRANCH  12  13
DOCKED: ATOM     13  C   UNL     1     138.658  76.806 222.454 -0.24 -0.03    +0.162 A  
DOCKED: ATOM     14  N   UNL     1     137.317  76.669 222.424 -0.19 +0.03    -0.126 NA 
DOCKED: ATOM     15  C   UNL     1     138.951  78.115 222.796 -0.25 -0.02    +0.100 A  
DOCKED: ATOM     16  N   UNL     1     136.803  77.851 222.736 -0.17 +0.01    -0.066 NA 
DOCKED: ATOM     17  N   UNL     1     137.764  78.735 222.955 -0.13 +0.04    -0.247 N  
DOCKED: ATOM     18  C   UNL     1     137.520  80.131 223.302 -0.21 -0.02    +0.176 C  
DOCKED: BRANCH  15  19
DOCKED: ATOM     19  C   UNL     1     140.277  78.767 222.837 -0.41 -0.00    +0.002 A  
DOCKED: ATOM     20  C   UNL     1     140.886  79.047 224.072 -0.41 -0.00    +0.013 A  
DOCKED: ATOM     21  C   UNL     1     140.945  79.102 221.647 -0.33 -0.00    +0.013 A  
DOCKED: ATOM     22  C   UNL     1     142.141  79.662 224.116 -0.49 -0.01    +0.040 A  
DOCKED: ATOM     23  C   UNL     1     142.202  79.714 221.696 -0.42 -0.02    +0.040 A  
DOCKED: ATOM     24  C   UNL     1     142.799  79.995 222.929 -0.54 -0.04    +0.123 A  
DOCKED: ATOM     25  F   UNL     1     144.017  80.590 222.972 -0.13 +0.06    -0.207 F  
DOCKED: ENDBRANCH  15  19
DOCKED: ENDBRANCH  12  13
DOCKED: ENDBRANCH   7   8
DOCKED: ENDBRANCH   1   7
DOCKED: TORSDOF 8
DOCKED: TER
DOCKED: ENDMDL
________________________________________________________________________________


    FINAL DOCKED STATE:
    ________________________


Run:   10 / 20
Time taken for this run:   0.045s

DOCKED: MODEL        10
DOCKED: USER    Run = 10
DOCKED: USER
DOCKED: USER    Estimated Free Energy of Binding    =  -5.73 kcal/mol  [=(1)+(2)+(3)-(4)]
DOCKED: USER
DOCKED: USER    (1) Final Intermolecular Energy     =  -8.11 kcal/mol
DOCKED: USER        vdW + Hbond + desolv Energy     =  -8.07 kcal/mol
DOCKED: USER        Electrostatic Energy            =  -0.04 kcal/mol
DOCKED: USER        Moving Ligand-Fixed Receptor    =  -8.11 kcal/mol
DOCKED: USER        Moving Ligand-Moving Receptor   =  +0.00 kcal/mol
DOCKED: USER    (2) Final Total Internal Energy     =  -2.00 kcal/mol
DOCKED: USER    (3) Torsional Free Energy           =  +2.39 kcal/mol
DOCKED: USER    (4) Unbound System's Energy         =  -2.00 kcal/mol
DOCKED: USER
DOCKED: USER
DOCKED: REMARK SMILES CCCCCCCn1nnc(-c2nnn(C)c2-c2ccc(F)cc2)n1
DOCKED: REMARK SMILES IDX 6 1 5 2 4 3 3 4 2 5 1 6 7 7 8 8 9 9 25 10 10 11 11 12 12 13
DOCKED: REMARK SMILES IDX 13 14 17 15 14 16 15 17 16 18 18 19 19 20 24 21 20 22 23 23
DOCKED: REMARK SMILES IDX 21 24 22 25
DOCKED: REMARK H PARENT
DOCKED: USER                              x       y       z     vdW  Elec       q    Type
DOCKED: USER                           _______ _______ _______ _____ _____    ______ ____
DOCKED: ROOT
DOCKED: ATOM      1  C   UNL     1     142.501  75.417 219.284 -0.26 -0.01    +0.026 C  
DOCKED: ENDROOT
DOCKED: BRANCH   1   2
DOCKED: ATOM      2  C   UNL     1     143.327  76.720 219.264 -0.36 -0.00    +0.002 C  
DOCKED: BRANCH   2   3
DOCKED: ATOM      3  C   UNL     1     142.544  77.899 218.655 -0.32 -0.00    +0.000 C  
DOCKED: BRANCH   3   4
DOCKED: ATOM      4  C   UNL     1     141.802  78.739 219.712 -0.29 +0.00    -0.000 C  
DOCKED: BRANCH   4   5
DOCKED: ATOM      5  C   UNL     1     141.603  80.216 219.333 -0.28 +0.00    -0.003 C  
DOCKED: ATOM      6  C   UNL     1     142.536  80.675 218.212 -0.34 -0.00    +0.004 C  
DOCKED: ENDBRANCH   4   5
DOCKED: ENDBRANCH   3   4
DOCKED: ENDBRANCH   2   3
DOCKED: ENDBRANCH   1   2
DOCKED: BRANCH   1   7
DOCKED: ATOM      7  C   UNL     1     142.369  74.804 220.687 -0.20 -0.06    +0.170 C  
DOCKED: BRANCH   7   8
DOCKED: ATOM      8  N   UNL     1     141.075  75.120 221.281 -0.24 +0.04    -0.164 N  
DOCKED: ATOM      9  N   UNL     1     140.343  74.258 221.966 -0.85 +0.00    -0.047 NA 
DOCKED: ATOM     10  N   UNL     1     140.550  76.333 221.323 -0.23 +0.04    -0.129 NA 
DOCKED: ATOM     11  N   UNL     1     139.299  74.892 222.474 -0.53 +0.02    -0.106 NA 
DOCKED: ATOM     12  C   UNL     1     139.443  76.172 222.072 -0.24 -0.05    +0.227 A  
DOCKED: BRANCH  12  13
DOCKED: ATOM     13  C   UNL     1     138.529  77.263 222.433 -0.23 -0.03    +0.162 A  
DOCKED: ATOM     14  N   UNL     1     137.185  77.152 222.420 -0.17 +0.02    -0.126 NA 
DOCKED: ATOM     15  C   UNL     1     138.853  78.536 222.869 -0.26 -0.02    +0.100 A  
DOCKED: ATOM     16  N   UNL     1     136.700  78.315 222.833 -0.16 +0.01    -0.066 NA 
DOCKED: ATOM     17  N   UNL     1     137.681  79.162 223.100 -0.14 +0.03    -0.247 N  
DOCKED: ATOM     18  C   UNL     1     137.470  80.531 223.558 -0.22 -0.02    +0.176 C  
DOCKED: BRANCH  15  19
DOCKED: ATOM     19  C   UNL     1     140.192  79.159 222.933 -0.41 -0.00    +0.002 A  
DOCKED: ATOM     20  C   UNL     1     141.292  78.417 223.396 -0.52 -0.00    +0.013 A  
DOCKED: ATOM     21  C   UNL     1     140.381  80.490 222.525 -0.36 -0.00    +0.013 A  
DOCKED: ATOM     22  C   UNL     1     142.561  79.002 223.458 -0.38 -0.02    +0.040 A  
DOCKED: ATOM     23  C   UNL     1     141.652  81.070 222.586 -0.49 -0.01    +0.040 A  
DOCKED: ATOM     24  C   UNL     1     142.741  80.327 223.052 -0.55 -0.04    +0.123 A  
DOCKED: ATOM     25  F   UNL     1     143.972  80.893 223.111 -0.04 +0.05    -0.207 F  
DOCKED: ENDBRANCH  15  19
DOCKED: ENDBRANCH  12  13
DOCKED: ENDBRANCH   7   8
DOCKED: ENDBRANCH   1   7
DOCKED: TORSDOF 8
DOCKED: TER
DOCKED: ENDMDL
________________________________________________________________________________


    FINAL DOCKED STATE:
    ________________________


Run:   11 / 20
Time taken for this run:   0.045s

DOCKED: MODEL        11
DOCKED: USER    Run = 11
DOCKED: USER
DOCKED: USER    Estimated Free Energy of Binding    =  -5.81 kcal/mol  [=(1)+(2)+(3)-(4)]
DOCKED: USER
DOCKED: USER    (1) Final Intermolecular Energy     =  -8.20 kcal/mol
DOCKED: USER        vdW + Hbond + desolv Energy     =  -8.16 kcal/mol
DOCKED: USER        Electrostatic Energy            =  -0.04 kcal/mol
DOCKED: USER        Moving Ligand-Fixed Receptor    =  -8.20 kcal/mol
DOCKED: USER        Moving Ligand-Moving Receptor   =  +0.00 kcal/mol
DOCKED: USER    (2) Final Total Internal Energy     =  -1.96 kcal/mol
DOCKED: USER    (3) Torsional Free Energy           =  +2.39 kcal/mol
DOCKED: USER    (4) Unbound System's Energy         =  -1.96 kcal/mol
DOCKED: USER
DOCKED: USER
DOCKED: REMARK SMILES CCCCCCCn1nnc(-c2nnn(C)c2-c2ccc(F)cc2)n1
DOCKED: REMARK SMILES IDX 6 1 5 2 4 3 3 4 2 5 1 6 7 7 8 8 9 9 25 10 10 11 11 12 12 13
DOCKED: REMARK SMILES IDX 13 14 17 15 14 16 15 17 16 18 18 19 19 20 24 21 20 22 23 23
DOCKED: REMARK SMILES IDX 21 24 22 25
DOCKED: REMARK H PARENT
DOCKED: USER                              x       y       z     vdW  Elec       q    Type
DOCKED: USER                           _______ _______ _______ _____ _____    ______ ____
DOCKED: ROOT
DOCKED: ATOM      1  C   UNL     1     142.735  74.203 219.311 -0.21 -0.01    +0.026 C  
DOCKED: ENDROOT
DOCKED: BRANCH   1   2
DOCKED: ATOM      2  C   UNL     1     143.205  75.393 218.447 -0.26 -0.00    +0.002 C  
DOCKED: BRANCH   2   3
DOCKED: ATOM      3  C   UNL     1     143.313  76.697 219.259 -0.36 -0.00    +0.000 C  
DOCKED: BRANCH   3   4
DOCKED: ATOM      4  C   UNL     1     142.191  77.702 218.938 -0.30 +0.00    -0.000 C  
DOCKED: BRANCH   4   5
DOCKED: ATOM      5  C   UNL     1     142.571  78.782 217.911 -0.32 +0.00    -0.003 C  
DOCKED: ATOM      6  C   UNL     1     142.255  80.198 218.389 -0.33 -0.00    +0.004 C  
DOCKED: ENDBRANCH   4   5
DOCKED: ENDBRANCH   3   4
DOCKED: ENDBRANCH   2   3
DOCKED: ENDBRANCH   1   2
DOCKED: BRANCH   1   7
DOCKED: ATOM      7  C   UNL     1     142.760  74.501 220.818 -0.15 -0.06    +0.170 C  
DOCKED: BRANCH   7   8
DOCKED: ATOM      8  N   UNL     1     141.420  74.778 221.323 -0.24 +0.04    -0.164 N  
DOCKED: ATOM      9  N   UNL     1     140.655  73.884 221.925 -0.79 +0.00    -0.047 NA 
DOCKED: ATOM     10  N   UNL     1     140.873  75.981 221.362 -0.27 +0.04    -0.129 NA 
DOCKED: ATOM     11  N   UNL     1     139.566  74.486 222.373 -0.74 +0.01    -0.106 NA 
DOCKED: ATOM     12  C   UNL     1     139.716  75.780 222.022 -0.24 -0.04    +0.227 A  
DOCKED: BRANCH  12  13
DOCKED: ATOM     13  C   UNL     1     138.759  76.845 222.346 -0.25 -0.03    +0.162 A  
DOCKED: ATOM     14  N   UNL     1     137.420  76.689 222.307 -0.18 +0.03    -0.126 NA 
DOCKED: ATOM     15  C   UNL     1     139.031  78.134 222.770 -0.26 -0.02    +0.100 A  
DOCKED: ATOM     16  N   UNL     1     136.888  77.842 222.691 -0.17 +0.01    -0.066 NA 
DOCKED: ATOM     17  N   UNL     1     137.835  78.724 222.967 -0.14 +0.04    -0.247 N  
DOCKED: ATOM     18  C   UNL     1     137.569  80.092 223.400 -0.21 -0.02    +0.176 C  
DOCKED: BRANCH  15  19
DOCKED: ATOM     19  C   UNL     1     140.347  78.802 222.855 -0.42 -0.00    +0.002 A  
DOCKED: ATOM     20  C   UNL     1     140.994  79.235 221.684 -0.34 -0.00    +0.013 A  
DOCKED: ATOM     21  C   UNL     1     140.959  79.019 224.101 -0.42 -0.00    +0.013 A  
DOCKED: ATOM     22  C   UNL     1     142.239  79.867 221.759 -0.42 -0.02    +0.040 A  
DOCKED: ATOM     23  C   UNL     1     142.203  79.655 224.171 -0.46 -0.01    +0.040 A  
DOCKED: ATOM     24  C   UNL     1     142.843  80.078 223.002 -0.55 -0.04    +0.123 A  
DOCKED: ATOM     25  F   UNL     1     144.049  80.694 223.074 -0.11 +0.05    -0.207 F  
DOCKED: ENDBRANCH  15  19
DOCKED: ENDBRANCH  12  13
DOCKED: ENDBRANCH   7   8
DOCKED: ENDBRANCH   1   7
DOCKED: TORSDOF 8
DOCKED: TER
DOCKED: ENDMDL
________________________________________________________________________________


    FINAL DOCKED STATE:
    ________________________


Run:   12 / 20
Time taken for this run:   0.045s

DOCKED: MODEL        12
DOCKED: USER    Run = 12
DOCKED: USER
DOCKED: USER    Estimated Free Energy of Binding    =  -5.86 kcal/mol  [=(1)+(2)+(3)-(4)]
DOCKED: USER
DOCKED: USER    (1) Final Intermolecular Energy     =  -8.24 kcal/mol
DOCKED: USER        vdW + Hbond + desolv Energy     =  -8.26 kcal/mol
DOCKED: USER        Electrostatic Energy            =  +0.02 kcal/mol
DOCKED: USER        Moving Ligand-Fixed Receptor    =  -8.24 kcal/mol
DOCKED: USER        Moving Ligand-Moving Receptor   =  +0.00 kcal/mol
DOCKED: USER    (2) Final Total Internal Energy     =  -2.09 kcal/mol
DOCKED: USER    (3) Torsional Free Energy           =  +2.39 kcal/mol
DOCKED: USER    (4) Unbound System's Energy         =  -2.09 kcal/mol
DOCKED: USER
DOCKED: USER
DOCKED: REMARK SMILES CCCCCCCn1nnc(-c2nnn(C)c2-c2ccc(F)cc2)n1
DOCKED: REMARK SMILES IDX 6 1 5 2 4 3 3 4 2 5 1 6 7 7 8 8 9 9 25 10 10 11 11 12 12 13
DOCKED: REMARK SMILES IDX 13 14 17 15 14 16 15 17 16 18 18 19 19 20 24 21 20 22 23 23
DOCKED: REMARK SMILES IDX 21 24 22 25
DOCKED: REMARK H PARENT
DOCKED: USER                              x       y       z     vdW  Elec       q    Type
DOCKED: USER                           _______ _______ _______ _____ _____    ______ ____
DOCKED: ROOT
DOCKED: ATOM      1  C   UNL     1     140.866  69.899 228.163 -0.57 -0.00    +0.026 C  
DOCKED: ENDROOT
DOCKED: BRANCH   1   2
DOCKED: ATOM      2  C   UNL     1     140.723  71.422 227.954 -0.80 -0.00    +0.002 C  
DOCKED: BRANCH   2   3
DOCKED: ATOM      3  C   UNL     1     141.439  71.907 226.679 -0.70 -0.00    +0.000 C  
DOCKED: BRANCH   3   4
DOCKED: ATOM      4  C   UNL     1     141.087  71.070 225.435 -0.58 +0.00    -0.000 C  
DOCKED: BRANCH   4   5
DOCKED: ATOM      5  C   UNL     1     140.314  71.835 224.347 -0.34 +0.00    -0.003 C  
DOCKED: ATOM      6  C   UNL     1     140.300  71.108 223.002 -0.27 -0.00    +0.004 C  
DOCKED: ENDBRANCH   4   5
DOCKED: ENDBRANCH   3   4
DOCKED: ENDBRANCH   2   3
DOCKED: ENDBRANCH   1   2
DOCKED: BRANCH   1   7
DOCKED: ATOM      7  C   UNL     1     139.538  69.140 228.022 -0.41 -0.03    +0.170 C  
DOCKED: BRANCH   7   8
DOCKED: ATOM      8  N   UNL     1     139.322  68.706 226.646 -0.36 +0.02    -0.164 N  
DOCKED: ATOM      9  N   UNL     1     139.691  67.528 226.173 -0.71 +0.01    -0.047 NA 
DOCKED: ATOM     10  N   UNL     1     138.613  69.379 225.756 -0.28 +0.01    -0.129 NA 
DOCKED: ATOM     11  N   UNL     1     139.235  67.401 224.939 -0.88 -0.00    -0.106 NA 
DOCKED: ATOM     12  C   UNL     1     138.568  68.549 224.696 -0.23 -0.01    +0.227 A  
DOCKED: BRANCH  12  13
DOCKED: ATOM     13  C   UNL     1     137.853  68.846 223.449 -0.19 -0.02    +0.162 A  
DOCKED: ATOM     14  N   UNL     1     138.327  68.549 222.222 -0.13 +0.02    -0.126 NA 
DOCKED: ATOM     15  C   UNL     1     136.604  69.423 223.300 -0.15 -0.01    +0.100 A  
DOCKED: ATOM     16  N   UNL     1     137.403  68.930 221.350 -0.06 +0.01    -0.066 NA 
DOCKED: ATOM     17  N   UNL     1     136.365  69.464 221.974 -0.03 +0.04    -0.247 N  
DOCKED: ATOM     18  C   UNL     1     135.192  69.995 221.289 -0.01 -0.03    +0.176 C  
DOCKED: BRANCH  15  19
DOCKED: ATOM     19  C   UNL     1     135.750  70.019 224.350 -0.21 -0.00    +0.002 A  
DOCKED: ATOM     20  C   UNL     1     135.493  71.401 224.348 -0.18 -0.00    +0.013 A  
DOCKED: ATOM     21  C   UNL     1     135.181  69.214 225.350 -0.23 -0.00    +0.013 A  
DOCKED: ATOM     22  C   UNL     1     134.686  71.969 225.338 -0.19 -0.00    +0.040 A  
DOCKED: ATOM     23  C   UNL     1     134.371  69.785 226.337 -0.29 -0.00    +0.040 A  
DOCKED: ATOM     24  C   UNL     1     134.124  71.162 226.332 -0.28 -0.01    +0.123 A  
DOCKED: ATOM     25  F   UNL     1     133.339  71.713 227.291 -0.15 +0.03    -0.207 F  
DOCKED: ENDBRANCH  15  19
DOCKED: ENDBRANCH  12  13
DOCKED: ENDBRANCH   7   8
DOCKED: ENDBRANCH   1   7
DOCKED: TORSDOF 8
DOCKED: TER
DOCKED: ENDMDL
________________________________________________________________________________


    FINAL DOCKED STATE:
    ________________________


Run:   13 / 20
Time taken for this run:   0.045s

DOCKED: MODEL        13
DOCKED: USER    Run = 13
DOCKED: USER
DOCKED: USER    Estimated Free Energy of Binding    =  -5.75 kcal/mol  [=(1)+(2)+(3)-(4)]
DOCKED: USER
DOCKED: USER    (1) Final Intermolecular Energy     =  -8.14 kcal/mol
DOCKED: USER        vdW + Hbond + desolv Energy     =  -7.90 kcal/mol
DOCKED: USER        Electrostatic Energy            =  -0.23 kcal/mol
DOCKED: USER        Moving Ligand-Fixed Receptor    =  -8.14 kcal/mol
DOCKED: USER        Moving Ligand-Moving Receptor   =  +0.00 kcal/mol
DOCKED: USER    (2) Final Total Internal Energy     =  -1.72 kcal/mol
DOCKED: USER    (3) Torsional Free Energy           =  +2.39 kcal/mol
DOCKED: USER    (4) Unbound System's Energy         =  -1.72 kcal/mol
DOCKED: USER
DOCKED: USER
DOCKED: REMARK SMILES CCCCCCCn1nnc(-c2nnn(C)c2-c2ccc(F)cc2)n1
DOCKED: REMARK SMILES IDX 6 1 5 2 4 3 3 4 2 5 1 6 7 7 8 8 9 9 25 10 10 11 11 12 12 13
DOCKED: REMARK SMILES IDX 13 14 17 15 14 16 15 17 16 18 18 19 19 20 24 21 20 22 23 23
DOCKED: REMARK SMILES IDX 21 24 22 25
DOCKED: REMARK H PARENT
DOCKED: USER                              x       y       z     vdW  Elec       q    Type
DOCKED: USER                           _______ _______ _______ _____ _____    ______ ____
DOCKED: ROOT
DOCKED: ATOM      1  C   UNL     1     142.103  80.790 221.634 -0.42 -0.01    +0.026 C  
DOCKED: ENDROOT
DOCKED: BRANCH   1   2
DOCKED: ATOM      2  C   UNL     1     142.550  79.690 222.620 -0.60 -0.00    +0.002 C  
DOCKED: BRANCH   2   3
DOCKED: ATOM      3  C   UNL     1     141.518  79.455 223.740 -0.61 -0.00    +0.000 C  
DOCKED: BRANCH   3   4
DOCKED: ATOM      4  C   UNL     1     140.403  80.517 223.764 -0.41 +0.00    -0.000 C  
DOCKED: BRANCH   4   5
DOCKED: ATOM      5  C   UNL     1     138.978  79.946 223.866 -0.41 +0.00    -0.003 C  
DOCKED: ATOM      6  C   UNL     1     138.804  78.635 223.100 -0.31 -0.00    +0.004 C  
DOCKED: ENDBRANCH   4   5
DOCKED: ENDBRANCH   3   4
DOCKED: ENDBRANCH   2   3
DOCKED: ENDBRANCH   1   2
DOCKED: BRANCH   1   7
DOCKED: ATOM      7  C   UNL     1     141.332  80.241 220.423 -0.23 -0.07    +0.170 C  
DOCKED: BRANCH   7   8
DOCKED: ATOM      8  N   UNL     1     141.515  78.800 220.290 -0.19 +0.09    -0.164 N  
DOCKED: ATOM      9  N   UNL     1     142.450  78.238 219.543 -0.12 +0.04    -0.047 NA 
DOCKED: ATOM     10  N   UNL     1     140.863  77.897 221.002 -0.19 +0.05    -0.129 NA 
DOCKED: ATOM     11  N   UNL     1     142.428  76.931 219.743 -0.27 +0.07    -0.106 NA 
DOCKED: ATOM     12  C   UNL     1     141.447  76.735 220.649 -0.19 -0.11    +0.227 A  
DOCKED: BRANCH  12  13
DOCKED: ATOM     13  C   UNL     1     141.080  75.428 221.207 -0.26 -0.05    +0.162 A  
DOCKED: ATOM     14  N   UNL     1     140.059  75.238 222.066 -0.63 +0.02    -0.126 NA 
DOCKED: ATOM     15  C   UNL     1     141.657  74.198 220.943 -0.24 -0.02    +0.100 A  
DOCKED: ATOM     16  N   UNL     1     140.010  73.937 222.323 -0.86 +0.00    -0.066 NA 
DOCKED: ATOM     17  N   UNL     1     140.963  73.296 221.666 -0.19 +0.02    -0.247 N  
DOCKED: ATOM     18  C   UNL     1     141.182  71.856 221.753 -0.16 -0.02    +0.176 C  
DOCKED: BRANCH  15  19
DOCKED: ATOM     19  C   UNL     1     142.877  73.919 220.155 -0.29 -0.00    +0.002 A  
DOCKED: ATOM     20  C   UNL     1     144.104  73.708 220.807 -0.41 -0.00    +0.013 A  
DOCKED: ATOM     21  C   UNL     1     142.821  73.852 218.753 -0.14 -0.00    +0.013 A  
DOCKED: ATOM     22  C   UNL     1     145.260  73.443 220.066 -0.50 -0.00    +0.040 A  
DOCKED: ATOM     23  C   UNL     1     143.979  73.584 218.016 -0.15 -0.01    +0.040 A  
DOCKED: ATOM     24  C   UNL     1     145.197  73.380 218.671 -0.22 +0.01    +0.123 A  
DOCKED: ATOM     25  F   UNL     1     146.318  73.121 217.953 +0.09 -0.23    -0.207 F  
DOCKED: ENDBRANCH  15  19
DOCKED: ENDBRANCH  12  13
DOCKED: ENDBRANCH   7   8
DOCKED: ENDBRANCH   1   7
DOCKED: TORSDOF 8
DOCKED: TER
DOCKED: ENDMDL
________________________________________________________________________________


    FINAL DOCKED STATE:
    ________________________


Run:   14 / 20
Time taken for this run:   0.045s

DOCKED: MODEL        14
DOCKED: USER    Run = 14
DOCKED: USER
DOCKED: USER    Estimated Free Energy of Binding    =  -5.60 kcal/mol  [=(1)+(2)+(3)-(4)]
DOCKED: USER
DOCKED: USER    (1) Final Intermolecular Energy     =  -7.99 kcal/mol
DOCKED: USER        vdW + Hbond + desolv Energy     =  -7.94 kcal/mol
DOCKED: USER        Electrostatic Energy            =  -0.05 kcal/mol
DOCKED: USER        Moving Ligand-Fixed Receptor    =  -7.99 kcal/mol
DOCKED: USER        Moving Ligand-Moving Receptor   =  +0.00 kcal/mol
DOCKED: USER    (2) Final Total Internal Energy     =  -2.08 kcal/mol
DOCKED: USER    (3) Torsional Free Energy           =  +2.39 kcal/mol
DOCKED: USER    (4) Unbound System's Energy         =  -2.08 kcal/mol
DOCKED: USER
DOCKED: USER
DOCKED: REMARK SMILES CCCCCCCn1nnc(-c2nnn(C)c2-c2ccc(F)cc2)n1
DOCKED: REMARK SMILES IDX 6 1 5 2 4 3 3 4 2 5 1 6 7 7 8 8 9 9 25 10 10 11 11 12 12 13
DOCKED: REMARK SMILES IDX 13 14 17 15 14 16 15 17 16 18 18 19 19 20 24 21 20 22 23 23
DOCKED: REMARK SMILES IDX 21 24 22 25
DOCKED: REMARK H PARENT
DOCKED: USER                              x       y       z     vdW  Elec       q    Type
DOCKED: USER                           _______ _______ _______ _____ _____    ______ ____
DOCKED: ROOT
DOCKED: ATOM      1  C   UNL     1     142.983  75.049 219.388 -0.30 -0.01    +0.026 C  
DOCKED: ENDROOT
DOCKED: BRANCH   1   2
DOCKED: ATOM      2  C   UNL     1     143.249  76.569 219.351 -0.38 -0.00    +0.002 C  
DOCKED: BRANCH   2   3
DOCKED: ATOM      3  C   UNL     1     142.175  77.331 218.552 -0.28 -0.00    +0.000 C  
DOCKED: BRANCH   3   4
DOCKED: ATOM      4  C   UNL     1     142.564  78.793 218.262 -0.32 +0.00    -0.000 C  
DOCKED: BRANCH   4   5
DOCKED: ATOM      5  C   UNL     1     141.395  79.791 218.324 -0.22 +0.00    -0.003 C  
DOCKED: ATOM      6  C   UNL     1     140.041  79.112 218.525 -0.07 -0.00    +0.004 C  
DOCKED: ENDBRANCH   4   5
DOCKED: ENDBRANCH   3   4
DOCKED: ENDBRANCH   2   3
DOCKED: ENDBRANCH   1   2
DOCKED: BRANCH   1   7
DOCKED: ATOM      7  C   UNL     1     142.793  74.502 220.812 -0.15 -0.06    +0.170 C  
DOCKED: BRANCH   7   8
DOCKED: ATOM      8  N   UNL     1     141.450  74.778 221.309 -0.24 +0.04    -0.164 N  
DOCKED: ATOM      9  N   UNL     1     140.679  73.881 221.899 -0.77 +0.00    -0.047 NA 
DOCKED: ATOM     10  N   UNL     1     140.904  75.981 221.352 -0.27 +0.04    -0.129 NA 
DOCKED: ATOM     11  N   UNL     1     139.587  74.482 222.343 -0.77 +0.01    -0.106 NA 
DOCKED: ATOM     12  C   UNL     1     139.742  75.778 222.002 -0.25 -0.04    +0.227 A  
DOCKED: BRANCH  12  13
DOCKED: ATOM     13  C   UNL     1     138.784  76.842 222.325 -0.25 -0.03    +0.162 A  
DOCKED: ATOM     14  N   UNL     1     137.446  76.687 222.281 -0.18 +0.03    -0.126 NA 
DOCKED: ATOM     15  C   UNL     1     139.055  78.130 222.754 -0.26 -0.02    +0.100 A  
DOCKED: ATOM     16  N   UNL     1     136.912  77.839 222.666 -0.17 +0.01    -0.066 NA 
DOCKED: ATOM     17  N   UNL     1     137.859  78.720 222.948 -0.14 +0.04    -0.247 N  
DOCKED: ATOM     18  C   UNL     1     137.592  80.087 223.384 -0.21 -0.02    +0.176 C  
DOCKED: BRANCH  15  19
DOCKED: ATOM     19  C   UNL     1     140.372  78.797 222.845 -0.42 -0.00    +0.002 A  
DOCKED: ATOM     20  C   UNL     1     140.969  79.010 224.100 -0.42 -0.00    +0.013 A  
DOCKED: ATOM     21  C   UNL     1     141.042  79.215 221.683 -0.34 -0.00    +0.013 A  
DOCKED: ATOM     22  C   UNL     1     142.214  79.640 224.190 -0.45 -0.01    +0.040 A  
DOCKED: ATOM     23  C   UNL     1     142.289  79.842 221.778 -0.40 -0.02    +0.040 A  
DOCKED: ATOM     24  C   UNL     1     142.874  80.055 223.030 -0.55 -0.04    +0.123 A  
DOCKED: ATOM     25  F   UNL     1     144.083  80.663 223.119 -0.13 +0.05    -0.207 F  
DOCKED: ENDBRANCH  15  19
DOCKED: ENDBRANCH  12  13
DOCKED: ENDBRANCH   7   8
DOCKED: ENDBRANCH   1   7
DOCKED: TORSDOF 8
DOCKED: TER
DOCKED: ENDMDL
________________________________________________________________________________


    FINAL DOCKED STATE:
    ________________________


Run:   15 / 20
Time taken for this run:   0.045s

DOCKED: MODEL        15
DOCKED: USER    Run = 15
DOCKED: USER
DOCKED: USER    Estimated Free Energy of Binding    =  -6.77 kcal/mol  [=(1)+(2)+(3)-(4)]
DOCKED: USER
DOCKED: USER    (1) Final Intermolecular Energy     =  -9.15 kcal/mol
DOCKED: USER        vdW + Hbond + desolv Energy     =  -9.01 kcal/mol
DOCKED: USER        Electrostatic Energy            =  -0.14 kcal/mol
DOCKED: USER        Moving Ligand-Fixed Receptor    =  -9.15 kcal/mol
DOCKED: USER        Moving Ligand-Moving Receptor   =  +0.00 kcal/mol
DOCKED: USER    (2) Final Total Internal Energy     =  -1.06 kcal/mol
DOCKED: USER    (3) Torsional Free Energy           =  +2.39 kcal/mol
DOCKED: USER    (4) Unbound System's Energy         =  -1.06 kcal/mol
DOCKED: USER
DOCKED: USER
DOCKED: REMARK SMILES CCCCCCCn1nnc(-c2nnn(C)c2-c2ccc(F)cc2)n1
DOCKED: REMARK SMILES IDX 6 1 5 2 4 3 3 4 2 5 1 6 7 7 8 8 9 9 25 10 10 11 11 12 12 13
DOCKED: REMARK SMILES IDX 13 14 17 15 14 16 15 17 16 18 18 19 19 20 24 21 20 22 23 23
DOCKED: REMARK SMILES IDX 21 24 22 25
DOCKED: REMARK H PARENT
DOCKED: USER                              x       y       z     vdW  Elec       q    Type
DOCKED: USER                           _______ _______ _______ _____ _____    ______ ____
DOCKED: ROOT
DOCKED: ATOM      1  C   UNL     1     140.738  71.518 226.718 -0.70 -0.00    +0.026 C  
DOCKED: ENDROOT
DOCKED: BRANCH   1   2
DOCKED: ATOM      2  C   UNL     1     140.243  71.094 228.117 -0.67 -0.00    +0.002 C  
DOCKED: BRANCH   2   3
DOCKED: ATOM      3  C   UNL     1     139.619  69.685 228.114 -0.62 -0.00    +0.000 C  
DOCKED: BRANCH   3   4
DOCKED: ATOM      4  C   UNL     1     140.643  68.572 228.406 -0.67 +0.00    -0.000 C  
DOCKED: BRANCH   4   5
DOCKED: ATOM      5  C   UNL     1     141.071  67.757 227.173 -0.64 +0.00    -0.003 C  
DOCKED: ATOM      6  C   UNL     1     139.900  67.399 226.259 -0.63 -0.00    +0.004 C  
DOCKED: ENDBRANCH   4   5
DOCKED: ENDBRANCH   3   4
DOCKED: ENDBRANCH   2   3
DOCKED: ENDBRANCH   1   2
DOCKED: BRANCH   1   7
DOCKED: ATOM      7  C   UNL     1     140.544  70.430 225.651 -0.42 -0.03    +0.170 C  
DOCKED: BRANCH   7   8
DOCKED: ATOM      8  N   UNL     1     140.430  71.011 224.319 -0.32 +0.02    -0.164 N  
DOCKED: ATOM      9  N   UNL     1     139.880  70.397 223.286 -0.23 +0.01    -0.047 NA 
DOCKED: ATOM     10  N   UNL     1     140.735  72.264 224.024 -0.12 +0.01    -0.129 NA 
DOCKED: ATOM     11  N   UNL     1     139.818  71.241 222.269 -0.19 +0.02    -0.106 NA 
DOCKED: ATOM     12  C   UNL     1     140.345  72.390 222.741 -0.23 -0.02    +0.227 A  
DOCKED: BRANCH  12  13
DOCKED: ATOM     13  C   UNL     1     140.452  73.633 221.968 -0.21 -0.01    +0.162 A  
DOCKED: ATOM     14  N   UNL     1     139.527  74.614 221.990 -0.64 +0.02    -0.126 NA 
DOCKED: ATOM     15  C   UNL     1     141.487  74.035 221.141 -0.24 -0.02    +0.100 A  
DOCKED: ATOM     16  N   UNL     1     139.976  75.584 221.204 -0.23 +0.02    -0.066 NA 
DOCKED: ATOM     17  N   UNL     1     141.146  75.255 220.679 -0.15 +0.07    -0.247 N  
DOCKED: ATOM     18  C   UNL     1     141.890  76.106 219.757 -0.20 -0.08    +0.176 C  
DOCKED: BRANCH  15  19
DOCKED: ATOM     19  C   UNL     1     142.664  73.248 220.714 -0.28 -0.00    +0.002 A  
DOCKED: ATOM     20  C   UNL     1     143.955  73.791 220.835 -0.38 -0.00    +0.013 A  
DOCKED: ATOM     21  C   UNL     1     142.506  71.953 220.195 -0.20 -0.00    +0.013 A  
DOCKED: ATOM     22  C   UNL     1     145.071  73.050 220.433 -0.49 -0.00    +0.040 A  
DOCKED: ATOM     23  C   UNL     1     143.625  71.214 219.797 -0.22 -0.00    +0.040 A  
DOCKED: ATOM     24  C   UNL     1     144.906  71.762 219.915 -0.24 +0.01    +0.123 A  
DOCKED: ATOM     25  F   UNL     1     145.989  71.043 219.528 -0.08 -0.14    -0.207 F  
DOCKED: ENDBRANCH  15  19
DOCKED: ENDBRANCH  12  13
DOCKED: ENDBRANCH   7   8
DOCKED: ENDBRANCH   1   7
DOCKED: TORSDOF 8
DOCKED: TER
DOCKED: ENDMDL
________________________________________________________________________________


    FINAL DOCKED STATE:
    ________________________


Run:   16 / 20
Time taken for this run:   0.045s

DOCKED: MODEL        16
DOCKED: USER    Run = 16
DOCKED: USER
DOCKED: USER    Estimated Free Energy of Binding    =  -6.75 kcal/mol  [=(1)+(2)+(3)-(4)]
DOCKED: USER
DOCKED: USER    (1) Final Intermolecular Energy     =  -9.14 kcal/mol
DOCKED: USER        vdW + Hbond + desolv Energy     =  -8.91 kcal/mol
DOCKED: USER        Electrostatic Energy            =  -0.23 kcal/mol
DOCKED: USER        Moving Ligand-Fixed Receptor    =  -9.14 kcal/mol
DOCKED: USER        Moving Ligand-Moving Receptor   =  +0.00 kcal/mol
DOCKED: USER    (2) Final Total Internal Energy     =  -1.24 kcal/mol
DOCKED: USER    (3) Torsional Free Energy           =  +2.39 kcal/mol
DOCKED: USER    (4) Unbound System's Energy         =  -1.24 kcal/mol
DOCKED: USER
DOCKED: USER
DOCKED: REMARK SMILES CCCCCCCn1nnc(-c2nnn(C)c2-c2ccc(F)cc2)n1
DOCKED: REMARK SMILES IDX 6 1 5 2 4 3 3 4 2 5 1 6 7 7 8 8 9 9 25 10 10 11 11 12 12 13
DOCKED: REMARK SMILES IDX 13 14 17 15 14 16 15 17 16 18 18 19 19 20 24 21 20 22 23 23
DOCKED: REMARK SMILES IDX 21 24 22 25
DOCKED: REMARK H PARENT
DOCKED: USER                              x       y       z     vdW  Elec       q    Type
DOCKED: USER                           _______ _______ _______ _____ _____    ______ ____
DOCKED: ROOT
DOCKED: ATOM      1  C   UNL     1     141.054  70.832 225.356 -0.55 -0.00    +0.026 C  
DOCKED: ENDROOT
DOCKED: BRANCH   1   2
DOCKED: ATOM      2  C   UNL     1     141.061  71.590 226.700 -0.74 -0.00    +0.002 C  
DOCKED: BRANCH   2   3
DOCKED: ATOM      3  C   UNL     1     140.311  70.824 227.807 -0.70 -0.00    +0.000 C  
DOCKED: BRANCH   3   4
DOCKED: ATOM      4  C   UNL     1     140.891  69.421 228.067 -0.62 +0.00    -0.000 C  
DOCKED: BRANCH   4   5
DOCKED: ATOM      5  C   UNL     1     140.006  68.261 227.577 -0.65 +0.00    -0.003 C  
DOCKED: ATOM      6  C   UNL     1     140.626  67.489 226.414 -0.65 -0.00    +0.004 C  
DOCKED: ENDBRANCH   4   5
DOCKED: ENDBRANCH   3   4
DOCKED: ENDBRANCH   2   3
DOCKED: ENDBRANCH   1   2
DOCKED: BRANCH   1   7
DOCKED: ATOM      7  C   UNL     1     139.807  71.119 224.505 -0.35 -0.03    +0.170 C  
DOCKED: BRANCH   7   8
DOCKED: ATOM      8  N   UNL     1     140.167  71.717 223.225 -0.28 +0.02    -0.164 N  
DOCKED: ATOM      9  N   UNL     1     139.973  71.135 222.053 -0.19 +0.01    -0.047 NA 
DOCKED: ATOM     10  N   UNL     1     140.599  72.958 223.077 -0.30 -0.01    -0.129 NA 
DOCKED: ATOM     11  N   UNL     1     140.286  71.991 221.094 -0.13 +0.02    -0.106 NA 
DOCKED: ATOM     12  C   UNL     1     140.667  73.112 221.741 -0.21 -0.02    +0.227 A  
DOCKED: BRANCH  12  13
DOCKED: ATOM     13  C   UNL     1     141.072  74.357 221.077 -0.23 -0.03    +0.162 A  
DOCKED: ATOM     14  N   UNL     1     140.272  75.435 220.949 -0.19 +0.03    -0.126 NA 
DOCKED: ATOM     15  C   UNL     1     142.300  74.662 220.517 -0.26 -0.03    +0.100 A  
DOCKED: ATOM     16  N   UNL     1     140.983  76.370 220.332 -0.17 +0.03    -0.066 NA 
DOCKED: ATOM     17  N   UNL     1     142.199  75.925 220.057 -0.17 +0.12    -0.247 N  
DOCKED: ATOM     18  C   UNL     1     143.214  76.713 219.366 -0.27 -0.12    +0.176 C  
DOCKED: BRANCH  15  19
DOCKED: ATOM     19  C   UNL     1     143.454  73.760 220.316 -0.35 -0.00    +0.002 A  
DOCKED: ATOM     20  C   UNL     1     143.269  72.504 219.712 -0.21 -0.00    +0.013 A  
DOCKED: ATOM     21  C   UNL     1     144.744  74.149 220.714 -0.49 -0.00    +0.013 A  
DOCKED: ATOM     22  C   UNL     1     144.357  71.647 219.519 -0.25 +0.00    +0.040 A  
DOCKED: ATOM     23  C   UNL     1     145.830  73.291 220.516 -0.61 +0.00    +0.040 A  
DOCKED: ATOM     24  C   UNL     1     145.637  72.041 219.920 -0.28 +0.04    +0.123 A  
DOCKED: ATOM     25  F   UNL     1     146.693  71.210 219.731 -0.03 -0.24    -0.207 F  
DOCKED: ENDBRANCH  15  19
DOCKED: ENDBRANCH  12  13
DOCKED: ENDBRANCH   7   8
DOCKED: ENDBRANCH   1   7
DOCKED: TORSDOF 8
DOCKED: TER
DOCKED: ENDMDL
________________________________________________________________________________


    FINAL DOCKED STATE:
    ________________________


Run:   17 / 20
Time taken for this run:   0.045s

DOCKED: MODEL        17
DOCKED: USER    Run = 17
DOCKED: USER
DOCKED: USER    Estimated Free Energy of Binding    =  -5.61 kcal/mol  [=(1)+(2)+(3)-(4)]
DOCKED: USER
DOCKED: USER    (1) Final Intermolecular Energy     =  -8.00 kcal/mol
DOCKED: USER        vdW + Hbond + desolv Energy     =  -7.95 kcal/mol
DOCKED: USER        Electrostatic Energy            =  -0.05 kcal/mol
DOCKED: USER        Moving Ligand-Fixed Receptor    =  -8.00 kcal/mol
DOCKED: USER        Moving Ligand-Moving Receptor   =  +0.00 kcal/mol
DOCKED: USER    (2) Final Total Internal Energy     =  -1.91 kcal/mol
DOCKED: USER    (3) Torsional Free Energy           =  +2.39 kcal/mol
DOCKED: USER    (4) Unbound System's Energy         =  -1.91 kcal/mol
DOCKED: USER
DOCKED: USER
DOCKED: REMARK SMILES CCCCCCCn1nnc(-c2nnn(C)c2-c2ccc(F)cc2)n1
DOCKED: REMARK SMILES IDX 6 1 5 2 4 3 3 4 2 5 1 6 7 7 8 8 9 9 25 10 10 11 11 12 12 13
DOCKED: REMARK SMILES IDX 13 14 17 15 14 16 15 17 16 18 18 19 19 20 24 21 20 22 23 23
DOCKED: REMARK SMILES IDX 21 24 22 25
DOCKED: REMARK H PARENT
DOCKED: USER                              x       y       z     vdW  Elec       q    Type
DOCKED: USER                           _______ _______ _______ _____ _____    ______ ____
DOCKED: ROOT
DOCKED: ATOM      1  C   UNL     1     142.684  75.635 219.086 -0.28 -0.01    +0.026 C  
DOCKED: ENDROOT
DOCKED: BRANCH   1   2
DOCKED: ATOM      2  C   UNL     1     142.634  77.177 219.083 -0.34 -0.00    +0.002 C  
DOCKED: BRANCH   2   3
DOCKED: ATOM      3  C   UNL     1     141.366  77.720 218.396 -0.17 -0.00    +0.000 C  
DOCKED: BRANCH   3   4
DOCKED: ATOM      4  C   UNL     1     140.800  78.976 219.084 -0.16 +0.00    -0.000 C  
DOCKED: BRANCH   4   5
DOCKED: ATOM      5  C   UNL     1     141.812  79.743 219.952 -0.30 +0.00    -0.003 C  
DOCKED: ATOM      6  C   UNL     1     141.494  81.234 220.063 -0.29 -0.00    +0.004 C  
DOCKED: ENDBRANCH   4   5
DOCKED: ENDBRANCH   3   4
DOCKED: ENDBRANCH   2   3
DOCKED: ENDBRANCH   1   2
DOCKED: BRANCH   1   7
DOCKED: ATOM      7  C   UNL     1     142.633  75.030 220.498 -0.20 -0.07    +0.170 C  
DOCKED: BRANCH   7   8
DOCKED: ATOM      8  N   UNL     1     141.328  75.235 221.114 -0.24 +0.05    -0.164 N  
DOCKED: ATOM      9  N   UNL     1     140.683  74.314 221.809 -0.72 +0.00    -0.047 NA 
DOCKED: ATOM     10  N   UNL     1     140.704  76.399 221.167 -0.22 +0.04    -0.129 NA 
DOCKED: ATOM     11  N   UNL     1     139.598  74.858 222.335 -0.71 +0.01    -0.106 NA 
DOCKED: ATOM     12  C   UNL     1     139.627  76.146 221.934 -0.24 -0.05    +0.227 A  
DOCKED: BRANCH  12  13
DOCKED: ATOM     13  C   UNL     1     138.630  77.155 222.312 -0.23 -0.03    +0.162 A  
DOCKED: ATOM     14  N   UNL     1     137.299  76.984 222.177 -0.15 +0.02    -0.126 NA 
DOCKED: ATOM     15  C   UNL     1     138.850  78.396 222.885 -0.25 -0.02    +0.100 A  
DOCKED: ATOM     16  N   UNL     1     136.721  78.081 222.648 -0.16 +0.01    -0.066 NA 
DOCKED: ATOM     17  N   UNL     1     137.632  78.944 223.072 -0.14 +0.03    -0.247 N  
DOCKED: ATOM     18  C   UNL     1     137.313  80.253 223.630 -0.21 -0.02    +0.176 C  
DOCKED: BRANCH  15  19
DOCKED: ATOM     19  C   UNL     1     140.145  79.071 223.117 -0.43 -0.00    +0.002 A  
DOCKED: ATOM     20  C   UNL     1     140.199  80.470 223.233 -0.42 -0.00    +0.013 A  
DOCKED: ATOM     21  C   UNL     1     141.329  78.323 223.232 -0.52 -0.00    +0.013 A  
DOCKED: ATOM     22  C   UNL     1     141.421  81.113 223.453 -0.52 -0.01    +0.040 A  
DOCKED: ATOM     23  C   UNL     1     142.549  78.969 223.456 -0.35 -0.02    +0.040 A  
DOCKED: ATOM     24  C   UNL     1     142.596  80.363 223.565 -0.57 -0.03    +0.123 A  
DOCKED: ATOM     25  F   UNL     1     143.781  80.986 223.781 -0.13 +0.04    -0.207 F  
DOCKED: ENDBRANCH  15  19
DOCKED: ENDBRANCH  12  13
DOCKED: ENDBRANCH   7   8
DOCKED: ENDBRANCH   1   7
DOCKED: TORSDOF 8
DOCKED: TER
DOCKED: ENDMDL
________________________________________________________________________________


    FINAL DOCKED STATE:
    ________________________


Run:   18 / 20
Time taken for this run:   0.045s

DOCKED: MODEL        18
DOCKED: USER    Run = 18
DOCKED: USER
DOCKED: USER    Estimated Free Energy of Binding    =  -5.62 kcal/mol  [=(1)+(2)+(3)-(4)]
DOCKED: USER
DOCKED: USER    (1) Final Intermolecular Energy     =  -8.01 kcal/mol
DOCKED: USER        vdW + Hbond + desolv Energy     =  -8.01 kcal/mol
DOCKED: USER        Electrostatic Energy            =  +0.00 kcal/mol
DOCKED: USER        Moving Ligand-Fixed Receptor    =  -8.01 kcal/mol
DOCKED: USER        Moving Ligand-Moving Receptor   =  +0.00 kcal/mol
DOCKED: USER    (2) Final Total Internal Energy     =  -2.05 kcal/mol
DOCKED: USER    (3) Torsional Free Energy           =  +2.39 kcal/mol
DOCKED: USER    (4) Unbound System's Energy         =  -2.05 kcal/mol
DOCKED: USER
DOCKED: USER
DOCKED: REMARK SMILES CCCCCCCn1nnc(-c2nnn(C)c2-c2ccc(F)cc2)n1
DOCKED: REMARK SMILES IDX 6 1 5 2 4 3 3 4 2 5 1 6 7 7 8 8 9 9 25 10 10 11 11 12 12 13
DOCKED: REMARK SMILES IDX 13 14 17 15 14 16 15 17 16 18 18 19 19 20 24 21 20 22 23 23
DOCKED: REMARK SMILES IDX 21 24 22 25
DOCKED: REMARK H PARENT
DOCKED: USER                              x       y       z     vdW  Elec       q    Type
DOCKED: USER                           _______ _______ _______ _____ _____    ______ ____
DOCKED: ROOT
DOCKED: ATOM      1  C   UNL     1     138.877  80.891 223.583 -0.36 -0.00    +0.026 C  
DOCKED: ENDROOT
DOCKED: BRANCH   1   2
DOCKED: ATOM      2  C   UNL     1     139.649  80.961 222.248 -0.29 -0.00    +0.002 C  
DOCKED: BRANCH   2   3
DOCKED: ATOM      3  C   UNL     1     140.993  81.700 222.388 -0.41 -0.00    +0.000 C  
DOCKED: BRANCH   3   4
DOCKED: ATOM      4  C   UNL     1     141.798  81.257 223.624 -0.60 +0.00    -0.000 C  
DOCKED: BRANCH   4   5
DOCKED: ATOM      5  C   UNL     1     142.581  79.945 223.442 -0.66 +0.00    -0.003 C  
DOCKED: ATOM      6  C   UNL     1     141.792  78.714 223.887 -0.58 -0.00    +0.004 C  
DOCKED: ENDBRANCH   4   5
DOCKED: ENDBRANCH   3   4
DOCKED: ENDBRANCH   2   3
DOCKED: ENDBRANCH   1   2
DOCKED: BRANCH   1   7
DOCKED: ATOM      7  C   UNL     1     137.645  79.975 223.523 -0.21 -0.02    +0.170 C  
DOCKED: BRANCH   7   8
DOCKED: ATOM      8  N   UNL     1     137.935  78.748 222.790 -0.17 +0.03    -0.164 N  
DOCKED: ATOM      9  N   UNL     1     137.210  78.298 221.780 -0.11 +0.01    -0.047 NA 
DOCKED: ATOM     10  N   UNL     1     139.026  78.020 222.957 -0.22 +0.02    -0.129 NA 
DOCKED: ATOM     11  N   UNL     1     137.812  77.243 221.258 -0.09 +0.02    -0.106 NA 
DOCKED: ATOM     12  C   UNL     1     138.934  77.086 221.992 -0.19 -0.05    +0.227 A  
DOCKED: BRANCH  12  13
DOCKED: ATOM     13  C   UNL     1     139.946  76.050 221.751 -0.27 -0.04    +0.162 A  
DOCKED: ATOM     14  N   UNL     1     139.934  74.837 222.339 -0.71 +0.01    -0.126 NA 
DOCKED: ATOM     15  C   UNL     1     141.028  76.101 220.889 -0.25 -0.04    +0.100 A  
DOCKED: ATOM     16  N   UNL     1     140.972  74.166 221.858 -0.66 +0.00    -0.066 NA 
DOCKED: ATOM     17  N   UNL     1     141.646  74.907 220.993 -0.19 +0.07    -0.247 N  
DOCKED: ATOM     18  C   UNL     1     142.850  74.457 220.304 -0.24 -0.06    +0.176 C  
DOCKED: BRANCH  15  19
DOCKED: ATOM     19  C   UNL     1     141.517  77.262 220.116 -0.27 -0.00    +0.002 A  
DOCKED: ATOM     20  C   UNL     1     142.116  77.070 218.859 -0.26 -0.01    +0.013 A  
DOCKED: ATOM     21  C   UNL     1     141.381  78.566 220.623 -0.30 -0.01    +0.013 A  
DOCKED: ATOM     22  C   UNL     1     142.580  78.166 218.124 -0.31 -0.03    +0.040 A  
DOCKED: ATOM     23  C   UNL     1     141.843  79.659 219.883 -0.28 -0.02    +0.040 A  
DOCKED: ATOM     24  C   UNL     1     142.442  79.460 218.635 -0.24 -0.10    +0.123 A  
DOCKED: ATOM     25  F   UNL     1     142.890  80.522 217.921 -0.13 +0.22    -0.207 F  
DOCKED: ENDBRANCH  15  19
DOCKED: ENDBRANCH  12  13
DOCKED: ENDBRANCH   7   8
DOCKED: ENDBRANCH   1   7
DOCKED: TORSDOF 8
DOCKED: TER
DOCKED: ENDMDL
________________________________________________________________________________


    FINAL DOCKED STATE:
    ________________________


Run:   19 / 20
Time taken for this run:   0.045s

DOCKED: MODEL        19
DOCKED: USER    Run = 19
DOCKED: USER
DOCKED: USER    Estimated Free Energy of Binding    =  -6.59 kcal/mol  [=(1)+(2)+(3)-(4)]
DOCKED: USER
DOCKED: USER    (1) Final Intermolecular Energy     =  -8.97 kcal/mol
DOCKED: USER        vdW + Hbond + desolv Energy     =  -8.82 kcal/mol
DOCKED: USER        Electrostatic Energy            =  -0.15 kcal/mol
DOCKED: USER        Moving Ligand-Fixed Receptor    =  -8.97 kcal/mol
DOCKED: USER        Moving Ligand-Moving Receptor   =  +0.00 kcal/mol
DOCKED: USER    (2) Final Total Internal Energy     =  -1.22 kcal/mol
DOCKED: USER    (3) Torsional Free Energy           =  +2.39 kcal/mol
DOCKED: USER    (4) Unbound System's Energy         =  -1.22 kcal/mol
DOCKED: USER
DOCKED: USER
DOCKED: REMARK SMILES CCCCCCCn1nnc(-c2nnn(C)c2-c2ccc(F)cc2)n1
DOCKED: REMARK SMILES IDX 6 1 5 2 4 3 3 4 2 5 1 6 7 7 8 8 9 9 25 10 10 11 11 12 12 13
DOCKED: REMARK SMILES IDX 13 14 17 15 14 16 15 17 16 18 18 19 19 20 24 21 20 22 23 23
DOCKED: REMARK SMILES IDX 21 24 22 25
DOCKED: REMARK H PARENT
DOCKED: USER                              x       y       z     vdW  Elec       q    Type
DOCKED: USER                           _______ _______ _______ _____ _____    ______ ____
DOCKED: ROOT
DOCKED: ATOM      1  C   UNL     1     140.104  71.405 225.376 -0.45 -0.00    +0.026 C  
DOCKED: ENDROOT
DOCKED: BRANCH   1   2
DOCKED: ATOM      2  C   UNL     1     141.241  71.728 226.367 -0.67 -0.00    +0.002 C  
DOCKED: BRANCH   2   3
DOCKED: ATOM      3  C   UNL     1     140.795  71.584 227.835 -0.81 -0.00    +0.000 C  
DOCKED: BRANCH   3   4
DOCKED: ATOM      4  C   UNL     1     139.966  70.311 228.091 -0.64 +0.00    -0.000 C  
DOCKED: BRANCH   4   5
DOCKED: ATOM      5  C   UNL     1     140.767  68.999 228.015 -0.65 +0.00    -0.003 C  
DOCKED: ATOM      6  C   UNL     1     140.356  68.118 226.836 -0.68 -0.00    +0.004 C  
DOCKED: ENDBRANCH   4   5
DOCKED: ENDBRANCH   3   4
DOCKED: ENDBRANCH   2   3
DOCKED: ENDBRANCH   1   2
DOCKED: BRANCH   1   7
DOCKED: ATOM      7  C   UNL     1     140.607  71.083 223.960 -0.23 -0.02    +0.170 C  
DOCKED: BRANCH   7   8
DOCKED: ATOM      8  N   UNL     1     140.226  72.126 223.014 -0.28 +0.02    -0.164 N  
DOCKED: ATOM      9  N   UNL     1     138.978  72.395 222.670 -0.22 +0.01    -0.047 NA 
DOCKED: ATOM     10  N   UNL     1     141.066  73.008 222.500 -0.40 -0.01    -0.129 NA 
DOCKED: ATOM     11  N   UNL     1     138.970  73.472 221.903 -0.26 +0.03    -0.106 NA 
DOCKED: ATOM     12  C   UNL     1     140.264  73.842 221.811 -0.19 -0.02    +0.227 A  
DOCKED: BRANCH  12  13
DOCKED: ATOM     13  C   UNL     1     140.741  75.022 221.079 -0.23 -0.04    +0.162 A  
DOCKED: ATOM     14  N   UNL     1     140.020  76.151 220.923 -0.15 +0.03    -0.126 NA 
DOCKED: ATOM     15  C   UNL     1     141.971  75.209 220.474 -0.25 -0.04    +0.100 A  
DOCKED: ATOM     16  N   UNL     1     140.779  77.001 220.245 -0.15 +0.03    -0.066 NA 
DOCKED: ATOM     17  N   UNL     1     141.950  76.455 219.959 -0.16 +0.13    -0.247 N  
DOCKED: ATOM     18  C   UNL     1     143.000  77.133 219.205 -0.21 -0.13    +0.176 C  
DOCKED: BRANCH  15  19
DOCKED: ATOM     19  C   UNL     1     143.048  74.215 220.283 -0.33 -0.00    +0.002 A  
DOCKED: ATOM     20  C   UNL     1     142.734  72.904 219.885 -0.21 -0.00    +0.013 A  
DOCKED: ATOM     21  C   UNL     1     144.392  74.570 220.488 -0.44 -0.01    +0.013 A  
DOCKED: ATOM     22  C   UNL     1     143.750  71.960 219.704 -0.22 -0.00    +0.040 A  
DOCKED: ATOM     23  C   UNL     1     145.405  73.623 220.302 -0.55 -0.00    +0.040 A  
DOCKED: ATOM     24  C   UNL     1     145.085  72.320 219.911 -0.33 +0.01    +0.123 A  
DOCKED: ATOM     25  F   UNL     1     146.069  71.404 219.732 -0.09 -0.14    -0.207 F  
DOCKED: ENDBRANCH  15  19
DOCKED: ENDBRANCH  12  13
DOCKED: ENDBRANCH   7   8
DOCKED: ENDBRANCH   1   7
DOCKED: TORSDOF 8
DOCKED: TER
DOCKED: ENDMDL
________________________________________________________________________________


    FINAL DOCKED STATE:
    ________________________


Run:   20 / 20
Time taken for this run:   0.045s

DOCKED: MODEL        20
DOCKED: USER    Run = 20
DOCKED: USER
DOCKED: USER    Estimated Free Energy of Binding    =  -5.72 kcal/mol  [=(1)+(2)+(3)-(4)]
DOCKED: USER
DOCKED: USER    (1) Final Intermolecular Energy     =  -8.11 kcal/mol
DOCKED: USER        vdW + Hbond + desolv Energy     =  -8.06 kcal/mol
DOCKED: USER        Electrostatic Energy            =  -0.05 kcal/mol
DOCKED: USER        Moving Ligand-Fixed Receptor    =  -8.11 kcal/mol
DOCKED: USER        Moving Ligand-Moving Receptor   =  +0.00 kcal/mol
DOCKED: USER    (2) Final Total Internal Energy     =  -1.96 kcal/mol
DOCKED: USER    (3) Torsional Free Energy           =  +2.39 kcal/mol
DOCKED: USER    (4) Unbound System's Energy         =  -1.96 kcal/mol
DOCKED: USER
DOCKED: USER
DOCKED: REMARK SMILES CCCCCCCn1nnc(-c2nnn(C)c2-c2ccc(F)cc2)n1
DOCKED: REMARK SMILES IDX 6 1 5 2 4 3 3 4 2 5 1 6 7 7 8 8 9 9 25 10 10 11 11 12 12 13
DOCKED: REMARK SMILES IDX 13 14 17 15 14 16 15 17 16 18 18 19 19 20 24 21 20 22 23 23
DOCKED: REMARK SMILES IDX 21 24 22 25
DOCKED: REMARK H PARENT
DOCKED: USER                              x       y       z     vdW  Elec       q    Type
DOCKED: USER                           _______ _______ _______ _____ _____    ______ ____
DOCKED: ROOT
DOCKED: ATOM      1  C   UNL     1     143.011  74.978 219.394 -0.30 -0.01    +0.026 C  
DOCKED: ENDROOT
DOCKED: BRANCH   1   2
DOCKED: ATOM      2  C   UNL     1     143.304  76.489 219.271 -0.39 -0.00    +0.002 C  
DOCKED: BRANCH   2   3
DOCKED: ATOM      3  C   UNL     1     142.534  77.140 218.106 -0.29 -0.00    +0.000 C  
DOCKED: BRANCH   3   4
DOCKED: ATOM      4  C   UNL     1     141.511  78.192 218.574 -0.21 +0.00    -0.000 C  
DOCKED: BRANCH   4   5
DOCKED: ATOM      5  C   UNL     1     141.532  79.506 217.772 -0.21 +0.00    -0.003 C  
DOCKED: ATOM      6  C   UNL     1     142.598  80.486 218.261 -0.34 -0.00    +0.004 C  
DOCKED: ENDBRANCH   4   5
DOCKED: ENDBRANCH   3   4
DOCKED: ENDBRANCH   2   3
DOCKED: ENDBRANCH   1   2
DOCKED: BRANCH   1   7
DOCKED: ATOM      7  C   UNL     1     142.839  74.511 220.848 -0.13 -0.06    +0.170 C  
DOCKED: BRANCH   7   8
DOCKED: ATOM      8  N   UNL     1     141.493  74.787 221.335 -0.24 +0.04    -0.164 N  
DOCKED: ATOM      9  N   UNL     1     140.712  73.886 221.908 -0.77 +0.00    -0.047 NA 
DOCKED: ATOM     10  N   UNL     1     140.952  75.992 221.387 -0.28 +0.04    -0.129 NA 
DOCKED: ATOM     11  N   UNL     1     139.619  74.487 222.348 -0.77 +0.01    -0.106 NA 
DOCKED: ATOM     12  C   UNL     1     139.783  75.786 222.024 -0.25 -0.04    +0.227 A  
DOCKED: BRANCH  12  13
DOCKED: ATOM     13  C   UNL     1     138.826  76.851 222.351 -0.25 -0.03    +0.162 A  
DOCKED: ATOM     14  N   UNL     1     137.488  76.693 222.320 -0.19 +0.03    -0.126 NA 
DOCKED: ATOM     15  C   UNL     1     139.099  78.141 222.769 -0.26 -0.02    +0.100 A  
DOCKED: ATOM     16  N   UNL     1     136.956  77.846 222.704 -0.18 +0.01    -0.066 NA 
DOCKED: ATOM     17  N   UNL     1     137.903  78.730 222.972 -0.14 +0.04    -0.247 N  
DOCKED: ATOM     18  C   UNL     1     137.639  80.099 223.403 -0.22 -0.02    +0.176 C  
DOCKED: BRANCH  15  19
DOCKED: ATOM     19  C   UNL     1     140.415  78.811 222.844 -0.43 -0.00    +0.002 A  
DOCKED: ATOM     20  C   UNL     1     141.021  79.036 224.091 -0.45 -0.00    +0.013 A  
DOCKED: ATOM     21  C   UNL     1     141.076  79.219 221.673 -0.35 -0.00    +0.013 A  
DOCKED: ATOM     22  C   UNL     1     142.266  79.669 224.166 -0.43 -0.01    +0.040 A  
DOCKED: ATOM     23  C   UNL     1     142.322  79.848 221.752 -0.37 -0.02    +0.040 A  
DOCKED: ATOM     24  C   UNL     1     142.917  80.074 222.997 -0.55 -0.04    +0.123 A  
DOCKED: ATOM     25  F   UNL     1     144.125  80.685 223.071 -0.10 +0.05    -0.207 F  
DOCKED: ENDBRANCH  15  19
DOCKED: ENDBRANCH  12  13
DOCKED: ENDBRANCH   7   8
DOCKED: ENDBRANCH   1   7
DOCKED: TORSDOF 8
DOCKED: TER
DOCKED: ENDMDL
________________________________________________________________________________


    CLUSTERING HISTOGRAM
    ____________________


________________________________________________________________________________
     |           |     |           |     |
Clus | Lowest    | Run | Mean      | Num | Histogram
-ter | Binding   |     | Binding   | in  |
Rank | Energy    |     | Energy    | Clus|    5    10   15   20   25   30   35
_____|___________|_____|___________|_____|____:____|____:____|____:____|____:___
   1 |     -6.96 |   8 |     -6.82 |   3 |###
   2 |     -6.77 |  15 |     -6.56 |   4 |####
   3 |     -6.66 |   3 |     -6.66 |   1 |#
   4 |     -5.96 |   4 |     -5.73 |   9 |#########
   5 |     -5.86 |  12 |     -5.86 |   1 |#
   6 |     -5.75 |  13 |     -5.75 |   1 |#
   7 |     -5.62 |  18 |     -5.62 |   1 |#
_____|___________|_____|___________|_____|______________________________________


    RMSD TABLE
    __________


_______________________________________________________________________
     |      |      |           |         |                 |
Rank | Sub- | Run  | Binding   | Cluster | Reference       | Grep
     | Rank |      | Energy    | RMSD    | RMSD            | Pattern
_____|______|______|___________|_________|_________________|___________
   1      1      8       -6.96      0.00    271.79           RANKING
   1      2      9       -6.88      0.45    271.77           RANKING
   1      3      5       -6.63      0.50    271.66           RANKING
   2      1     15       -6.77      0.00    271.18           RANKING
   2      2     16       -6.75      1.00    271.09           RANKING
   2      3     19       -6.59      1.17    271.10           RANKING
   2      4      2       -6.15      1.44    270.68           RANKING
   3      1      3       -6.66      0.00    271.34           RANKING
   4      1      4       -5.96      0.00    271.29           RANKING
   4      2     11       -5.81      0.29    271.23           RANKING
   4      3      6       -5.76      0.37    271.22           RANKING
   4      4      7       -5.74      0.48    271.17           RANKING
   4      5     10       -5.73      0.76    271.38           RANKING
   4      6     20       -5.72      0.39    271.24           RANKING
   4      7      1       -5.67      0.34    271.24           RANKING
   4      8     17       -5.61      0.95    271.41           RANKING
   4      9     14       -5.60      0.47    271.21           RANKING
   5      1     12       -5.86      0.00    270.36           RANKING
   6      1     13       -5.75      0.00    271.00           RANKING
   7      1     18       -5.62      0.00    271.18           RANKING

Run time 0.891 sec
Idle time 0.000 sec
