REMARK SMILES O=C(NCC(=O)N1CCC[C@H]1c1ccc(Cl)cc1)c1ccc2ccccc2n1
REMARK SMILES IDX 5 1 6 2 4 3 3 4 2 5 1 6 19 8 20 9 28 10 21 11 27 12 22 13
REMARK SMILES IDX 26 14 23 15 25 16 24 17 7 18 8 19 11 20 9 21 10 22 12 23
REMARK SMILES IDX 13 24 18 25 14 26 17 27 15 28 16 29
REMARK H PARENT 3 7
ROOT
ATOM      1  C   UNL     1      -1.067   1.101   0.055  1.00  0.00     0.242 C 
ATOM      2  O   UNL     1      -0.156   1.850  -0.437  1.00  0.00    -0.273 OA
ENDROOT
BRANCH   1   3
ATOM      3  C   UNL     1      -0.737  -0.238   0.547  1.00  0.00     0.216 C 
BRANCH   3   4
ATOM      4  N   UNL     1       0.678  -0.521   0.386  1.00  0.00    -0.342 N 
ATOM      5  C   UNL     1       1.587   0.355   1.066  1.00  0.00     0.270 C 
ATOM      6  O   UNL     1       1.189   1.323   1.769  1.00  0.00    -0.268 OA
ATOM      7  H   UNL     1       1.049  -1.311  -0.186  1.00  0.00     0.164 HD
BRANCH   5   8
ATOM      8  C   UNL     1       3.018   0.094   0.922  1.00  0.00     0.128 A 
ATOM      9  C   UNL     1       3.935   0.907   1.556  1.00  0.00     0.035 A 
ATOM     10  N   UNL     1       3.488  -0.940   0.173  1.00  0.00    -0.243 NA
ATOM     11  C   UNL     1       5.301   0.720   1.464  1.00  0.00     0.013 A 
ATOM     12  C   UNL     1       4.828  -1.152   0.063  1.00  0.00     0.071 A 
ATOM     13  C   UNL     1       5.745  -0.334   0.699  1.00  0.00     0.000 A 
ATOM     14  C   UNL     1       5.329  -2.193  -0.691  1.00  0.00     0.029 A 
ATOM     15  C   UNL     1       7.112  -0.529   0.602  1.00  0.00     0.010 A 
ATOM     16  C   UNL     1       6.687  -2.434  -0.822  1.00  0.00     0.002 A 
ATOM     17  C   UNL     1       7.593  -1.593  -0.169  1.00  0.00     0.001 A 
ENDBRANCH   5   8
ENDBRANCH   3   4
ENDBRANCH   1   3
BRANCH   1  18
ATOM     18  N   UNL     1      -2.374   1.672   0.077  1.00  0.00    -0.334 N 
ATOM     19  C   UNL     1      -2.606   3.029  -0.438  1.00  0.00     0.120 C 
ATOM     20  C   UNL     1      -3.533   1.061   0.561  1.00  0.00     0.115 C 
ATOM     21  C   UNL     1      -4.014   3.332   0.039  1.00  0.00     0.024 C 
ATOM     22  C   UNL     1      -4.650   1.986   0.138  1.00  0.00     0.032 C 
BRANCH  20  23
ATOM     23  C   UNL     1      -3.882  -0.265   0.045  1.00  0.00    -0.025 A 
ATOM     24  C   UNL     1      -3.806  -0.471  -1.338  1.00  0.00     0.007 A 
ATOM     25  C   UNL     1      -4.285  -1.327   0.859  1.00  0.00     0.007 A 
ATOM     26  C   UNL     1      -4.123  -1.704  -1.896  1.00  0.00     0.021 A 
ATOM     27  C   UNL     1      -4.600  -2.554   0.298  1.00  0.00     0.021 A 
ATOM     28  C   UNL     1      -4.518  -2.737  -1.071  1.00  0.00     0.041 A 
ATOM     29  Cl  UNL     1      -4.938  -4.330  -1.689  1.00  0.00    -0.084 Cl
ENDBRANCH  20  23
ENDBRANCH   1  18
TORSDOF 5
