REMARK SMILES O=C(NCC(=O)N1CCCCC[C@H]1c1ccccc1)c1ccc2cc(Cl)ccc2n1
REMARK SMILES IDX 5 1 6 2 4 3 3 4 2 5 1 6 20 8 21 9 30 10 22 11 29 12 23 13
REMARK SMILES IDX 28 14 24 15 27 16 25 17 26 18 7 19 8 20 9 21 10 22 11 23
REMARK SMILES IDX 13 25 12 26 14 28 15 29 19 30 16 31 18 32 17 33
REMARK H PARENT 3 7
REMARK Flexibility Score:   84.900
ROOT
ATOM      1  C   UNL     1      -0.545  -0.153  -0.346  1.00  0.00     0.242 C 
ATOM      2  O   UNL     1      -0.034  -0.364   0.795  1.00  0.00    -0.273 OA
ENDROOT
BRANCH   1   3
ATOM      3  C   UNL     1       0.298  -0.119  -1.563  1.00  0.00     0.216 C 
BRANCH   3   4
ATOM      4  N   UNL     1       1.684  -0.354  -1.198  1.00  0.00    -0.342 N 
ATOM      5  C   UNL     1       2.306   0.559  -0.292  1.00  0.00     0.270 C 
ATOM      6  O   UNL     1       1.668   1.553   0.186  1.00  0.00    -0.268 OA
ATOM      7  H   UNL     1       2.205  -1.175  -1.595  1.00  0.00     0.164 HD
BRANCH   5   8
ATOM      8  C   UNL     1       3.701   0.347   0.094  1.00  0.00     0.128 A 
ATOM      9  C   UNL     1       4.314   1.214   0.963  1.00  0.00     0.035 A 
ATOM     10  N   UNL     1       4.436  -0.686  -0.375  1.00  0.00    -0.243 NA
ATOM     11  C   UNL     1       5.617   1.099   1.384  1.00  0.00     0.013 A 
ATOM     12  C   UNL     1       5.724  -0.845   0.008  1.00  0.00     0.071 A 
ATOM     13  C   UNL     1       6.338   0.022   0.878  1.00  0.00     0.002 A 
ATOM     14  C   UNL     1       6.465  -1.906  -0.479  1.00  0.00     0.030 A 
ATOM     15  C   UNL     1       7.646  -0.101   1.294  1.00  0.00     0.030 A 
ATOM     16  C   UNL     1       7.777  -2.047  -0.075  1.00  0.00     0.023 A 
ATOM     17  C   UNL     1       8.384  -1.161   0.806  1.00  0.00     0.041 A 
ATOM     18  Cl  UNL     1      10.046  -1.341   1.318  1.00  0.00    -0.084 Cl
ENDBRANCH   5   8
ENDBRANCH   3   4
ENDBRANCH   1   3
BRANCH   1  19
ATOM     19  N   UNL     1      -1.944   0.047  -0.414  1.00  0.00    -0.334 N 
BRANCH  19  20
ATOM     20  C   UNL     1      -2.503   0.289  -1.752  1.00  0.00     0.120 C 
BRANCH  20  21
ATOM     21  C   UNL     1      -2.794   1.797  -1.727  1.00  0.00     0.022 C 
BRANCH  21  22
ATOM     22  C   UNL     1      -4.057   1.930  -0.932  1.00  0.00     0.002 C 
BRANCH  22  23
ATOM     23  C   UNL     1      -3.873   2.238   0.506  1.00  0.00     0.003 CG0
ATOM     24  G   UNL     1      -3.106   1.311   1.341  1.00  0.00     0.000 G0
ENDBRANCH  22  23
ENDBRANCH  21  22
ENDBRANCH  20  21
ENDBRANCH  19  20
BRANCH  19  25
ATOM     25  C   UNL     1      -2.698   0.001   0.797  1.00  0.00     0.115 C 
BRANCH  25  26
ATOM     26  C   UNL     1      -3.106   1.311   1.341  1.00  0.00     0.030 CG0
ATOM     27  G   UNL     1      -3.873   2.238   0.506  1.00  0.00     0.000 G0
ENDBRANCH  25  26
BRANCH  25  28
ATOM     28  C   UNL     1      -3.785  -0.994   0.644  1.00  0.00    -0.025 A 
ATOM     29  C   UNL     1      -5.088  -0.770   1.039  1.00  0.00     0.006 A 
ATOM     30  C   UNL     1      -3.454  -2.204   0.071  1.00  0.00     0.006 A 
ATOM     31  C   UNL     1      -6.037  -1.750   0.859  1.00  0.00     0.000 A 
ATOM     32  C   UNL     1      -4.392  -3.193  -0.114  1.00  0.00     0.000 A 
ATOM     33  C   UNL     1      -5.705  -2.980   0.279  1.00  0.00     0.000 A 
ENDBRANCH  25  28
ENDBRANCH  19  25
ENDBRANCH   1  19
TORSDOF 5
