REMARK SMILES O=C(NCC(=O)N1CCCCC[C@@H]1c1ccccc1)c1ccc2cc(Cl)ccc2n1
REMARK SMILES IDX 5 1 6 2 4 3 3 4 2 5 1 6 20 8 21 9 30 10 22 11 29 12 23 13
REMARK SMILES IDX 28 14 24 15 27 16 25 17 26 18 7 19 8 20 9 21 10 22 11 23
REMARK SMILES IDX 13 25 12 26 14 28 15 29 19 30 16 31 18 32 17 33
REMARK H PARENT 3 7
REMARK Flexibility Score:   84.900
ROOT
ATOM      1  C   UNL     1      -0.633   0.425   0.324  1.00  0.00     0.242 C 
ATOM      2  O   UNL     1       0.043   0.674   1.361  1.00  0.00    -0.273 OA
ENDROOT
BRANCH   1   3
ATOM      3  C   UNL     1      -0.028  -0.105  -0.903  1.00  0.00     0.216 C 
BRANCH   3   4
ATOM      4  N   UNL     1       1.402  -0.295  -0.707  1.00  0.00    -0.342 N 
ATOM      5  C   UNL     1       2.160   0.859  -0.378  1.00  0.00     0.270 C 
ATOM      6  O   UNL     1       1.648   1.998  -0.256  1.00  0.00    -0.268 OA
ATOM      7  H   UNL     1       1.812  -1.249  -0.813  1.00  0.00     0.164 HD
BRANCH   5   8
ATOM      8  C   UNL     1       3.609   0.704  -0.173  1.00  0.00     0.128 A 
ATOM      9  C   UNL     1       4.403   1.777   0.147  1.00  0.00     0.035 A 
ATOM     10  N   UNL     1       4.218  -0.501  -0.292  1.00  0.00    -0.243 NA
ATOM     11  C   UNL     1       5.774   1.670   0.348  1.00  0.00     0.013 A 
ATOM     12  C   UNL     1       5.548  -0.654  -0.106  1.00  0.00     0.071 A 
ATOM     13  C   UNL     1       6.338   0.419   0.214  1.00  0.00     0.002 A 
ATOM     14  C   UNL     1       6.122  -1.900  -0.237  1.00  0.00     0.030 A 
ATOM     15  C   UNL     1       7.705   0.272   0.407  1.00  0.00     0.030 A 
ATOM     16  C   UNL     1       7.476  -2.049  -0.046  1.00  0.00     0.023 A 
ATOM     17  C   UNL     1       8.277  -0.974   0.276  1.00  0.00     0.041 A 
ATOM     18  Cl  UNL     1       9.991  -1.128   0.523  1.00  0.00    -0.084 Cl
ENDBRANCH   5   8
ENDBRANCH   3   4
ENDBRANCH   1   3
BRANCH   1  19
ATOM     19  N   UNL     1      -2.052   0.708   0.454  1.00  0.00    -0.334 N 
BRANCH  19  20
ATOM     20  C   UNL     1      -2.360   1.228   1.744  1.00  0.00     0.120 C 
BRANCH  20  21
ATOM     21  C   UNL     1      -3.639   1.835   2.034  1.00  0.00     0.022 C 
BRANCH  21  22
ATOM     22  C   UNL     1      -4.771   1.749   1.088  1.00  0.00     0.002 C 
BRANCH  22  23
ATOM     23  C   UNL     1      -4.500   2.213  -0.289  1.00  0.00     0.003 CG0
ATOM     24  G   UNL     1      -3.765   1.369  -1.220  1.00  0.00     0.000 G0
ENDBRANCH  22  23
ENDBRANCH  21  22
ENDBRANCH  20  21
ENDBRANCH  19  20
BRANCH  19  25
ATOM     25  C   UNL     1      -2.778   0.383  -0.744  1.00  0.00     0.115 C 
BRANCH  25  26
ATOM     26  C   UNL     1      -3.765   1.369  -1.220  1.00  0.00     0.030 CG0
ATOM     27  G   UNL     1      -4.500   2.213  -0.289  1.00  0.00     0.000 G0
ENDBRANCH  25  26
BRANCH  25  28
ATOM     28  C   UNL     1      -3.281  -1.023  -0.642  1.00  0.00    -0.025 A 
ATOM     29  C   UNL     1      -3.257  -1.889  -1.739  1.00  0.00     0.006 A 
ATOM     30  C   UNL     1      -3.787  -1.556   0.522  1.00  0.00     0.006 A 
ATOM     31  C   UNL     1      -3.706  -3.185  -1.669  1.00  0.00     0.000 A 
ATOM     32  C   UNL     1      -4.247  -2.865   0.613  1.00  0.00     0.000 A 
ATOM     33  C   UNL     1      -4.207  -3.689  -0.489  1.00  0.00     0.000 A 
ENDBRANCH  25  28
ENDBRANCH  19  25
ENDBRANCH   1  19
TORSDOF 5
