REMARK SMILES O=C(NCC(=O)N1CCC[C@H]1CO)c1ccc2cc(F)ccc2n1
REMARK SMILES IDX 5 1 6 2 4 3 3 4 2 5 1 6 14 8 15 9 24 10 16 11 23 12 17 13
REMARK SMILES IDX 22 14 18 15 21 16 19 17 20 18 7 19 8 20 11 21 9 22 10 23
REMARK SMILES IDX 12 24 13 25
REMARK H PARENT 3 7 13 26
ROOT
ATOM      1  C   UNL     1      -1.955  -0.487  -0.373  1.00  0.00     0.242 C 
ATOM      2  O   UNL     1      -1.484  -0.982  -1.443  1.00  0.00    -0.273 OA
ENDROOT
BRANCH   1   3
ATOM      3  C   UNL     1      -1.110   0.109   0.684  1.00  0.00     0.216 C 
BRANCH   3   4
ATOM      4  N   UNL     1       0.297   0.062   0.357  1.00  0.00    -0.342 N 
ATOM      5  C   UNL     1       1.205   0.617   1.321  1.00  0.00     0.270 C 
ATOM      6  O   UNL     1       0.675   1.092   2.361  1.00  0.00    -0.268 OA
ATOM      7  H   UNL     1       0.668  -0.354  -0.539  1.00  0.00     0.164 HD
BRANCH   5   8
ATOM      8  C   UNL     1       2.632   0.623   1.097  1.00  0.00     0.128 A 
ATOM      9  C   UNL     1       3.440   1.174   2.069  1.00  0.00     0.035 A 
ATOM     10  N   UNL     1       3.212   0.119  -0.011  1.00  0.00    -0.243 NA
ATOM     11  C   UNL     1       4.808   1.229   1.953  1.00  0.00     0.013 A 
ATOM     12  C   UNL     1       4.549   0.145  -0.179  1.00  0.00     0.071 A 
ATOM     13  C   UNL     1       5.354   0.695   0.792  1.00  0.00     0.003 A 
ATOM     14  C   UNL     1       5.102  -0.383  -1.331  1.00  0.00     0.032 A 
ATOM     15  C   UNL     1       6.716   0.745   0.666  1.00  0.00     0.049 A 
ATOM     16  C   UNL     1       6.475  -0.325  -1.442  1.00  0.00     0.041 A 
ATOM     17  C   UNL     1       7.290   0.225  -0.473  1.00  0.00     0.123 A 
ATOM     18  F   UNL     1       8.623   0.269  -0.604  1.00  0.00    -0.207 F 
ENDBRANCH   5   8
ENDBRANCH   3   4
ENDBRANCH   1   3
BRANCH   1  19
ATOM     19  N   UNL     1      -3.357  -0.500  -0.167  1.00  0.00    -0.336 N 
ATOM     20  C   UNL     1      -4.116  -0.000   0.962  1.00  0.00     0.120 C 
ATOM     21  C   UNL     1      -4.367  -1.042  -1.087  1.00  0.00     0.110 C 
ATOM     22  C   UNL     1      -5.096  -1.160   1.170  1.00  0.00     0.024 C 
ATOM     23  C   UNL     1      -5.578  -1.348  -0.253  1.00  0.00     0.029 C 
BRANCH  21  24
ATOM     24  C   UNL     1      -4.700  -0.053  -2.155  1.00  0.00     0.181 C 
BRANCH  24  25
ATOM     25  O   UNL     1      -5.207   1.121  -1.587  1.00  0.00    -0.394 OA
ATOM     26  H   UNL     1      -4.542   1.856  -1.626  1.00  0.00     0.210 HD
ENDBRANCH  24  25
ENDBRANCH  21  24
ENDBRANCH   1  19
TORSDOF 6
