REMARK SMILES O=C(NCC(=O)N1CCCC[C@H]1C1CCOCC1)c1ccc2ccccc2n1
REMARK SMILES IDX 4 1 3 2 2 3 1 4 19 6 20 7 28 8 21 9 27 10 22 11 26 12 23 13
REMARK SMILES IDX 25 14 24 15 5 16 6 17 7 18 8 19 12 20 9 21 11 22 10 23 13 24
REMARK SMILES IDX 14 25 18 26 15 27 17 28 16 29
REMARK H PARENT 3 5
ROOT
ATOM      1  C   UNL     1       0.475   1.343   1.166  1.00  0.00     0.216 C 
ENDROOT
BRANCH   1   2
ATOM      2  N   UNL     1       1.809   1.007   0.772  1.00  0.00    -0.342 N 
ATOM      3  C   UNL     1       2.175   0.709  -0.550  1.00  0.00     0.270 C 
ATOM      4  O   UNL     1       1.292   0.731  -1.472  1.00  0.00    -0.268 OA
ATOM      5  H   UNL     1       2.583   0.973   1.498  1.00  0.00     0.164 HD
BRANCH   3   6
ATOM      6  C   UNL     1       3.578   0.371  -0.872  1.00  0.00     0.128 A 
ATOM      7  C   UNL     1       3.923   0.079  -2.181  1.00  0.00     0.035 A 
ATOM      8  N   UNL     1       4.495   0.352   0.111  1.00  0.00    -0.243 NA
ATOM      9  C   UNL     1       5.254  -0.234  -2.447  1.00  0.00     0.013 A 
ATOM     10  C   UNL     1       5.774   0.045  -0.173  1.00  0.00     0.071 A 
ATOM     11  C   UNL     1       6.189  -0.256  -1.456  1.00  0.00     0.000 A 
ATOM     12  C   UNL     1       6.686   0.040   0.883  1.00  0.00     0.029 A 
ATOM     13  C   UNL     1       7.524  -0.557  -1.645  1.00  0.00     0.010 A 
ATOM     14  C   UNL     1       8.026  -0.265   0.679  1.00  0.00     0.002 A 
ATOM     15  C   UNL     1       8.435  -0.563  -0.590  1.00  0.00     0.001 A 
ENDBRANCH   3   6
ENDBRANCH   1   2
BRANCH   1  16
ATOM     16  C   UNL     1      -0.447   0.227   0.844  1.00  0.00     0.242 C 
ATOM     17  O   UNL     1       0.073  -0.792   0.299  1.00  0.00    -0.273 OA
BRANCH  16  18
ATOM     18  N   UNL     1      -1.841   0.311   1.137  1.00  0.00    -0.338 N 
ATOM     19  C   UNL     1      -2.346   1.518   1.763  1.00  0.00     0.120 C 
ATOM     20  C   UNL     1      -2.722  -0.777   0.820  1.00  0.00     0.088 C 
ATOM     21  C   UNL     1      -3.181   1.023   2.953  1.00  0.00     0.022 C 
ATOM     22  C   UNL     1      -3.984  -0.824   1.597  1.00  0.00     0.025 C 
ATOM     23  C   UNL     1      -4.420   0.475   2.234  1.00  0.00     0.004 C 
BRANCH  20  24
ATOM     24  C   UNL     1      -2.846  -0.904  -0.679  1.00  0.00     0.016 C 
ATOM     25  C   UNL     1      -3.750  -2.017  -1.110  1.00  0.00     0.034 C 
ATOM     26  C   UNL     1      -3.147   0.362  -1.408  1.00  0.00     0.034 C 
ATOM     27  C   UNL     1      -4.985  -1.565  -1.849  1.00  0.00     0.160 C 
ATOM     28  C   UNL     1      -4.586   0.711  -1.566  1.00  0.00     0.160 C 
ATOM     29  O   UNL     1      -5.452  -0.339  -1.486  1.00  0.00    -0.381 OA
ENDBRANCH  20  24
ENDBRANCH  16  18
ENDBRANCH   1  16
TORSDOF 5
