REMARK SMILES O=C(NCC(=O)N1CCCC[C@@H]1C1CCOCC1)c1ccc2ccccc2n1
REMARK SMILES IDX 4 1 3 2 2 3 1 4 19 6 20 7 28 8 21 9 27 10 22 11 26 12 23 13
REMARK SMILES IDX 25 14 24 15 5 16 6 17 7 18 8 19 12 20 9 21 11 22 10 23 13 24
REMARK SMILES IDX 14 25 18 26 15 27 17 28 16 29
REMARK H PARENT 3 5
ROOT
ATOM      1  C   UNL     1       0.385  -0.969   0.972  1.00  0.00     0.216 C 
ENDROOT
BRANCH   1   2
ATOM      2  N   UNL     1       1.660  -0.465   0.436  1.00  0.00    -0.342 N 
ATOM      3  C   UNL     1       2.840  -0.885   1.130  1.00  0.00     0.270 C 
ATOM      4  O   UNL     1       2.661  -1.638   2.122  1.00  0.00    -0.268 OA
ATOM      5  H   UNL     1       1.684   0.159  -0.400  1.00  0.00     0.164 HD
BRANCH   3   6
ATOM      6  C   UNL     1       4.139  -0.454   0.694  1.00  0.00     0.128 A 
ATOM      7  C   UNL     1       5.266  -0.871   1.378  1.00  0.00     0.035 A 
ATOM      8  N   UNL     1       4.300   0.363  -0.387  1.00  0.00    -0.243 NA
ATOM      9  C   UNL     1       6.547  -0.484   0.999  1.00  0.00     0.013 A 
ATOM     10  C   UNL     1       5.537   0.749  -0.770  1.00  0.00     0.071 A 
ATOM     11  C   UNL     1       6.673   0.342  -0.098  1.00  0.00     0.000 A 
ATOM     12  C   UNL     1       5.690   1.578  -1.867  1.00  0.00     0.029 A 
ATOM     13  C   UNL     1       7.934   0.725  -0.474  1.00  0.00     0.010 A 
ATOM     14  C   UNL     1       6.957   1.970  -2.254  1.00  0.00     0.002 A 
ATOM     15  C   UNL     1       8.093   1.562  -1.581  1.00  0.00     0.001 A 
ENDBRANCH   3   6
ENDBRANCH   1   2
BRANCH   1  16
ATOM     16  C   UNL     1      -0.753  -0.452   0.152  1.00  0.00     0.242 C 
ATOM     17  O   UNL     1      -0.438   0.286  -0.813  1.00  0.00    -0.273 OA
BRANCH  16  18
ATOM     18  N   UNL     1      -2.066  -0.820   0.511  1.00  0.00    -0.338 N 
ATOM     19  C   UNL     1      -2.293  -1.710   1.677  1.00  0.00     0.120 C 
ATOM     20  C   UNL     1      -3.275  -0.419  -0.168  1.00  0.00     0.088 C 
ATOM     21  C   UNL     1      -3.345  -2.728   1.368  1.00  0.00     0.022 C 
ATOM     22  C   UNL     1      -3.671  -1.662  -0.928  1.00  0.00     0.025 C 
ATOM     23  C   UNL     1      -3.879  -2.795  -0.002  1.00  0.00     0.004 C 
BRANCH  20  24
ATOM     24  C   UNL     1      -3.246   0.839  -0.923  1.00  0.00     0.016 C 
ATOM     25  C   UNL     1      -2.947   1.973   0.028  1.00  0.00     0.034 C 
ATOM     26  C   UNL     1      -4.539   1.165  -1.635  1.00  0.00     0.034 C 
ATOM     27  C   UNL     1      -4.172   2.426   0.809  1.00  0.00     0.160 C 
ATOM     28  C   UNL     1      -5.598   1.747  -0.752  1.00  0.00     0.160 C 
ATOM     29  O   UNL     1      -5.093   2.907  -0.119  1.00  0.00    -0.381 OA
ENDBRANCH  20  24
ENDBRANCH  16  18
ENDBRANCH   1  16
TORSDOF 5
