REMARK SMILES O=C(NCC(=O)N1C[C@H](O)C[C@H]1Cc1ccccc1)c1ccc2ccccc2n1
REMARK SMILES IDX 5 1 6 2 4 3 3 4 2 5 1 6 20 8 21 9 29 10 22 11 28 12 23 13
REMARK SMILES IDX 27 14 24 15 26 16 25 17 7 18 8 19 12 20 9 21 11 22 13 23
REMARK SMILES IDX 14 24 15 25 19 26 16 27 18 28 17 29 10 30
REMARK H PARENT 3 7 10 31
ROOT
ATOM      1  C   UNL     1      -0.723   1.847  -2.134  1.00  0.00     0.242 C 
ATOM      2  O   UNL     1      -1.671   2.546  -2.674  1.00  0.00    -0.273 OA
ENDROOT
BRANCH   1   3
ATOM      3  C   UNL     1       0.614   2.375  -2.336  1.00  0.00     0.216 C 
BRANCH   3   4
ATOM      4  N   UNL     1       1.718   1.723  -1.703  1.00  0.00    -0.342 N 
ATOM      5  C   UNL     1       1.876   1.660  -0.268  1.00  0.00     0.270 C 
ATOM      6  O   UNL     1       1.015   2.209   0.501  1.00  0.00    -0.268 OA
ATOM      7  H   UNL     1       2.490   1.242  -2.255  1.00  0.00     0.164 HD
BRANCH   5   8
ATOM      8  C   UNL     1       3.041   0.957   0.298  1.00  0.00     0.128 A 
ATOM      9  C   UNL     1       3.171   0.911   1.670  1.00  0.00     0.035 A 
ATOM     10  N   UNL     1       3.955   0.375  -0.501  1.00  0.00    -0.243 NA
ATOM     11  C   UNL     1       4.240   0.268   2.286  1.00  0.00     0.013 A 
ATOM     12  C   UNL     1       4.992  -0.249   0.082  1.00  0.00     0.071 A 
ATOM     13  C   UNL     1       5.167  -0.323   1.447  1.00  0.00     0.000 A 
ATOM     14  C   UNL     1       5.913  -0.838  -0.791  1.00  0.00     0.029 A 
ATOM     15  C   UNL     1       6.281  -0.997   1.948  1.00  0.00     0.010 A 
ATOM     16  C   UNL     1       7.020  -1.507  -0.305  1.00  0.00     0.002 A 
ATOM     17  C   UNL     1       7.182  -1.573   1.061  1.00  0.00     0.001 A 
ENDBRANCH   5   8
ENDBRANCH   3   4
ENDBRANCH   1   3
BRANCH   1  18
ATOM     18  N   UNL     1      -1.135   0.691  -1.446  1.00  0.00    -0.335 N 
ATOM     19  C   UNL     1      -0.455  -0.367  -0.767  1.00  0.00     0.151 C 
ATOM     20  C   UNL     1      -2.572   0.333  -1.281  1.00  0.00     0.092 C 
ATOM     21  C   UNL     1      -1.304  -1.592  -0.944  1.00  0.00     0.136 C 
ATOM     22  C   UNL     1      -2.549  -1.137  -1.636  1.00  0.00     0.059 C 
BRANCH  20  23
ATOM     23  C   UNL     1      -2.937   0.476   0.160  1.00  0.00     0.060 C 
BRANCH  23  24
ATOM     24  C   UNL     1      -4.329   0.158   0.495  1.00  0.00    -0.046 A 
ATOM     25  C   UNL     1      -4.784  -1.083   0.886  1.00  0.00     0.004 A 
ATOM     26  C   UNL     1      -5.274   1.167   0.415  1.00  0.00     0.004 A 
ATOM     27  C   UNL     1      -6.111  -1.336   1.188  1.00  0.00     0.000 A 
ATOM     28  C   UNL     1      -6.598   0.965   0.704  1.00  0.00     0.000 A 
ATOM     29  C   UNL     1      -6.997  -0.286   1.087  1.00  0.00     0.000 A 
ENDBRANCH  23  24
ENDBRANCH  20  23
BRANCH  21  30
ATOM     30  O   UNL     1      -0.636  -2.589  -1.668  1.00  0.00    -0.391 OA
ATOM     31  H   UNL     1      -0.601  -3.410  -1.103  1.00  0.00     0.211 HD
ENDBRANCH  21  30
ENDBRANCH   1  18
TORSDOF 7
