REMARK SMILES O=C(NCC(=O)N1CCC[C@H]1c1ncccn1)c1ccc2cc(Cl)ccc2n1
REMARK SMILES IDX 4 1 3 2 2 3 1 4 18 6 19 7 28 8 20 9 27 10 21 11 26 12 22 13
REMARK SMILES IDX 25 14 23 15 24 16 5 17 6 18 7 19 8 20 11 21 9 22 10 23 12 24
REMARK SMILES IDX 13 25 17 26 14 27 16 28 15 29
REMARK H PARENT 3 5
ROOT
ATOM      1  C   UNL     1      -0.715   0.820  -2.637  1.00  0.00     0.216 C 
ENDROOT
BRANCH   1   2
ATOM      2  N   UNL     1       0.535   0.772  -1.970  1.00  0.00    -0.342 N 
ATOM      3  C   UNL     1       1.253  -0.463  -1.784  1.00  0.00     0.270 C 
ATOM      4  O   UNL     1       0.794  -1.564  -2.223  1.00  0.00    -0.268 OA
ATOM      5  H   UNL     1       0.989   1.645  -1.582  1.00  0.00     0.164 HD
BRANCH   3   6
ATOM      6  C   UNL     1       2.544  -0.420  -1.065  1.00  0.00     0.128 A 
ATOM      7  C   UNL     1       3.230  -1.603  -0.888  1.00  0.00     0.035 A 
ATOM      8  N   UNL     1       3.068   0.703  -0.586  1.00  0.00    -0.243 NA
ATOM      9  C   UNL     1       4.426  -1.640  -0.236  1.00  0.00     0.013 A 
ATOM     10  C   UNL     1       4.243   0.692   0.058  1.00  0.00     0.071 A 
ATOM     11  C   UNL     1       4.946  -0.462   0.250  1.00  0.00     0.002 A 
ATOM     12  C   UNL     1       4.800   1.862   0.563  1.00  0.00     0.030 A 
ATOM     13  C   UNL     1       6.159  -0.531   0.906  1.00  0.00     0.030 A 
ATOM     14  C   UNL     1       6.025   1.798   1.227  1.00  0.00     0.023 A 
ATOM     15  C   UNL     1       6.715   0.630   1.409  1.00  0.00     0.041 A 
ATOM     16  Cl  UNL     1       8.257   0.548   2.244  1.00  0.00    -0.084 Cl
ENDBRANCH   3   6
ENDBRANCH   1   2
BRANCH   1  17
ATOM     17  C   UNL     1      -1.869   0.159  -2.050  1.00  0.00     0.242 C 
ATOM     18  O   UNL     1      -2.938   0.192  -2.795  1.00  0.00    -0.273 OA
BRANCH  17  19
ATOM     19  N   UNL     1      -1.980  -0.498  -0.800  1.00  0.00    -0.331 N 
ATOM     20  C   UNL     1      -1.019  -0.672   0.272  1.00  0.00     0.120 C 
ATOM     21  C   UNL     1      -3.234  -1.154  -0.398  1.00  0.00     0.153 C 
ATOM     22  C   UNL     1      -1.921  -0.889   1.501  1.00  0.00     0.024 C 
ATOM     23  C   UNL     1      -2.889  -1.902   0.864  1.00  0.00     0.035 C 
BRANCH  21  24
ATOM     24  C   UNL     1      -4.275  -0.155  -0.018  1.00  0.00     0.150 A 
ATOM     25  N   UNL     1      -5.025  -0.323   1.086  1.00  0.00    -0.239 NA
ATOM     26  N   UNL     1      -4.494   0.940  -0.762  1.00  0.00    -0.239 NA
ATOM     27  C   UNL     1      -5.974   0.533   1.484  1.00  0.00     0.115 A 
ATOM     28  C   UNL     1      -5.435   1.826  -0.401  1.00  0.00     0.115 A 
ATOM     29  C   UNL     1      -6.215   1.673   0.725  1.00  0.00     0.040 A 
ENDBRANCH  21  24
ENDBRANCH  17  19
ENDBRANCH   1  17
TORSDOF 5
