REMARK SMILES O=C(NCC(=O)N1CCCCC[C@@H]1c1ccc(Cl)cc1)c1ccc2cc(F)ccc2n1
REMARK SMILES IDX 5 1 6 2 4 3 3 4 2 5 1 6 21 8 22 9 31 10 23 11 30 12 24 13
REMARK SMILES IDX 29 14 25 15 28 16 26 17 27 18 7 19 8 20 9 21 10 22 11 23
REMARK SMILES IDX 13 25 12 26 14 28 15 29 20 30 16 31 19 32 17 33 18 34
REMARK H PARENT 3 7
REMARK Flexibility Score:   84.900
ROOT
ATOM      1  C   UNL     1      -1.268  -0.082   0.585  1.00  0.00     0.242 C 
ATOM      2  O   UNL     1      -1.125  -0.127  -0.678  1.00  0.00    -0.273 OA
ENDROOT
BRANCH   1   3
ATOM      3  C   UNL     1      -0.089   0.083   1.473  1.00  0.00     0.216 C 
BRANCH   3   4
ATOM      4  N   UNL     1       1.144   0.176   0.716  1.00  0.00    -0.342 N 
ATOM      5  C   UNL     1       2.351   0.338   1.472  1.00  0.00     0.270 C 
ATOM      6  O   UNL     1       2.215   0.383   2.725  1.00  0.00    -0.268 OA
ATOM      7  H   UNL     1       1.167   0.128  -0.329  1.00  0.00     0.164 HD
BRANCH   5   8
ATOM      8  C   UNL     1       3.655   0.443   0.814  1.00  0.00     0.128 A 
ATOM      9  C   UNL     1       4.759   0.596   1.613  1.00  0.00     0.035 A 
ATOM     10  N   UNL     1       3.757   0.390  -0.517  1.00  0.00    -0.243 NA
ATOM     11  C   UNL     1       6.008   0.698   1.027  1.00  0.00     0.013 A 
ATOM     12  C   UNL     1       4.973   0.489  -1.092  1.00  0.00     0.071 A 
ATOM     13  C   UNL     1       6.128   0.646  -0.344  1.00  0.00     0.003 A 
ATOM     14  C   UNL     1       5.061   0.433  -2.472  1.00  0.00     0.032 A 
ATOM     15  C   UNL     1       7.366   0.746  -0.943  1.00  0.00     0.049 A 
ATOM     16  C   UNL     1       6.292   0.531  -3.102  1.00  0.00     0.041 A 
ATOM     17  C   UNL     1       7.437   0.688  -2.330  1.00  0.00     0.123 A 
ATOM     18  F   UNL     1       8.660   0.789  -2.884  1.00  0.00    -0.207 F 
ENDBRANCH   5   8
ENDBRANCH   3   4
ENDBRANCH   1   3
BRANCH   1  19
ATOM     19  N   UNL     1      -2.540  -0.185   1.214  1.00  0.00    -0.334 N 
BRANCH  19  20
ATOM     20  C   UNL     1      -2.609  -0.123   2.662  1.00  0.00     0.120 C 
BRANCH  20  21
ATOM     21  C   UNL     1      -2.899  -1.528   3.204  1.00  0.00     0.022 C 
BRANCH  21  22
ATOM     22  C   UNL     1      -4.037  -2.182   2.416  1.00  0.00     0.002 C 
BRANCH  22  23
ATOM     23  C   UNL     1      -3.610  -2.713   1.096  1.00  0.00     0.003 CG0
ATOM     24  G   UNL     1      -3.860  -1.796  -0.063  1.00  0.00     0.000 G0
ENDBRANCH  22  23
ENDBRANCH  21  22
ENDBRANCH  20  21
ENDBRANCH  19  20
BRANCH  19  25
ATOM     25  C   UNL     1      -3.631  -0.343   0.276  1.00  0.00     0.115 C 
BRANCH  25  26
ATOM     26  C   UNL     1      -3.860  -1.796  -0.063  1.00  0.00     0.030 CG0
ATOM     27  G   UNL     1      -3.610  -2.713   1.096  1.00  0.00     0.000 G0
ENDBRANCH  25  26
BRANCH  25  28
ATOM     28  C   UNL     1      -3.497   0.460  -0.944  1.00  0.00    -0.025 A 
ATOM     29  C   UNL     1      -3.105   1.796  -0.797  1.00  0.00     0.007 A 
ATOM     30  C   UNL     1      -3.728  -0.004  -2.220  1.00  0.00     0.007 A 
ATOM     31  C   UNL     1      -2.964   2.595  -1.918  1.00  0.00     0.021 A 
ATOM     32  C   UNL     1      -3.585   0.806  -3.345  1.00  0.00     0.021 A 
ATOM     33  C   UNL     1      -3.195   2.131  -3.192  1.00  0.00     0.041 A 
ATOM     34  Cl  UNL     1      -2.995   3.208  -4.554  1.00  0.00    -0.084 Cl
ENDBRANCH  25  28
ENDBRANCH  19  25
ENDBRANCH   1  19
TORSDOF 5
