REMARK SMILES O=C(NCC(=O)N1CCCCC[C@H]1c1ccc(Cl)cc1)c1ccc2cc(F)ccc2n1
REMARK SMILES IDX 5 1 6 2 4 3 3 4 2 5 1 6 21 8 22 9 31 10 23 11 30 12 24 13
REMARK SMILES IDX 29 14 25 15 28 16 26 17 27 18 7 19 8 20 9 21 10 22 11 23
REMARK SMILES IDX 13 25 12 26 14 28 15 29 20 30 16 31 19 32 17 33 18 34
REMARK H PARENT 3 7
REMARK Flexibility Score:   84.900
ROOT
ATOM      1  C   UNL     1      -1.774  -0.705  -0.124  1.00  0.00     0.242 C 
ATOM      2  O   UNL     1      -2.991  -1.243   0.018  1.00  0.00    -0.273 OA
ENDROOT
BRANCH   1   3
ATOM      3  C   UNL     1      -0.824  -1.692  -0.570  1.00  0.00     0.216 C 
BRANCH   3   4
ATOM      4  N   UNL     1       0.550  -1.480  -0.716  1.00  0.00    -0.342 N 
ATOM      5  C   UNL     1       1.502  -1.201   0.302  1.00  0.00     0.270 C 
ATOM      6  O   UNL     1       1.061  -1.134   1.484  1.00  0.00    -0.268 OA
ATOM      7  H   UNL     1       0.967  -1.526  -1.700  1.00  0.00     0.164 HD
BRANCH   5   8
ATOM      8  C   UNL     1       2.918  -1.003  -0.019  1.00  0.00     0.128 A 
ATOM      9  C   UNL     1       3.773  -0.743   1.031  1.00  0.00     0.035 A 
ATOM     10  N   UNL     1       3.355  -1.079  -1.308  1.00  0.00    -0.243 NA
ATOM     11  C   UNL     1       5.116  -0.545   0.836  1.00  0.00     0.013 A 
ATOM     12  C   UNL     1       4.670  -0.885  -1.503  1.00  0.00     0.071 A 
ATOM     13  C   UNL     1       5.563  -0.622  -0.485  1.00  0.00     0.003 A 
ATOM     14  C   UNL     1       5.140  -0.957  -2.799  1.00  0.00     0.032 A 
ATOM     15  C   UNL     1       6.904  -0.432  -0.743  1.00  0.00     0.049 A 
ATOM     16  C   UNL     1       6.492  -0.769  -3.091  1.00  0.00     0.041 A 
ATOM     17  C   UNL     1       7.369  -0.506  -2.051  1.00  0.00     0.123 A 
ATOM     18  F   UNL     1       8.690  -0.323  -2.337  1.00  0.00    -0.207 F 
ENDBRANCH   5   8
ENDBRANCH   3   4
ENDBRANCH   1   3
BRANCH   1  19
ATOM     19  N   UNL     1      -1.745   0.644   0.185  1.00  0.00    -0.334 N 
BRANCH  19  20
ATOM     20  C   UNL     1      -0.617   1.521   0.048  1.00  0.00     0.120 C 
BRANCH  20  21
ATOM     21  C   UNL     1      -0.814   2.467  -1.142  1.00  0.00     0.022 C 
BRANCH  21  22
ATOM     22  C   UNL     1      -2.259   2.892  -1.289  1.00  0.00     0.002 C 
BRANCH  22  23
ATOM     23  C   UNL     1      -3.147   1.747  -1.668  1.00  0.00     0.003 CG0
ATOM     24  G   UNL     1      -3.961   1.257  -0.480  1.00  0.00     0.000 G0
ENDBRANCH  22  23
ENDBRANCH  21  22
ENDBRANCH  20  21
ENDBRANCH  19  20
BRANCH  19  25
ATOM     25  C   UNL     1      -3.052   1.137   0.709  1.00  0.00     0.115 C 
BRANCH  25  26
ATOM     26  C   UNL     1      -3.961   1.257  -0.480  1.00  0.00     0.030 CG0
ATOM     27  G   UNL     1      -3.147   1.747  -1.668  1.00  0.00     0.000 G0
ENDBRANCH  25  26
BRANCH  25  28
ATOM     28  C   UNL     1      -3.570   0.173   1.718  1.00  0.00    -0.025 A 
ATOM     29  C   UNL     1      -4.884  -0.246   1.755  1.00  0.00     0.007 A 
ATOM     30  C   UNL     1      -2.637  -0.298   2.650  1.00  0.00     0.007 A 
ATOM     31  C   UNL     1      -5.268  -1.153   2.742  1.00  0.00     0.021 A 
ATOM     32  C   UNL     1      -3.082  -1.201   3.609  1.00  0.00     0.021 A 
ATOM     33  C   UNL     1      -4.385  -1.633   3.666  1.00  0.00     0.041 A 
ATOM     34  Cl  UNL     1      -4.894  -2.775   4.899  1.00  0.00    -0.084 Cl
ENDBRANCH  25  28
ENDBRANCH  19  25
ENDBRANCH   1  19
TORSDOF 5
