REMARK SMILES COc1ccccc1[C@H]1CCCN1C(=O)CNC(=O)c1ccc2cc(F)ccc2n1
REMARK SMILES IDX 14 1 15 2 13 3 9 4 10 5 11 6 12 7 8 8 3 9 4 10 5 11 7 12
REMARK SMILES IDX 6 13 2 14 1 15 16 16 17 17 18 18 19 20 20 21 21 22 30 23
REMARK SMILES IDX 22 24 29 25 23 26 28 27 24 28 27 29 25 30 26 31
REMARK H PARENT 17 19
ROOT
ATOM      1  C   UNL     1      -0.490  -1.106   0.546  1.00  0.00     0.242 C 
ATOM      2  O   UNL     1      -0.319   0.140   0.574  1.00  0.00    -0.273 OA
ENDROOT
BRANCH   1   3
ATOM      3  N   UNL     1      -1.714  -1.741   0.900  1.00  0.00    -0.334 N 
ATOM      4  C   UNL     1      -2.883  -1.042   1.327  1.00  0.00     0.119 C 
ATOM      5  C   UNL     1      -3.825  -2.120   1.815  1.00  0.00     0.032 C 
ATOM      6  C   UNL     1      -2.971  -3.330   2.079  1.00  0.00     0.024 C 
ATOM      7  C   UNL     1      -2.002  -3.181   0.895  1.00  0.00     0.120 C 
BRANCH   4   8
ATOM      8  C   UNL     1      -3.585  -0.264   0.270  1.00  0.00     0.017 A 
ATOM      9  C   UNL     1      -4.327   0.854   0.653  1.00  0.00     0.124 A 
ATOM     10  C   UNL     1      -4.981   1.578  -0.331  1.00  0.00     0.047 A 
ATOM     11  C   UNL     1      -4.908   1.212  -1.664  1.00  0.00     0.004 A 
ATOM     12  C   UNL     1      -3.488  -0.661  -1.050  1.00  0.00     0.010 A 
ATOM     13  C   UNL     1      -4.162   0.099  -1.998  1.00  0.00     0.001 A 
BRANCH   9  14
ATOM     14  O   UNL     1      -4.368   1.177   1.992  1.00  0.00    -0.496 OA
ATOM     15  C   UNL     1      -5.117   2.308   2.396  1.00  0.00     0.278 C 
ENDBRANCH   9  14
ENDBRANCH   4   8
ENDBRANCH   1   3
BRANCH   1  16
ATOM     16  C   UNL     1       0.697  -1.923   0.107  1.00  0.00     0.216 C 
BRANCH  16  17
ATOM     17  N   UNL     1       1.818  -1.068  -0.197  1.00  0.00    -0.342 N 
ATOM     18  C   UNL     1       3.084  -1.546  -0.638  1.00  0.00     0.270 C 
ATOM     19  H   UNL     1       1.689  -0.018  -0.085  1.00  0.00     0.164 HD
ATOM     20  O   UNL     1       3.261  -2.788  -0.779  1.00  0.00    -0.268 OA
BRANCH  18  21
ATOM     21  C   UNL     1       4.133  -0.563  -0.910  1.00  0.00     0.128 A 
ATOM     22  C   UNL     1       5.384  -0.963  -1.339  1.00  0.00     0.035 A 
ATOM     23  N   UNL     1       3.910   0.771  -0.749  1.00  0.00    -0.243 NA
ATOM     24  C   UNL     1       6.402  -0.041  -1.604  1.00  0.00     0.013 A 
ATOM     25  C   UNL     1       4.888   1.665  -1.003  1.00  0.00     0.071 A 
ATOM     26  C   UNL     1       6.141   1.315  -1.430  1.00  0.00     0.003 A 
ATOM     27  C   UNL     1       4.570   2.997  -0.812  1.00  0.00     0.032 A 
ATOM     28  C   UNL     1       7.096   2.286  -1.672  1.00  0.00     0.049 A 
ATOM     29  C   UNL     1       5.496   4.000  -1.043  1.00  0.00     0.041 A 
ATOM     30  C   UNL     1       6.749   3.616  -1.472  1.00  0.00     0.123 A 
ATOM     31  F   UNL     1       7.683   4.588  -1.707  1.00  0.00    -0.207 F 
ENDBRANCH  18  21
ENDBRANCH  16  17
ENDBRANCH   1  16
TORSDOF 6
