REMARK SMILES O=C(NCC(=O)N1CCCC[C@H]1c1csc(-c2ccccc2)n1)c1ccc2cc(F)ccc2n1
REMARK SMILES IDX 4 1 3 2 2 3 1 4 24 6 25 7 34 8 26 9 33 10 27 11 32 12 28 13
REMARK SMILES IDX 31 14 29 15 30 16 5 17 6 18 7 19 8 20 12 21 9 22 11 23 10 24
REMARK SMILES IDX 13 25 14 26 23 27 15 28 16 29 17 30 18 31 22 32 19 33 21 34
REMARK SMILES IDX 20 35
REMARK H PARENT 3 5
ROOT
ATOM      1  C   UNL     1       0.568  -0.882  -0.669  1.00  0.00     0.216 C 
ENDROOT
BRANCH   1   2
ATOM      2  N   UNL     1       1.779  -0.122  -0.667  1.00  0.00    -0.342 N 
ATOM      3  C   UNL     1       2.911  -0.669   0.009  1.00  0.00     0.270 C 
ATOM      4  O   UNL     1       2.790  -1.787   0.566  1.00  0.00    -0.268 OA
ATOM      5  H   UNL     1       1.857   0.808  -1.139  1.00  0.00     0.164 HD
BRANCH   3   6
ATOM      6  C   UNL     1       4.166   0.076   0.033  1.00  0.00     0.128 A 
ATOM      7  C   UNL     1       5.239  -0.482   0.693  1.00  0.00     0.035 A 
ATOM      8  N   UNL     1       4.315   1.277  -0.559  1.00  0.00    -0.243 NA
ATOM      9  C   UNL     1       6.465   0.153   0.766  1.00  0.00     0.013 A 
ATOM     10  C   UNL     1       5.485   1.941  -0.520  1.00  0.00     0.071 A 
ATOM     11  C   UNL     1       6.575   1.387   0.143  1.00  0.00     0.003 A 
ATOM     12  C   UNL     1       5.644   3.165  -1.122  1.00  0.00     0.032 A 
ATOM     13  C   UNL     1       7.792   2.078   0.184  1.00  0.00     0.049 A 
ATOM     14  C   UNL     1       6.815   3.885  -1.113  1.00  0.00     0.041 A 
ATOM     15  C   UNL     1       7.893   3.316  -0.445  1.00  0.00     0.123 A 
ATOM     16  F   UNL     1       9.086   3.964  -0.390  1.00  0.00    -0.207 F 
ENDBRANCH   3   6
ENDBRANCH   1   2
BRANCH   1  17
ATOM     17  C   UNL     1       0.051  -1.140   0.703  1.00  0.00     0.242 C 
ATOM     18  O   UNL     1       0.599  -0.746   1.747  1.00  0.00    -0.273 OA
BRANCH  17  19
ATOM     19  N   UNL     1      -1.156  -1.892   0.813  1.00  0.00    -0.333 N 
ATOM     20  C   UNL     1      -1.688  -2.163   2.132  1.00  0.00     0.120 C 
ATOM     21  C   UNL     1      -1.871  -2.398  -0.345  1.00  0.00     0.135 C 
ATOM     22  C   UNL     1      -2.666  -3.268   2.222  1.00  0.00     0.022 C 
ATOM     23  C   UNL     1      -2.079  -3.889  -0.160  1.00  0.00     0.032 C 
ATOM     24  C   UNL     1      -2.703  -4.266   1.130  1.00  0.00     0.004 C 
BRANCH  21  25
ATOM     25  C   UNL     1      -3.187  -1.707  -0.536  1.00  0.00     0.075 A 
ATOM     26  C   UNL     1      -4.341  -2.396  -0.848  1.00  0.00     0.093 A 
ATOM     27  N   UNL     1      -3.352  -0.410  -0.421  1.00  0.00    -0.239 NA
ATOM     28  S   UNL     1      -5.608  -1.013  -0.945  1.00  0.00    -0.122 S 
ATOM     29  C   UNL     1      -4.325   0.234  -0.543  1.00  0.00     0.123 A 
BRANCH  29  30
ATOM     30  C   UNL     1      -4.725   1.669  -0.458  1.00  0.00     0.010 A 
ATOM     31  C   UNL     1      -6.019   2.040  -0.675  1.00  0.00     0.011 A 
ATOM     32  C   UNL     1      -3.699   2.533  -0.151  1.00  0.00     0.011 A 
ATOM     33  C   UNL     1      -6.312   3.396  -0.577  1.00  0.00     0.001 A 
ATOM     34  C   UNL     1      -4.038   3.880  -0.063  1.00  0.00     0.001 A 
ATOM     35  C   UNL     1      -5.327   4.331  -0.270  1.00  0.00     0.000 A 
ENDBRANCH  29  30
ENDBRANCH  21  25
ENDBRANCH  17  19
ENDBRANCH   1  17
TORSDOF 6
