REMARK SMILES CN(CCNC(=O)c1ccc2cc(F)ccc2n1)[C@H]1CCC[C@H]1c1ccc(Cl)cc1
REMARK SMILES IDX 3 1 2 2 1 3 19 4 20 5 23 6 21 7 22 8 24 9 25 10 30 11 26 12
REMARK SMILES IDX 29 13 27 14 28 15 4 16 5 17 6 18 7 20 8 21 9 22 18 23 10 24
REMARK SMILES IDX 17 25 11 26 16 27 12 28 15 29 13 30 14 31
REMARK H PARENT 5 19
ROOT
ATOM      1  C   UNL     1      -0.513   0.280   0.200  1.00  0.00     0.105 C 
ENDROOT
BRANCH   1   2
ATOM      2  N   UNL     1      -1.928   0.064   0.011  1.00  0.00    -0.301 NA
ATOM      3  C   UNL     1      -2.271   0.456  -1.323  1.00  0.00     0.105 C 
BRANCH   2   4
ATOM      4  C   UNL     1      -2.349  -1.302   0.299  1.00  0.00     0.064 C 
ATOM      5  C   UNL     1      -1.936  -1.780   1.630  1.00  0.00     0.020 C 
ATOM      6  C   UNL     1      -3.806  -1.496   0.210  1.00  0.00     0.036 C 
ATOM      7  C   UNL     1      -3.143  -2.081   2.421  1.00  0.00     0.002 C 
ATOM      8  C   UNL     1      -4.206  -2.379   1.392  1.00  0.00     0.010 C 
BRANCH   6   9
ATOM      9  C   UNL     1      -4.637  -0.284   0.137  1.00  0.00    -0.043 A 
ATOM     10  C   UNL     1      -5.582  -0.180  -0.890  1.00  0.00     0.005 A 
ATOM     11  C   UNL     1      -4.562   0.776   1.010  1.00  0.00     0.005 A 
ATOM     12  C   UNL     1      -6.385   0.944  -0.993  1.00  0.00     0.021 A 
ATOM     13  C   UNL     1      -5.374   1.902   0.898  1.00  0.00     0.021 A 
ATOM     14  C   UNL     1      -6.301   1.997  -0.113  1.00  0.00     0.041 A 
ATOM     15  Cl  UNL     1      -7.322   3.404  -0.258  1.00  0.00    -0.084 Cl
ENDBRANCH   6   9
ENDBRANCH   2   4
ENDBRANCH   1   2
BRANCH   1  16
ATOM     16  C   UNL     1       0.344  -0.648  -0.600  1.00  0.00     0.131 C 
BRANCH  16  17
ATOM     17  N   UNL     1       1.775  -0.401  -0.385  1.00  0.00    -0.349 N 
ATOM     18  C   UNL     1       2.390   0.835  -0.677  1.00  0.00     0.269 C 
ATOM     19  H   UNL     1       2.383  -1.162   0.002  1.00  0.00     0.163 HD
ATOM     20  O   UNL     1       1.752   1.813  -1.145  1.00  0.00    -0.268 OA
BRANCH  18  21
ATOM     21  C   UNL     1       3.839   0.990  -0.426  1.00  0.00     0.128 A 
ATOM     22  C   UNL     1       4.473   2.184  -0.700  1.00  0.00     0.035 A 
ATOM     23  N   UNL     1       4.576  -0.017   0.073  1.00  0.00    -0.243 NA
ATOM     24  C   UNL     1       5.824   2.306  -0.457  1.00  0.00     0.013 A 
ATOM     25  C   UNL     1       5.900   0.078   0.320  1.00  0.00     0.071 A 
ATOM     26  C   UNL     1       6.581   1.268   0.058  1.00  0.00     0.003 A 
ATOM     27  C   UNL     1       6.633  -0.973   0.835  1.00  0.00     0.032 A 
ATOM     28  C   UNL     1       7.932   1.408   0.295  1.00  0.00     0.049 A 
ATOM     29  C   UNL     1       7.996  -0.876   1.090  1.00  0.00     0.041 A 
ATOM     30  C   UNL     1       8.624   0.331   0.809  1.00  0.00     0.123 A 
ATOM     31  F   UNL     1       9.950   0.476   1.039  1.00  0.00    -0.207 F 
ENDBRANCH  18  21
ENDBRANCH  16  17
ENDBRANCH   1  16
TORSDOF 6
