REMARK SMILES O=C(NCC(=O)N1CCCC[C@H]1c1ccc(Cl)cc1)c1ccc2ccccc2n1
REMARK SMILES IDX 5 1 6 2 4 3 3 4 2 5 1 6 20 8 21 9 29 10 22 11 28 12 23 13
REMARK SMILES IDX 27 14 24 15 26 16 25 17 7 18 8 19 12 20 9 21 11 22 10 23
REMARK SMILES IDX 13 24 14 25 19 26 15 27 18 28 16 29 17 30
REMARK H PARENT 3 7
ROOT
ATOM      1  C   UNL     1      -1.525  -1.361   0.397  1.00  0.00     0.242 C 
ATOM      2  O   UNL     1      -2.633  -2.051   0.265  1.00  0.00    -0.273 OA
ENDROOT
BRANCH   1   3
ATOM      3  C   UNL     1      -0.354  -2.186   0.584  1.00  0.00     0.216 C 
BRANCH   3   4
ATOM      4  N   UNL     1       0.943  -1.623   0.617  1.00  0.00    -0.342 N 
ATOM      5  C   UNL     1       1.449  -1.004  -0.573  1.00  0.00     0.270 C 
ATOM      6  O   UNL     1       0.707  -1.006  -1.567  1.00  0.00    -0.268 OA
ATOM      7  H   UNL     1       1.550  -1.645   1.490  1.00  0.00     0.164 HD
BRANCH   5   8
ATOM      8  C   UNL     1       2.787  -0.414  -0.555  1.00  0.00     0.128 A 
ATOM      9  C   UNL     1       3.286   0.182  -1.685  1.00  0.00     0.035 A 
ATOM     10  N   UNL     1       3.536  -0.456   0.581  1.00  0.00    -0.243 NA
ATOM     11  C   UNL     1       4.559   0.735  -1.641  1.00  0.00     0.013 A 
ATOM     12  C   UNL     1       4.772   0.070   0.655  1.00  0.00     0.071 A 
ATOM     13  C   UNL     1       5.303   0.682  -0.478  1.00  0.00     0.000 A 
ATOM     14  C   UNL     1       5.469  -0.012   1.842  1.00  0.00     0.029 A 
ATOM     15  C   UNL     1       6.564   1.209  -0.376  1.00  0.00     0.010 A 
ATOM     16  C   UNL     1       6.729   0.525   1.917  1.00  0.00     0.002 A 
ATOM     17  C   UNL     1       7.284   1.138   0.810  1.00  0.00     0.001 A 
ENDBRANCH   5   8
ENDBRANCH   3   4
ENDBRANCH   1   3
BRANCH   1  18
ATOM     18  N   UNL     1      -1.700   0.019   0.333  1.00  0.00    -0.334 N 
ATOM     19  C   UNL     1      -0.665   1.043   0.539  1.00  0.00     0.120 C 
ATOM     20  C   UNL     1      -2.997   0.655  -0.025  1.00  0.00     0.115 C 
ATOM     21  C   UNL     1      -0.529   1.868  -0.717  1.00  0.00     0.022 C 
ATOM     22  C   UNL     1      -2.803   0.979  -1.486  1.00  0.00     0.030 C 
ATOM     23  C   UNL     1      -1.472   1.537  -1.811  1.00  0.00     0.004 C 
BRANCH  20  24
ATOM     24  C   UNL     1      -4.168  -0.130   0.274  1.00  0.00    -0.025 A 
ATOM     25  C   UNL     1      -4.507  -0.671   1.498  1.00  0.00     0.007 A 
ATOM     26  C   UNL     1      -5.075  -0.390  -0.762  1.00  0.00     0.007 A 
ATOM     27  C   UNL     1      -5.650  -1.414   1.708  1.00  0.00     0.021 A 
ATOM     28  C   UNL     1      -6.219  -1.133  -0.556  1.00  0.00     0.021 A 
ATOM     29  C   UNL     1      -6.533  -1.661   0.678  1.00  0.00     0.041 A 
ATOM     30  Cl  UNL     1      -7.953  -2.603   1.004  1.00  0.00    -0.084 Cl
ENDBRANCH  20  24
ENDBRANCH   1  18
TORSDOF 5
