REMARK SMILES CC(C)C[C@H](NC(=O)CNC(=O)c1ccc2ccccc2n1)c1ccccc1
REMARK SMILES IDX 6 1 7 2 8 3 5 5 4 6 2 7 1 8 3 9 23 10 24 11 28 12 25 13
REMARK SMILES IDX 27 14 26 15 9 16 10 17 11 18 12 20 13 21 14 22 22 23 15 24
REMARK SMILES IDX 21 25 16 26 20 27 17 28 19 29 18 30
REMARK H PARENT 6 4 10 19
ROOT
ATOM      1  N   UNL     1      -1.209   0.249  -1.099  1.00  0.00    -0.348 N 
ATOM      2  C   UNL     1      -0.772   1.004  -2.213  1.00  0.00     0.239 C 
ATOM      3  O   UNL     1      -1.626   1.232  -3.135  1.00  0.00    -0.273 OA
ATOM      4  H   UNL     1      -0.562   0.036  -0.326  1.00  0.00     0.164 HD
ENDROOT
BRANCH   1   5
ATOM      5  C   UNL     1      -2.580  -0.253  -1.005  1.00  0.00     0.112 C 
BRANCH   5   6
ATOM      6  C   UNL     1      -2.449  -1.760  -0.941  1.00  0.00     0.033 C 
BRANCH   6   7
ATOM      7  C   UNL     1      -3.795  -2.458  -0.840  1.00  0.00    -0.015 C 
ATOM      8  C   UNL     1      -4.609  -2.102  -2.060  1.00  0.00     0.007 C 
ATOM      9  C   UNL     1      -3.518  -3.955  -0.895  1.00  0.00     0.007 C 
ENDBRANCH   6   7
ENDBRANCH   5   6
BRANCH   5  10
ATOM     10  C   UNL     1      -3.213   0.192   0.271  1.00  0.00    -0.026 A 
ATOM     11  C   UNL     1      -4.490   0.709   0.332  1.00  0.00     0.006 A 
ATOM     12  C   UNL     1      -2.473   0.073   1.433  1.00  0.00     0.006 A 
ATOM     13  C   UNL     1      -5.087   1.123   1.505  1.00  0.00     0.000 A 
ATOM     14  C   UNL     1      -3.054   0.485   2.637  1.00  0.00     0.000 A 
ATOM     15  C   UNL     1      -4.336   0.998   2.657  1.00  0.00     0.000 A 
ENDBRANCH   5  10
ENDBRANCH   1   5
BRANCH   2  16
ATOM     16  C   UNL     1       0.576   1.550  -2.404  1.00  0.00     0.216 C 
BRANCH  16  17
ATOM     17  N   UNL     1       1.508   1.270  -1.341  1.00  0.00    -0.342 N 
ATOM     18  C   UNL     1       2.832   1.780  -1.484  1.00  0.00     0.270 C 
ATOM     19  H   UNL     1       1.309   0.731  -0.481  1.00  0.00     0.164 HD
ATOM     20  O   UNL     1       3.057   2.438  -2.543  1.00  0.00    -0.268 OA
BRANCH  18  21
ATOM     21  C   UNL     1       3.849   1.551  -0.465  1.00  0.00     0.128 A 
ATOM     22  C   UNL     1       5.114   2.096  -0.708  1.00  0.00     0.035 A 
ATOM     23  N   UNL     1       3.623   0.855   0.663  1.00  0.00    -0.243 NA
ATOM     24  C   UNL     1       6.133   1.923   0.206  1.00  0.00     0.013 A 
ATOM     25  C   UNL     1       4.617   0.672   1.582  1.00  0.00     0.071 A 
ATOM     26  C   UNL     1       5.874   1.206   1.354  1.00  0.00     0.000 A 
ATOM     27  C   UNL     1       4.345  -0.047   2.726  1.00  0.00     0.029 A 
ATOM     28  C   UNL     1       6.857   1.001   2.306  1.00  0.00     0.010 A 
ATOM     29  C   UNL     1       5.365  -0.232   3.664  1.00  0.00     0.002 A 
ATOM     30  C   UNL     1       6.633   0.293   3.460  1.00  0.00     0.001 A 
ENDBRANCH  18  21
ENDBRANCH  16  17
ENDBRANCH   2  16
TORSDOF 7
