REMARK SMILES O=C(NCC(=O)N1CCCC[C@H]1C1CCCC1)c1ccc2ccc(Cl)cc2n1
REMARK SMILES IDX 4 1 3 2 2 3 1 4 18 6 19 7 28 8 20 9 27 10 21 11 26 12 22 13
REMARK SMILES IDX 24 14 23 15 25 16 5 17 6 18 7 19 8 20 12 21 9 22 11 23 10 24
REMARK SMILES IDX 13 25 14 26 17 27 15 28 16 29
REMARK H PARENT 3 5
ROOT
ATOM      1  C   UNL     1      -0.188  -0.738  -1.949  1.00  0.00     0.216 C 
ENDROOT
BRANCH   1   2
ATOM      2  N   UNL     1       1.029  -0.407  -1.313  1.00  0.00    -0.342 N 
ATOM      3  C   UNL     1       2.165  -0.204  -2.221  1.00  0.00     0.270 C 
ATOM      4  O   UNL     1       1.948  -0.343  -3.458  1.00  0.00    -0.268 OA
ATOM      5  H   UNL     1       1.271  -0.254  -0.335  1.00  0.00     0.164 HD
BRANCH   3   6
ATOM      6  C   UNL     1       3.461   0.139  -1.682  1.00  0.00     0.128 A 
ATOM      7  C   UNL     1       4.497   0.319  -2.572  1.00  0.00     0.035 A 
ATOM      8  N   UNL     1       3.719   0.292  -0.374  1.00  0.00    -0.243 NA
ATOM      9  C   UNL     1       5.747   0.643  -2.144  1.00  0.00     0.013 A 
ATOM     10  C   UNL     1       4.946   0.612   0.072  1.00  0.00     0.073 A 
ATOM     11  C   UNL     1       5.995   0.797  -0.801  1.00  0.00     0.000 A 
ATOM     12  C   UNL     1       5.206   0.768   1.411  1.00  0.00     0.049 A 
ATOM     13  C   UNL     1       7.273   1.126  -0.394  1.00  0.00     0.012 A 
ATOM     14  C   UNL     1       6.471   1.097   1.854  1.00  0.00     0.043 A 
ATOM     15  C   UNL     1       7.510   1.277   0.957  1.00  0.00     0.021 A 
ATOM     16  Cl  UNL     1       6.839   1.304   3.562  1.00  0.00    -0.084 Cl
ENDBRANCH   3   6
ENDBRANCH   1   2
BRANCH   1  17
ATOM     17  C   UNL     1      -1.395  -1.016  -1.184  1.00  0.00     0.242 C 
ATOM     18  O   UNL     1      -2.432  -1.195  -1.985  1.00  0.00    -0.273 OA
BRANCH  17  19
ATOM     19  N   UNL     1      -1.689  -1.129   0.158  1.00  0.00    -0.338 N 
ATOM     20  C   UNL     1      -0.690  -1.185   1.251  1.00  0.00     0.120 C 
ATOM     21  C   UNL     1      -3.066  -1.140   0.709  1.00  0.00     0.088 C 
ATOM     22  C   UNL     1      -0.751   0.174   1.894  1.00  0.00     0.022 C 
ATOM     23  C   UNL     1      -3.039  -0.819   2.171  1.00  0.00     0.025 C 
ATOM     24  C   UNL     1      -2.085   0.225   2.619  1.00  0.00     0.004 C 
BRANCH  21  25
ATOM     25  C   UNL     1      -3.967  -0.323  -0.100  1.00  0.00     0.012 C 
ATOM     26  C   UNL     1      -3.591   1.108  -0.355  1.00  0.00     0.006 C 
ATOM     27  C   UNL     1      -5.315  -0.044   0.604  1.00  0.00     0.006 C 
ATOM     28  C   UNL     1      -4.822   1.515  -1.183  1.00  0.00     0.000 C 
ATOM     29  C   UNL     1      -5.980   0.725  -0.557  1.00  0.00     0.000 C 
ENDBRANCH  21  25
ENDBRANCH  17  19
ENDBRANCH   1  17
TORSDOF 5
