REMARK SMILES O=C(NCC(=O)N1CCCC[C@@H]1C1CCCC1)c1ccc2ccc(Cl)cc2n1
REMARK SMILES IDX 4 1 3 2 2 3 1 4 18 6 19 7 28 8 20 9 27 10 21 11 26 12 22 13
REMARK SMILES IDX 24 14 23 15 25 16 5 17 6 18 7 19 8 20 12 21 9 22 11 23 10 24
REMARK SMILES IDX 13 25 14 26 17 27 15 28 16 29
REMARK H PARENT 3 5
ROOT
ATOM      1  C   UNL     1       0.357  -1.103  -0.125  1.00  0.00     0.216 C 
ENDROOT
BRANCH   1   2
ATOM      2  N   UNL     1       1.649  -0.486  -0.043  1.00  0.00    -0.342 N 
ATOM      3  C   UNL     1       2.771  -1.239  -0.514  1.00  0.00     0.270 C 
ATOM      4  O   UNL     1       2.494  -2.396  -0.964  1.00  0.00    -0.268 OA
ATOM      5  H   UNL     1       1.804   0.477   0.341  1.00  0.00     0.164 HD
BRANCH   3   6
ATOM      6  C   UNL     1       4.127  -0.715  -0.480  1.00  0.00     0.128 A 
ATOM      7  C   UNL     1       5.133  -1.525  -0.960  1.00  0.00     0.035 A 
ATOM      8  N   UNL     1       4.456   0.488  -0.018  1.00  0.00    -0.243 NA
ATOM      9  C   UNL     1       6.434  -1.095  -0.958  1.00  0.00     0.013 A 
ATOM     10  C   UNL     1       5.726   0.937  -0.004  1.00  0.00     0.073 A 
ATOM     11  C   UNL     1       6.755   0.138  -0.482  1.00  0.00     0.000 A 
ATOM     12  C   UNL     1       5.999   2.200   0.491  1.00  0.00     0.049 A 
ATOM     13  C   UNL     1       8.067   0.578  -0.477  1.00  0.00     0.012 A 
ATOM     14  C   UNL     1       7.305   2.661   0.505  1.00  0.00     0.043 A 
ATOM     15  C   UNL     1       8.304   1.838   0.021  1.00  0.00     0.021 A 
ATOM     16  Cl  UNL     1       7.756   4.226   1.103  1.00  0.00    -0.084 Cl
ENDBRANCH   3   6
ENDBRANCH   1   2
BRANCH   1  17
ATOM     17  C   UNL     1      -0.730  -0.231   0.392  1.00  0.00     0.242 C 
ATOM     18  O   UNL     1      -0.497   0.931   0.849  1.00  0.00    -0.273 OA
BRANCH  17  19
ATOM     19  N   UNL     1      -2.052  -0.759   0.351  1.00  0.00    -0.338 N 
ATOM     20  C   UNL     1      -2.372  -2.071  -0.158  1.00  0.00     0.120 C 
ATOM     21  C   UNL     1      -3.148   0.052   0.844  1.00  0.00     0.088 C 
ATOM     22  C   UNL     1      -3.488  -2.780   0.501  1.00  0.00     0.022 C 
ATOM     23  C   UNL     1      -3.736  -0.727   1.968  1.00  0.00     0.025 C 
ATOM     24  C   UNL     1      -4.191  -2.092   1.611  1.00  0.00     0.004 C 
BRANCH  21  25
ATOM     25  C   UNL     1      -4.129   0.353  -0.260  1.00  0.00     0.012 C 
ATOM     26  C   UNL     1      -3.453   1.102  -1.376  1.00  0.00     0.006 C 
ATOM     27  C   UNL     1      -5.311   1.135   0.193  1.00  0.00     0.006 C 
ATOM     28  C   UNL     1      -4.025   2.510  -1.210  1.00  0.00     0.000 C 
ATOM     29  C   UNL     1      -5.475   2.195  -0.906  1.00  0.00     0.000 C 
ENDBRANCH  21  25
ENDBRANCH  17  19
ENDBRANCH   1  17
TORSDOF 5
