REMARK SMILES O=C(NCC(=O)N1CCC[C@H]1c1ncc(Cl)cn1)c1ccc2cc(Cl)ccc2n1
REMARK SMILES IDX 4 1 3 2 2 3 1 4 19 6 20 7 29 8 21 9 28 10 22 11 27 12 23 13
REMARK SMILES IDX 26 14 24 15 25 16 5 17 6 18 7 19 8 20 11 21 9 22 10 23 12 24
REMARK SMILES IDX 13 25 18 26 14 27 17 28 15 29 16 30
REMARK H PARENT 3 5
ROOT
ATOM      1  C   UNL     1      -0.194   0.462  -1.516  1.00  0.00     0.216 C 
ENDROOT
BRANCH   1   2
ATOM      2  N   UNL     1       1.126   0.073  -1.151  1.00  0.00    -0.342 N 
ATOM      3  C   UNL     1       1.833   0.871  -0.204  1.00  0.00     0.270 C 
ATOM      4  O   UNL     1       1.296   1.900   0.298  1.00  0.00    -0.268 OA
ATOM      5  H   UNL     1       1.587  -0.784  -1.562  1.00  0.00     0.164 HD
BRANCH   3   6
ATOM      6  C   UNL     1       3.189   0.484   0.181  1.00  0.00     0.128 A 
ATOM      7  C   UNL     1       3.878   1.253   1.097  1.00  0.00     0.035 A 
ATOM      8  N   UNL     1       3.813  -0.596  -0.316  1.00  0.00    -0.243 NA
ATOM      9  C   UNL     1       5.172   0.934   1.502  1.00  0.00     0.013 A 
ATOM     10  C   UNL     1       5.072  -0.938   0.054  1.00  0.00     0.071 A 
ATOM     11  C   UNL     1       5.791  -0.189   0.971  1.00  0.00     0.002 A 
ATOM     12  C   UNL     1       5.687  -2.056  -0.476  1.00  0.00     0.030 A 
ATOM     13  C   UNL     1       7.051  -0.476   1.382  1.00  0.00     0.030 A 
ATOM     14  C   UNL     1       6.972  -2.362  -0.066  1.00  0.00     0.023 A 
ATOM     15  C   UNL     1       7.668  -1.599   0.850  1.00  0.00     0.041 A 
ATOM     16  Cl  UNL     1       9.293  -1.985   1.368  1.00  0.00    -0.084 Cl
ENDBRANCH   3   6
ENDBRANCH   1   2
BRANCH   1  17
ATOM     17  C   UNL     1      -1.126   0.494  -0.338  1.00  0.00     0.242 C 
ATOM     18  O   UNL     1      -0.680   0.192   0.797  1.00  0.00    -0.273 OA
BRANCH  17  19
ATOM     19  N   UNL     1      -2.478   0.870  -0.577  1.00  0.00    -0.331 N 
ATOM     20  C   UNL     1      -3.094   1.236  -1.839  1.00  0.00     0.120 C 
ATOM     21  C   UNL     1      -3.471   0.935   0.497  1.00  0.00     0.153 C 
ATOM     22  C   UNL     1      -4.215   2.159  -1.411  1.00  0.00     0.024 C 
ATOM     23  C   UNL     1      -4.237   2.176   0.089  1.00  0.00     0.035 C 
BRANCH  21  24
ATOM     24  C   UNL     1      -4.414  -0.205   0.466  1.00  0.00     0.150 A 
ATOM     25  N   UNL     1      -4.766  -0.891   1.572  1.00  0.00    -0.238 NA
ATOM     26  N   UNL     1      -4.937  -0.566  -0.719  1.00  0.00    -0.238 NA
ATOM     27  C   UNL     1      -5.622  -1.929   1.552  1.00  0.00     0.135 A 
ATOM     28  C   UNL     1      -5.807  -1.605  -0.811  1.00  0.00     0.135 A 
ATOM     29  C   UNL     1      -6.153  -2.293   0.343  1.00  0.00     0.077 A 
ATOM     30  Cl  UNL     1      -7.286  -3.632   0.169  1.00  0.00    -0.081 Cl
ENDBRANCH  21  24
ENDBRANCH  17  19
ENDBRANCH   1  17
TORSDOF 5
