REMARK SMILES CC(C)[C@H]1C[C@H](NC(=O)CNC(=O)c2ccc3cc(F)ccc3n2)[C@H](c2ccc(F)cc2)C1
REMARK SMILES IDX 7 1 8 2 9 3 6 5 4 6 5 7 33 8 25 9 2 10 1 11 3 12 26 13 27 14
REMARK SMILES IDX 32 15 28 16 31 17 29 18 30 19 10 20 11 21 12 22 13 24 14 25
REMARK SMILES IDX 15 26 24 27 16 28 23 29 17 30 22 31 18 32 21 33 19 34 20 35
REMARK H PARENT 7 4 11 23
ROOT
ATOM      1  N   UNL     1      -1.263   0.166  -0.722  1.00  0.00    -0.351 N 
ATOM      2  C   UNL     1       0.127  -0.111  -0.496  1.00  0.00     0.239 C 
ATOM      3  O   UNL     1       0.666   0.315   0.561  1.00  0.00    -0.273 OA
ATOM      4  H   UNL     1      -1.713  -0.177  -1.585  1.00  0.00     0.163 HD
ENDROOT
BRANCH   1   5
ATOM      5  C   UNL     1      -1.957   0.924   0.288  1.00  0.00     0.089 C 
ATOM      6  C   UNL     1      -3.740   1.513  -1.175  1.00  0.00    -0.006 C 
ATOM      7  C   UNL     1      -2.554   2.133  -0.447  1.00  0.00     0.029 C 
ATOM      8  C   UNL     1      -4.004   0.173  -0.524  1.00  0.00     0.014 C 
ATOM      9  C   UNL     1      -3.234   0.267   0.753  1.00  0.00     0.042 C 
BRANCH   6  10
ATOM     10  C   UNL     1      -4.980   2.348  -0.986  1.00  0.00    -0.014 C 
ATOM     11  C   UNL     1      -6.124   1.705  -1.718  1.00  0.00     0.007 C 
ATOM     12  C   UNL     1      -4.766   3.732  -1.523  1.00  0.00     0.007 C 
ENDBRANCH   6  10
BRANCH   9  13
ATOM     13  C   UNL     1      -3.049  -0.997   1.469  1.00  0.00    -0.043 A 
ATOM     14  C   UNL     1      -3.485  -1.099   2.762  1.00  0.00     0.007 A 
ATOM     15  C   UNL     1      -2.446  -2.072   0.855  1.00  0.00     0.007 A 
ATOM     16  C   UNL     1      -3.326  -2.288   3.472  1.00  0.00     0.039 A 
ATOM     17  C   UNL     1      -2.280  -3.268   1.555  1.00  0.00     0.039 A 
ATOM     18  C   UNL     1      -2.722  -3.365   2.860  1.00  0.00     0.123 A 
ATOM     19  F   UNL     1      -2.595  -4.494   3.602  1.00  0.00    -0.207 F 
ENDBRANCH   9  13
ENDBRANCH   1   5
BRANCH   2  20
ATOM     20  C   UNL     1       0.861  -0.892  -1.527  1.00  0.00     0.216 C 
BRANCH  20  21
ATOM     21  N   UNL     1       2.240  -1.064  -1.114  1.00  0.00    -0.342 N 
ATOM     22  C   UNL     1       3.004   0.126  -0.914  1.00  0.00     0.270 C 
ATOM     23  H   UNL     1       2.666  -2.021  -0.966  1.00  0.00     0.164 HD
ATOM     24  O   UNL     1       2.481   1.267  -1.095  1.00  0.00    -0.268 OA
BRANCH  22  25
ATOM     25  C   UNL     1       4.399   0.020  -0.498  1.00  0.00     0.128 A 
ATOM     26  C   UNL     1       5.143   1.165  -0.304  1.00  0.00     0.035 A 
ATOM     27  N   UNL     1       5.018  -1.156  -0.288  1.00  0.00    -0.243 NA
ATOM     28  C   UNL     1       6.465   1.154   0.089  1.00  0.00     0.013 A 
ATOM     29  C   UNL     1       6.320  -1.216   0.100  1.00  0.00     0.071 A 
ATOM     30  C   UNL     1       7.073  -0.066   0.297  1.00  0.00     0.003 A 
ATOM     31  C   UNL     1       6.940  -2.431   0.311  1.00  0.00     0.032 A 
ATOM     32  C   UNL     1       8.389  -0.091   0.688  1.00  0.00     0.049 A 
ATOM     33  C   UNL     1       8.274  -2.478   0.708  1.00  0.00     0.041 A 
ATOM     34  C   UNL     1       8.986  -1.304   0.893  1.00  0.00     0.123 A 
ATOM     35  F   UNL     1      10.286  -1.309   1.278  1.00  0.00    -0.207 F 
ENDBRANCH  22  25
ENDBRANCH  20  21
ENDBRANCH   2  20
TORSDOF 6
