REMARK SMILES O=C(NCC(=O)N1CC[C@H](O)[C@H]1Cc1ccccc1)c1ccc2cc(F)ccc2n1
REMARK SMILES IDX 4 1 3 2 2 3 1 4 20 6 21 7 30 8 22 9 29 10 23 11 28 12 24 13
REMARK SMILES IDX 27 14 25 15 26 16 5 17 6 18 7 19 8 20 12 21 9 22 10 23 13 24
REMARK SMILES IDX 14 25 15 26 19 27 16 28 18 29 17 30 11 31
REMARK H PARENT 3 5 11 32
ROOT
ATOM      1  C   UNL     1       0.673  -1.749  -0.515  1.00  0.00     0.216 C 
ENDROOT
BRANCH   1   2
ATOM      2  N   UNL     1       2.003  -1.211  -0.432  1.00  0.00    -0.342 N 
ATOM      3  C   UNL     1       2.442  -0.441   0.672  1.00  0.00     0.270 C 
ATOM      4  O   UNL     1       1.698  -0.176   1.654  1.00  0.00    -0.268 OA
ATOM      5  H   UNL     1       2.694  -1.388  -1.220  1.00  0.00     0.164 HD
BRANCH   3   6
ATOM      6  C   UNL     1       3.827   0.067   0.664  1.00  0.00     0.128 A 
ATOM      7  C   UNL     1       4.313   0.823   1.711  1.00  0.00     0.035 A 
ATOM      8  N   UNL     1       4.659  -0.201  -0.384  1.00  0.00    -0.243 NA
ATOM      9  C   UNL     1       5.625   1.304   1.702  1.00  0.00     0.013 A 
ATOM     10  C   UNL     1       5.929   0.240  -0.437  1.00  0.00     0.071 A 
ATOM     11  C   UNL     1       6.426   0.996   0.604  1.00  0.00     0.003 A 
ATOM     12  C   UNL     1       6.662  -0.101  -1.550  1.00  0.00     0.032 A 
ATOM     13  C   UNL     1       7.740   1.450   0.544  1.00  0.00     0.049 A 
ATOM     14  C   UNL     1       7.971   0.354  -1.604  1.00  0.00     0.041 A 
ATOM     15  C   UNL     1       8.492   1.116  -0.569  1.00  0.00     0.123 A 
ATOM     16  F   UNL     1       9.789   1.539  -0.672  1.00  0.00    -0.207 F 
ENDBRANCH   3   6
ENDBRANCH   1   2
BRANCH   1  17
ATOM     17  C   UNL     1      -0.368  -0.693  -0.484  1.00  0.00     0.242 C 
ATOM     18  O   UNL     1      -0.037   0.537  -0.392  1.00  0.00    -0.273 OA
BRANCH  17  19
ATOM     19  N   UNL     1      -1.732  -1.068  -0.557  1.00  0.00    -0.335 N 
ATOM     20  C   UNL     1      -2.267  -2.411  -0.664  1.00  0.00     0.122 C 
ATOM     21  C   UNL     1      -2.886  -0.170  -0.541  1.00  0.00     0.118 C 
ATOM     22  C   UNL     1      -3.686  -2.278  -1.146  1.00  0.00     0.055 C 
ATOM     23  C   UNL     1      -3.803  -0.838  -1.526  1.00  0.00     0.139 C 
BRANCH  21  24
ATOM     24  C   UNL     1      -3.430  -0.215   0.884  1.00  0.00     0.063 C 
BRANCH  24  25
ATOM     25  C   UNL     1      -4.608   0.689   0.938  1.00  0.00    -0.046 A 
ATOM     26  C   UNL     1      -5.895   0.281   0.688  1.00  0.00     0.004 A 
ATOM     27  C   UNL     1      -4.412   2.020   1.257  1.00  0.00     0.004 A 
ATOM     28  C   UNL     1      -6.974   1.135   0.742  1.00  0.00     0.000 A 
ATOM     29  C   UNL     1      -5.461   2.924   1.325  1.00  0.00     0.000 A 
ATOM     30  C   UNL     1      -6.735   2.455   1.063  1.00  0.00     0.000 A 
ENDBRANCH  24  25
ENDBRANCH  21  24
BRANCH  23  31
ATOM     31  O   UNL     1      -3.194  -0.677  -2.790  1.00  0.00    -0.391 OA
ATOM     32  H   UNL     1      -2.857  -1.524  -3.155  1.00  0.00     0.211 HD
ENDBRANCH  23  31
ENDBRANCH  17  19
ENDBRANCH   1  17
TORSDOF 7
