REMARK SMILES O=C(NCC(=O)N1CCCC[C@@H]1c1ccccc1)c1ccc2cc(Cl)ccc2n1
REMARK SMILES IDX 4 1 3 2 2 3 1 4 19 6 20 7 29 8 21 9 28 10 22 11 27 12 23 13
REMARK SMILES IDX 26 14 24 15 25 16 5 17 6 18 7 19 8 20 12 21 9 22 11 23 10 24
REMARK SMILES IDX 13 25 14 26 18 27 15 28 17 29 16 30
REMARK H PARENT 3 5
ROOT
ATOM      1  C   UNL     1       0.128  -1.738  -0.775  1.00  0.00     0.216 C 
ENDROOT
BRANCH   1   2
ATOM      2  N   UNL     1       1.384  -1.051  -0.540  1.00  0.00    -0.342 N 
ATOM      3  C   UNL     1       1.746  -0.770   0.804  1.00  0.00     0.270 C 
ATOM      4  O   UNL     1       1.040  -1.083   1.797  1.00  0.00    -0.268 OA
ATOM      5  H   UNL     1       2.032  -0.754  -1.308  1.00  0.00     0.164 HD
BRANCH   3   6
ATOM      6  C   UNL     1       3.023  -0.071   1.045  1.00  0.00     0.128 A 
ATOM      7  C   UNL     1       3.435   0.233   2.322  1.00  0.00     0.035 A 
ATOM      8  N   UNL     1       3.828   0.293   0.011  1.00  0.00    -0.243 NA
ATOM      9  C   UNL     1       4.627   0.886   2.558  1.00  0.00     0.013 A 
ATOM     10  C   UNL     1       4.996   0.933   0.238  1.00  0.00     0.071 A 
ATOM     11  C   UNL     1       5.423   1.244   1.511  1.00  0.00     0.002 A 
ATOM     12  C   UNL     1       5.774   1.278  -0.864  1.00  0.00     0.030 A 
ATOM     13  C   UNL     1       6.627   1.899   1.673  1.00  0.00     0.030 A 
ATOM     14  C   UNL     1       6.989   1.937  -0.719  1.00  0.00     0.023 A 
ATOM     15  C   UNL     1       7.396   2.239   0.569  1.00  0.00     0.041 A 
ATOM     16  Cl  UNL     1       8.913   3.065   0.781  1.00  0.00    -0.084 Cl
ENDBRANCH   3   6
ENDBRANCH   1   2
BRANCH   1  17
ATOM     17  C   UNL     1      -1.026  -0.958  -0.249  1.00  0.00     0.242 C 
ATOM     18  O   UNL     1      -0.751   0.143   0.302  1.00  0.00    -0.273 OA
BRANCH  17  19
ATOM     19  N   UNL     1      -2.322  -1.478  -0.393  1.00  0.00    -0.334 N 
ATOM     20  C   UNL     1      -2.556  -2.773  -1.050  1.00  0.00     0.120 C 
ATOM     21  C   UNL     1      -3.479  -0.773   0.094  1.00  0.00     0.115 C 
ATOM     22  C   UNL     1      -3.686  -3.497  -0.349  1.00  0.00     0.022 C 
ATOM     23  C   UNL     1      -4.674  -1.229  -0.729  1.00  0.00     0.030 C 
ATOM     24  C   UNL     1      -4.951  -2.667  -0.324  1.00  0.00     0.004 C 
BRANCH  21  25
ATOM     25  C   UNL     1      -3.344   0.703   0.068  1.00  0.00    -0.025 A 
ATOM     26  C   UNL     1      -2.833   1.403  -1.005  1.00  0.00     0.006 A 
ATOM     27  C   UNL     1      -3.744   1.458   1.168  1.00  0.00     0.006 A 
ATOM     28  C   UNL     1      -2.713   2.784  -1.013  1.00  0.00     0.000 A 
ATOM     29  C   UNL     1      -3.643   2.830   1.202  1.00  0.00     0.000 A 
ATOM     30  C   UNL     1      -3.127   3.507   0.112  1.00  0.00     0.000 A 
ENDBRANCH  21  25
ENDBRANCH  17  19
ENDBRANCH   1  17
TORSDOF 5
