REMARK SMILES O=C(NCC(=O)N1CCCC[C@H]1c1ccccc1)c1ccc2cc(Cl)ccc2n1
REMARK SMILES IDX 4 1 3 2 2 3 1 4 19 6 20 7 29 8 21 9 28 10 22 11 27 12 23 13
REMARK SMILES IDX 26 14 24 15 25 16 5 17 6 18 7 19 8 20 12 21 9 22 11 23 10 24
REMARK SMILES IDX 13 25 14 26 18 27 15 28 17 29 16 30
REMARK H PARENT 3 5
ROOT
ATOM      1  C   UNL     1       0.002  -1.347   0.317  1.00  0.00     0.216 C 
ENDROOT
BRANCH   1   2
ATOM      2  N   UNL     1       1.221  -0.652  -0.031  1.00  0.00    -0.342 N 
ATOM      3  C   UNL     1       2.434  -1.175   0.537  1.00  0.00     0.270 C 
ATOM      4  O   UNL     1       2.296  -2.184   1.277  1.00  0.00    -0.268 OA
ATOM      5  H   UNL     1       1.249   0.191  -0.662  1.00  0.00     0.164 HD
BRANCH   3   6
ATOM      6  C   UNL     1       3.724  -0.557   0.257  1.00  0.00     0.128 A 
ATOM      7  C   UNL     1       4.832  -1.131   0.849  1.00  0.00     0.035 A 
ATOM      8  N   UNL     1       3.870   0.522  -0.534  1.00  0.00    -0.243 NA
ATOM      9  C   UNL     1       6.109  -0.650   0.670  1.00  0.00     0.013 A 
ATOM     10  C   UNL     1       5.119   1.028  -0.735  1.00  0.00     0.071 A 
ATOM     11  C   UNL     1       6.237   0.465  -0.151  1.00  0.00     0.002 A 
ATOM     12  C   UNL     1       5.303   2.128  -1.536  1.00  0.00     0.030 A 
ATOM     13  C   UNL     1       7.487   0.978  -0.357  1.00  0.00     0.030 A 
ATOM     14  C   UNL     1       6.576   2.664  -1.756  1.00  0.00     0.023 A 
ATOM     15  C   UNL     1       7.681   2.085  -1.162  1.00  0.00     0.041 A 
ATOM     16  Cl  UNL     1       9.306   2.677  -1.374  1.00  0.00    -0.084 Cl
ENDBRANCH   3   6
ENDBRANCH   1   2
BRANCH   1  17
ATOM     17  C   UNL     1      -1.186  -0.700  -0.341  1.00  0.00     0.242 C 
ATOM     18  O   UNL     1      -0.946   0.303  -1.062  1.00  0.00    -0.273 OA
BRANCH  17  19
ATOM     19  N   UNL     1      -2.493  -1.221  -0.137  1.00  0.00    -0.334 N 
ATOM     20  C   UNL     1      -2.659  -2.382   0.714  1.00  0.00     0.120 C 
ATOM     21  C   UNL     1      -3.584  -0.548  -0.800  1.00  0.00     0.115 C 
ATOM     22  C   UNL     1      -4.086  -2.684   1.029  1.00  0.00     0.022 C 
ATOM     23  C   UNL     1      -4.885  -1.275  -0.779  1.00  0.00     0.030 C 
ATOM     24  C   UNL     1      -4.837  -2.681  -0.285  1.00  0.00     0.004 C 
BRANCH  21  25
ATOM     25  C   UNL     1      -3.724   0.873  -0.374  1.00  0.00    -0.025 A 
ATOM     26  C   UNL     1      -3.926   1.884  -1.294  1.00  0.00     0.006 A 
ATOM     27  C   UNL     1      -3.653   1.199   0.965  1.00  0.00     0.006 A 
ATOM     28  C   UNL     1      -4.055   3.198  -0.894  1.00  0.00     0.000 A 
ATOM     29  C   UNL     1      -3.781   2.514   1.377  1.00  0.00     0.000 A 
ATOM     30  C   UNL     1      -3.984   3.536   0.461  1.00  0.00     0.000 A 
ENDBRANCH  21  25
ENDBRANCH  17  19
ENDBRANCH   1  17
TORSDOF 5
