REMARK SMILES O=C(NCC(=O)N1CCC[C@H]1c1ccc(Cl)cc1)c1ccc2cc(Cl)ccc2n1
REMARK SMILES IDX 4 1 3 2 2 3 1 4 19 6 20 7 29 8 21 9 28 10 22 11 27 12 23 13
REMARK SMILES IDX 26 14 24 15 25 16 5 17 6 18 7 19 8 20 11 21 9 22 10 23 12 24
REMARK SMILES IDX 13 25 18 26 14 27 17 28 15 29 16 30
REMARK H PARENT 3 5
ROOT
ATOM      1  C   UNL     1       0.016   0.851   1.365  1.00  0.00     0.216 C 
ENDROOT
BRANCH   1   2
ATOM      2  N   UNL     1       1.333   0.705   0.833  1.00  0.00    -0.342 N 
ATOM      3  C   UNL     1       1.959  -0.565   0.906  1.00  0.00     0.270 C 
ATOM      4  O   UNL     1       1.330  -1.519   1.437  1.00  0.00    -0.268 OA
ATOM      5  H   UNL     1       1.891   1.473   0.384  1.00  0.00     0.164 HD
BRANCH   3   6
ATOM      6  C   UNL     1       3.308  -0.776   0.380  1.00  0.00     0.128 A 
ATOM      7  C   UNL     1       3.893  -2.009   0.460  1.00  0.00     0.035 A 
ATOM      8  N   UNL     1       4.015   0.232  -0.199  1.00  0.00    -0.243 NA
ATOM      9  C   UNL     1       5.171  -2.242  -0.030  1.00  0.00     0.013 A 
ATOM     10  C   UNL     1       5.263   0.016  -0.681  1.00  0.00     0.071 A 
ATOM     11  C   UNL     1       5.875  -1.213  -0.614  1.00  0.00     0.002 A 
ATOM     12  C   UNL     1       5.960   1.045  -1.261  1.00  0.00     0.030 A 
ATOM     13  C   UNL     1       7.149  -1.422  -1.108  1.00  0.00     0.030 A 
ATOM     14  C   UNL     1       7.226   0.855  -1.758  1.00  0.00     0.023 A 
ATOM     15  C   UNL     1       7.860  -0.382  -1.697  1.00  0.00     0.041 A 
ATOM     16  Cl  UNL     1       9.471  -0.620  -2.330  1.00  0.00    -0.084 Cl
ENDBRANCH   3   6
ENDBRANCH   1   2
BRANCH   1  17
ATOM     17  C   UNL     1      -0.986  -0.010   0.735  1.00  0.00     0.242 C 
ATOM     18  O   UNL     1      -0.600  -0.783  -0.199  1.00  0.00    -0.273 OA
BRANCH  17  19
ATOM     19  N   UNL     1      -2.337   0.040   1.174  1.00  0.00    -0.334 N 
ATOM     20  C   UNL     1      -2.873   0.883   2.225  1.00  0.00     0.120 C 
ATOM     21  C   UNL     1      -3.458  -0.757   0.648  1.00  0.00     0.115 C 
ATOM     22  C   UNL     1      -4.265   0.367   2.514  1.00  0.00     0.024 C 
ATOM     23  C   UNL     1      -4.194  -1.030   1.939  1.00  0.00     0.032 C 
BRANCH  21  24
ATOM     24  C   UNL     1      -4.245   0.001  -0.340  1.00  0.00    -0.025 A 
ATOM     25  C   UNL     1      -3.608   0.728  -1.321  1.00  0.00     0.007 A 
ATOM     26  C   UNL     1      -5.638   0.019  -0.334  1.00  0.00     0.007 A 
ATOM     27  C   UNL     1      -4.303   1.462  -2.280  1.00  0.00     0.021 A 
ATOM     28  C   UNL     1      -6.365   0.735  -1.269  1.00  0.00     0.021 A 
ATOM     29  C   UNL     1      -5.679   1.447  -2.230  1.00  0.00     0.041 A 
ATOM     30  Cl  UNL     1      -6.546   2.380  -3.450  1.00  0.00    -0.084 Cl
ENDBRANCH  21  24
ENDBRANCH  17  19
ENDBRANCH   1  17
TORSDOF 5
