REMARK SMILES O=C(NCC(=O)N1CCCC[C@@H]1c1ccc(Br)cc1)c1ccc2ccccc2n1
REMARK SMILES IDX 5 1 6 2 4 3 3 4 2 5 1 6 20 8 21 9 29 10 22 11 28 12 23 13
REMARK SMILES IDX 27 14 24 15 26 16 25 17 7 18 8 19 12 20 9 21 11 22 10 23
REMARK SMILES IDX 13 24 14 25 19 26 15 27 18 28 16 29 17 30
REMARK H PARENT 3 7
ROOT
ATOM      1  C   UNL     1      -0.764  -1.144  -0.353  1.00  0.00     0.242 C 
ATOM      2  O   UNL     1       0.040  -1.402  -1.267  1.00  0.00    -0.273 OA
ENDROOT
BRANCH   1   3
ATOM      3  C   UNL     1      -0.361  -0.547   0.960  1.00  0.00     0.216 C 
BRANCH   3   4
ATOM      4  N   UNL     1       1.064  -0.330   0.983  1.00  0.00    -0.342 N 
ATOM      5  C   UNL     1       1.619   0.543  -0.009  1.00  0.00     0.270 C 
ATOM      6  O   UNL     1       0.837   1.073  -0.844  1.00  0.00    -0.268 OA
ATOM      7  H   UNL     1       1.720  -0.762   1.668  1.00  0.00     0.164 HD
BRANCH   5   8
ATOM      8  C   UNL     1       3.052   0.803  -0.039  1.00  0.00     0.128 A 
ATOM      9  C   UNL     1       3.551   1.647  -1.004  1.00  0.00     0.035 A 
ATOM     10  N   UNL     1       3.911   0.264   0.824  1.00  0.00    -0.243 NA
ATOM     11  C   UNL     1       4.887   1.955  -1.117  1.00  0.00     0.013 A 
ATOM     12  C   UNL     1       5.231   0.528   0.765  1.00  0.00     0.071 A 
ATOM     13  C   UNL     1       5.745   1.380  -0.207  1.00  0.00     0.000 A 
ATOM     14  C   UNL     1       6.124  -0.034   1.664  1.00  0.00     0.029 A 
ATOM     15  C   UNL     1       7.082   1.659  -0.283  1.00  0.00     0.010 A 
ATOM     16  C   UNL     1       7.482   0.255   1.581  1.00  0.00     0.002 A 
ATOM     17  C   UNL     1       7.971   1.115   0.593  1.00  0.00     0.001 A 
ENDBRANCH   5   8
ENDBRANCH   3   4
ENDBRANCH   1   3
BRANCH   1  18
ATOM     18  N   UNL     1      -2.138  -1.439  -0.586  1.00  0.00    -0.334 N 
ATOM     19  C   UNL     1      -2.465  -2.018  -1.881  1.00  0.00     0.120 C 
ATOM     20  C   UNL     1      -3.140  -1.168   0.428  1.00  0.00     0.115 C 
ATOM     21  C   UNL     1      -3.761  -2.757  -1.908  1.00  0.00     0.022 C 
ATOM     22  C   UNL     1      -4.369  -2.008   0.306  1.00  0.00     0.030 C 
ATOM     23  C   UNL     1      -3.993  -3.268  -0.480  1.00  0.00     0.004 C 
BRANCH  20  24
ATOM     24  C   UNL     1      -3.525   0.268   0.438  1.00  0.00    -0.025 A 
ATOM     25  C   UNL     1      -3.787   0.980  -0.712  1.00  0.00     0.007 A 
ATOM     26  C   UNL     1      -3.643   0.977   1.635  1.00  0.00     0.007 A 
ATOM     27  C   UNL     1      -4.144   2.310  -0.705  1.00  0.00     0.016 A 
ATOM     28  C   UNL     1      -3.998   2.307   1.670  1.00  0.00     0.016 A 
ATOM     29  C   UNL     1      -4.252   2.987   0.492  1.00  0.00     0.017 A 
ATOM     30  Br  UNL     1      -4.744   4.835   0.569  1.00  0.00    -0.051 Br
ENDBRANCH  20  24
ENDBRANCH   1  18
TORSDOF 5
