REMARK SMILES O=C(NCC(=O)N1CCCC[C@H]1C1CCCCC1)c1ccc2cc(Cl)ccc2n1
REMARK SMILES IDX 4 1 3 2 2 3 1 4 19 6 20 7 29 8 21 9 28 10 22 11 27 12 23 13
REMARK SMILES IDX 26 14 24 15 25 16 5 17 6 18 7 19 8 20 12 21 9 22 11 23 10 24
REMARK SMILES IDX 13 25 14 26 18 27 15 28 17 29 16 30
REMARK H PARENT 3 5
ROOT
ATOM      1  C   UNL     1       0.822   0.075   2.002  1.00  0.00     0.216 C 
ENDROOT
BRANCH   1   2
ATOM      2  N   UNL     1       2.041   0.240   1.274  1.00  0.00    -0.342 N 
ATOM      3  C   UNL     1       2.506  -0.824   0.429  1.00  0.00     0.270 C 
ATOM      4  O   UNL     1       1.845  -1.911   0.321  1.00  0.00    -0.268 OA
ATOM      5  H   UNL     1       2.614   1.106   1.328  1.00  0.00     0.164 HD
BRANCH   3   6
ATOM      6  C   UNL     1       3.766  -0.633  -0.313  1.00  0.00     0.128 A 
ATOM      7  C   UNL     1       4.204  -1.662  -1.123  1.00  0.00     0.035 A 
ATOM      8  N   UNL     1       4.484   0.502  -0.220  1.00  0.00    -0.243 NA
ATOM      9  C   UNL     1       5.365  -1.589  -1.859  1.00  0.00     0.013 A 
ATOM     10  C   UNL     1       5.637   0.618  -0.929  1.00  0.00     0.071 A 
ATOM     11  C   UNL     1       6.091  -0.405  -1.746  1.00  0.00     0.002 A 
ATOM     12  C   UNL     1       6.363   1.777  -0.829  1.00  0.00     0.030 A 
ATOM     13  C   UNL     1       7.258  -0.290  -2.465  1.00  0.00     0.030 A 
ATOM     14  C   UNL     1       7.539   1.899  -1.551  1.00  0.00     0.023 A 
ATOM     15  C   UNL     1       7.990   0.872  -2.368  1.00  0.00     0.041 A 
ATOM     16  Cl  UNL     1       9.480   1.051  -3.269  1.00  0.00    -0.084 Cl
ENDBRANCH   3   6
ENDBRANCH   1   2
BRANCH   1  17
ATOM     17  C   UNL     1      -0.347  -0.160   1.104  1.00  0.00     0.242 C 
ATOM     18  O   UNL     1      -0.097  -0.178  -0.125  1.00  0.00    -0.273 OA
BRANCH  17  19
ATOM     19  N   UNL     1      -1.625  -0.342   1.678  1.00  0.00    -0.338 N 
ATOM     20  C   UNL     1      -1.740  -0.291   3.151  1.00  0.00     0.120 C 
ATOM     21  C   UNL     1      -2.852  -0.577   0.968  1.00  0.00     0.088 C 
ATOM     22  C   UNL     1      -2.898  -1.211   3.552  1.00  0.00     0.022 C 
ATOM     23  C   UNL     1      -3.924   0.168   1.738  1.00  0.00     0.025 C 
ATOM     24  C   UNL     1      -4.204  -0.675   2.991  1.00  0.00     0.004 C 
BRANCH  21  25
ATOM     25  C   UNL     1      -2.838  -0.325  -0.490  1.00  0.00     0.012 C 
ATOM     26  C   UNL     1      -2.554   1.093  -0.904  1.00  0.00     0.006 C 
ATOM     27  C   UNL     1      -4.125  -0.823  -1.105  1.00  0.00     0.006 C 
ATOM     28  C   UNL     1      -3.815   1.829  -1.309  1.00  0.00     0.000 C 
ATOM     29  C   UNL     1      -4.219  -0.339  -2.539  1.00  0.00     0.000 C 
ATOM     30  C   UNL     1      -4.516   1.143  -2.458  1.00  0.00     0.000 C 
ENDBRANCH  21  25
ENDBRANCH  17  19
ENDBRANCH   1  17
TORSDOF 5
