REMARK SMILES O=C(NCC(=O)N1CCCC[C@@H]1C1CCCCC1)c1ccc2cc(Cl)ccc2n1
REMARK SMILES IDX 4 1 3 2 2 3 1 4 19 6 20 7 29 8 21 9 28 10 22 11 27 12 23 13
REMARK SMILES IDX 26 14 24 15 25 16 5 17 6 18 7 19 8 20 12 21 9 22 11 23 10 24
REMARK SMILES IDX 13 25 14 26 18 27 15 28 17 29 16 30
REMARK H PARENT 3 5
ROOT
ATOM      1  C   UNL     1       0.406  -0.006  -1.625  1.00  0.00     0.216 C 
ENDROOT
BRANCH   1   2
ATOM      2  N   UNL     1       1.739   0.199  -1.066  1.00  0.00    -0.342 N 
ATOM      3  C   UNL     1       2.453  -0.868  -0.496  1.00  0.00     0.270 C 
ATOM      4  O   UNL     1       2.003  -2.060  -0.427  1.00  0.00    -0.268 OA
ATOM      5  H   UNL     1       2.207   1.145  -1.070  1.00  0.00     0.164 HD
BRANCH   3   6
ATOM      6  C   UNL     1       3.797  -0.627   0.061  1.00  0.00     0.128 A 
ATOM      7  C   UNL     1       4.537  -1.636   0.629  1.00  0.00     0.035 A 
ATOM      8  N   UNL     1       4.348   0.613   0.027  1.00  0.00    -0.243 NA
ATOM      9  C   UNL     1       5.796  -1.445   1.158  1.00  0.00     0.013 A 
ATOM     10  C   UNL     1       5.587   0.839   0.539  1.00  0.00     0.071 A 
ATOM     11  C   UNL     1       6.326  -0.166   1.106  1.00  0.00     0.002 A 
ATOM     12  C   UNL     1       6.149   2.109   0.503  1.00  0.00     0.030 A 
ATOM     13  C   UNL     1       7.586   0.014   1.638  1.00  0.00     0.030 A 
ATOM     14  C   UNL     1       7.411   2.321   1.029  1.00  0.00     0.023 A 
ATOM     15  C   UNL     1       8.143   1.286   1.599  1.00  0.00     0.041 A 
ATOM     16  Cl  UNL     1       9.743   1.536   2.270  1.00  0.00    -0.084 Cl
ENDBRANCH   3   6
ENDBRANCH   1   2
BRANCH   1  17
ATOM     17  C   UNL     1      -0.499  -0.504  -0.561  1.00  0.00     0.242 C 
ATOM     18  O   UNL     1       0.023  -0.655   0.591  1.00  0.00    -0.273 OA
BRANCH  17  19
ATOM     19  N   UNL     1      -1.869  -0.794  -0.817  1.00  0.00    -0.338 N 
ATOM     20  C   UNL     1      -2.405  -0.600  -2.158  1.00  0.00     0.120 C 
ATOM     21  C   UNL     1      -2.712  -1.270   0.227  1.00  0.00     0.088 C 
ATOM     22  C   UNL     1      -3.378  -1.641  -2.584  1.00  0.00     0.022 C 
ATOM     23  C   UNL     1      -3.667  -2.354  -0.198  1.00  0.00     0.025 C 
ATOM     24  C   UNL     1      -3.470  -2.786  -1.626  1.00  0.00     0.004 C 
BRANCH  21  25
ATOM     25  C   UNL     1      -3.491  -0.223   0.967  1.00  0.00     0.012 C 
ATOM     26  C   UNL     1      -4.429   0.594   0.170  1.00  0.00     0.006 C 
ATOM     27  C   UNL     1      -2.604   0.715   1.782  1.00  0.00     0.006 C 
ATOM     28  C   UNL     1      -3.923   2.015  -0.024  1.00  0.00     0.000 C 
ATOM     29  C   UNL     1      -3.571   1.745   2.379  1.00  0.00     0.000 C 
ATOM     30  C   UNL     1      -4.022   2.710   1.314  1.00  0.00     0.000 C 
ENDBRANCH  21  25
ENDBRANCH  17  19
ENDBRANCH   1  17
TORSDOF 5
