REMARK SMILES CN(CCCc1ccccn1)C(=O)CNC(=O)c1ccc2cc(Cl)ccc2n1
REMARK SMILES IDX 1 1 2 2 3 3 4 4 5 5 6 6 7 7 11 8 8 9 10 10 9 11 12 12 13 13
REMARK SMILES IDX 14 14 15 15 16 16 17 18 18 19 19 20 28 21 20 22 27 23 21 24
REMARK SMILES IDX 26 25 22 26 25 27 23 28 24 29
REMARK H PARENT 15 17
ROOT
ATOM      1  C   UNL     1      -2.366  -1.686  -1.216  1.00  0.00     0.146 C 
ATOM      2  N   UNL     1      -1.923  -0.432  -0.720  1.00  0.00    -0.344 N 
ENDROOT
BRANCH   2   3
ATOM      3  C   UNL     1      -2.673   0.784  -0.533  1.00  0.00     0.119 C 
BRANCH   3   4
ATOM      4  C   UNL     1      -3.179   0.864   0.873  1.00  0.00     0.028 C 
BRANCH   4   5
ATOM      5  C   UNL     1      -4.180  -0.214   1.154  1.00  0.00     0.058 C 
BRANCH   5   6
ATOM      6  C   UNL     1      -5.368   0.008   0.299  1.00  0.00     0.040 A 
ATOM      7  C   UNL     1      -6.368   0.820   0.861  1.00  0.00     0.024 A 
ATOM      8  N   UNL     1      -5.598  -0.459  -0.909  1.00  0.00    -0.261 NA
ATOM      9  C   UNL     1      -7.526   1.106   0.171  1.00  0.00     0.003 A 
ATOM     10  C   UNL     1      -6.703  -0.218  -1.634  1.00  0.00     0.111 A 
ATOM     11  C   UNL     1      -7.689   0.579  -1.088  1.00  0.00     0.020 A 
ENDBRANCH   5   6
ENDBRANCH   4   5
ENDBRANCH   3   4
ENDBRANCH   2   3
BRANCH   2  12
ATOM     12  C   UNL     1      -0.512  -0.341  -0.382  1.00  0.00     0.241 C 
ATOM     13  O   UNL     1      -0.007   0.715   0.065  1.00  0.00    -0.273 OA
BRANCH  12  14
ATOM     14  C   UNL     1       0.401  -1.501  -0.552  1.00  0.00     0.216 C 
BRANCH  14  15
ATOM     15  N   UNL     1       1.755  -1.161  -0.142  1.00  0.00    -0.342 N 
ATOM     16  C   UNL     1       2.456  -0.110  -0.789  1.00  0.00     0.270 C 
ATOM     17  H   UNL     1       2.259  -1.665   0.628  1.00  0.00     0.164 HD
ATOM     18  O   UNL     1       1.921   0.557  -1.736  1.00  0.00    -0.268 OA
BRANCH  16  19
ATOM     19  C   UNL     1       3.815   0.218  -0.366  1.00  0.00     0.128 A 
ATOM     20  C   UNL     1       4.512   1.237  -0.983  1.00  0.00     0.035 A 
ATOM     21  N   UNL     1       4.407  -0.468   0.632  1.00  0.00    -0.243 NA
ATOM     22  C   UNL     1       5.803   1.522  -0.555  1.00  0.00     0.013 A 
ATOM     23  C   UNL     1       5.654  -0.225   1.077  1.00  0.00     0.071 A 
ATOM     24  C   UNL     1       6.370   0.791   0.473  1.00  0.00     0.002 A 
ATOM     25  C   UNL     1       6.166  -0.989   2.107  1.00  0.00     0.030 A 
ATOM     26  C   UNL     1       7.645   1.020   0.947  1.00  0.00     0.030 A 
ATOM     27  C   UNL     1       7.446  -0.725   2.549  1.00  0.00     0.023 A 
ATOM     28  C   UNL     1       8.197   0.281   1.974  1.00  0.00     0.041 A 
ATOM     29  Cl  UNL     1       9.804   0.553   2.589  1.00  0.00    -0.084 Cl
ENDBRANCH  16  19
ENDBRANCH  14  15
ENDBRANCH  12  14
ENDBRANCH   2  12
TORSDOF 8
