REMARK SMILES O=C(NCC(=O)N1C[C@@H](O)C[C@H]1c1ccccc1)c1ccc2cc(Cl)ccc2n1
REMARK SMILES IDX 4 1 3 2 2 3 1 4 19 6 20 7 29 8 21 9 28 10 22 11 27 12 23 13
REMARK SMILES IDX 26 14 24 15 25 16 5 17 6 18 7 19 8 20 12 21 9 22 11 23 13 24
REMARK SMILES IDX 14 25 18 26 15 27 17 28 16 29 10 30
REMARK H PARENT 3 5 10 31
ROOT
ATOM      1  C   UNL     1       0.029   1.871   0.691  1.00  0.00     0.216 C 
ENDROOT
BRANCH   1   2
ATOM      2  N   UNL     1       1.245   1.130   0.589  1.00  0.00    -0.342 N 
ATOM      3  C   UNL     1       1.613   0.500  -0.627  1.00  0.00     0.270 C 
ATOM      4  O   UNL     1       0.872   0.580  -1.656  1.00  0.00    -0.268 OA
ATOM      5  H   UNL     1       1.913   1.021   1.409  1.00  0.00     0.164 HD
BRANCH   3   6
ATOM      6  C   UNL     1       2.862  -0.250  -0.698  1.00  0.00     0.128 A 
ATOM      7  C   UNL     1       3.251  -0.874  -1.864  1.00  0.00     0.035 A 
ATOM      8  N   UNL     1       3.669  -0.346   0.397  1.00  0.00    -0.243 NA
ATOM      9  C   UNL     1       4.439  -1.586  -1.923  1.00  0.00     0.013 A 
ATOM     10  C   UNL     1       4.824  -1.027   0.371  1.00  0.00     0.071 A 
ATOM     11  C   UNL     1       5.240  -1.661  -0.780  1.00  0.00     0.002 A 
ATOM     12  C   UNL     1       5.593  -1.080   1.527  1.00  0.00     0.030 A 
ATOM     13  C   UNL     1       6.427  -2.347  -0.766  1.00  0.00     0.030 A 
ATOM     14  C   UNL     1       6.790  -1.765   1.561  1.00  0.00     0.023 A 
ATOM     15  C   UNL     1       7.188  -2.394   0.396  1.00  0.00     0.041 A 
ATOM     16  Cl  UNL     1       8.716  -3.262   0.455  1.00  0.00    -0.084 Cl
ENDBRANCH   3   6
ENDBRANCH   1   2
BRANCH   1  17
ATOM     17  C   UNL     1      -1.179   1.036   0.410  1.00  0.00     0.242 C 
ATOM     18  O   UNL     1      -0.967  -0.167   0.131  1.00  0.00    -0.273 OA
BRANCH  17  19
ATOM     19  N   UNL     1      -2.446   1.653   0.479  1.00  0.00    -0.331 N 
ATOM     20  C   UNL     1      -2.712   3.082   0.790  1.00  0.00     0.152 C 
ATOM     21  C   UNL     1      -3.786   1.132   0.268  1.00  0.00     0.118 C 
ATOM     22  C   UNL     1      -3.616   3.378  -0.398  1.00  0.00     0.136 C 
ATOM     23  C   UNL     1      -4.208   2.039  -0.851  1.00  0.00     0.063 C 
BRANCH  21  24
ATOM     24  C   UNL     1      -3.903  -0.291   0.045  1.00  0.00    -0.025 A 
ATOM     25  C   UNL     1      -3.384  -1.192   0.943  1.00  0.00     0.006 A 
ATOM     26  C   UNL     1      -4.534  -0.770  -1.090  1.00  0.00     0.006 A 
ATOM     27  C   UNL     1      -3.504  -2.562   0.689  1.00  0.00     0.000 A 
ATOM     28  C   UNL     1      -4.662  -2.121  -1.355  1.00  0.00     0.000 A 
ATOM     29  C   UNL     1      -4.141  -3.021  -0.455  1.00  0.00     0.000 A 
ENDBRANCH  21  24
BRANCH  22  30
ATOM     30  O   UNL     1      -2.741   3.851  -1.403  1.00  0.00    -0.391 OA
ATOM     31  H   UNL     1      -2.317   3.099  -1.885  1.00  0.00     0.211 HD
ENDBRANCH  22  30
ENDBRANCH  17  19
ENDBRANCH   1  17
TORSDOF 6
