REMARK SMILES O=C(NCC(=O)N1CC[C@H](c2ccc(Cl)cc2)C1)c1ccc2cc(F)ccc2n1
REMARK SMILES IDX 4 1 3 2 2 3 1 4 19 6 20 7 29 8 21 9 28 10 22 11 27 12 23 13
REMARK SMILES IDX 26 14 24 15 25 16 5 17 6 18 7 19 8 20 18 21 9 22 10 23 11 24
REMARK SMILES IDX 12 25 17 26 13 27 16 28 14 29 15 30
REMARK H PARENT 3 5
ROOT
ATOM      1  C   UNL     1      -0.127  -0.600   0.884  1.00  0.00     0.216 C 
ENDROOT
BRANCH   1   2
ATOM      2  N   UNL     1      -1.566  -0.507   0.718  1.00  0.00    -0.342 N 
ATOM      3  C   UNL     1      -2.082   0.491  -0.155  1.00  0.00     0.270 C 
ATOM      4  O   UNL     1      -1.335   1.296  -0.790  1.00  0.00    -0.268 OA
ATOM      5  H   UNL     1      -2.176  -1.175   1.245  1.00  0.00     0.164 HD
BRANCH   3   6
ATOM      6  C   UNL     1      -3.545   0.565  -0.307  1.00  0.00     0.128 A 
ATOM      7  C   UNL     1      -4.082   1.523  -1.148  1.00  0.00     0.035 A 
ATOM      8  N   UNL     1      -4.374  -0.272   0.350  1.00  0.00    -0.243 NA
ATOM      9  C   UNL     1      -5.435   1.672  -1.355  1.00  0.00     0.013 A 
ATOM     10  C   UNL     1      -5.720  -0.163   0.176  1.00  0.00     0.071 A 
ATOM     11  C   UNL     1      -6.268   0.793  -0.664  1.00  0.00     0.003 A 
ATOM     12  C   UNL     1      -6.582  -1.011   0.839  1.00  0.00     0.032 A 
ATOM     13  C   UNL     1      -7.626   0.928  -0.861  1.00  0.00     0.049 A 
ATOM     14  C   UNL     1      -7.960  -0.896   0.658  1.00  0.00     0.041 A 
ATOM     15  C   UNL     1      -8.482   0.071  -0.190  1.00  0.00     0.123 A 
ATOM     16  F   UNL     1      -9.828   0.173  -0.357  1.00  0.00    -0.207 F 
ENDBRANCH   3   6
ENDBRANCH   1   2
BRANCH   1  17
ATOM     17  C   UNL     1       0.447  -0.880  -0.459  1.00  0.00     0.241 C 
ATOM     18  O   UNL     1      -0.249  -1.000  -1.498  1.00  0.00    -0.273 OA
BRANCH  17  19
ATOM     19  N   UNL     1       1.857  -1.022  -0.590  1.00  0.00    -0.341 N 
ATOM     20  C   UNL     1       2.601  -1.294  -1.805  1.00  0.00     0.120 C 
ATOM     21  C   UNL     1       2.869  -0.927   0.456  1.00  0.00     0.128 C 
ATOM     22  C   UNL     1       3.994  -0.696  -1.571  1.00  0.00     0.032 C 
ATOM     23  C   UNL     1       3.829   0.020  -0.257  1.00  0.00     0.040 C 
BRANCH  23  24
ATOM     24  C   UNL     1       5.055   0.294   0.471  1.00  0.00    -0.043 A 
ATOM     25  C   UNL     1       5.350   1.616   0.793  1.00  0.00     0.005 A 
ATOM     26  C   UNL     1       5.889  -0.720   0.827  1.00  0.00     0.005 A 
ATOM     27  C   UNL     1       6.497   1.933   1.482  1.00  0.00     0.021 A 
ATOM     28  C   UNL     1       7.050  -0.415   1.522  1.00  0.00     0.021 A 
ATOM     29  C   UNL     1       7.347   0.896   1.844  1.00  0.00     0.041 A 
ATOM     30  Cl  UNL     1       8.816   1.291   2.725  1.00  0.00    -0.084 Cl
ENDBRANCH  23  24
ENDBRANCH  17  19
ENDBRANCH   1  17
TORSDOF 5
