REMARK SMILES CN(CCNC(=O)c1ccc2cc(Cl)ccc2n1)C(=O)[C@H]1CCCN1
REMARK SMILES IDX 3 1 2 2 1 3 19 4 20 5 21 6 22 7 25 8 23 9 24 10 4 12 5 13
REMARK SMILES IDX 6 14 7 16 8 17 9 18 18 19 10 20 17 21 11 22 16 23 12 24
REMARK SMILES IDX 15 25 13 26 14 27
REMARK H PARENT 25 11 5 15
ROOT
ATOM      1  C   UNL     1      -1.662  -1.001   1.330  1.00  0.00     0.140 C 
ENDROOT
BRANCH   1   2
ATOM      2  N   UNL     1      -1.818   0.411   1.251  1.00  0.00    -0.343 N 
ATOM      3  C   UNL     1      -0.917   1.263   2.072  1.00  0.00     0.146 C 
BRANCH   2   4
ATOM      4  C   UNL     1      -2.790   1.121   0.514  1.00  0.00     0.239 C 
ATOM      5  O   UNL     1      -2.788   2.378   0.632  1.00  0.00    -0.273 OA
BRANCH   4   6
ATOM      6  C   UNL     1      -3.804   0.535  -0.382  1.00  0.00     0.144 C 
ATOM      7  C   UNL     1      -4.719  -0.457   0.274  1.00  0.00     0.030 C 
ATOM      8  N   UNL     1      -4.607   1.565  -1.014  1.00  0.00    -0.306 NA
ATOM      9  C   UNL     1      -6.078  -0.118  -0.290  1.00  0.00     0.017 C 
ATOM     10  C   UNL     1      -5.959   1.374  -0.523  1.00  0.00     0.082 C 
ATOM     11  H   UNL     1      -4.638   1.486  -2.049  1.00  0.00     0.123 HD
ENDBRANCH   4   6
ENDBRANCH   2   4
ENDBRANCH   1   2
BRANCH   1  12
ATOM     12  C   UNL     1      -0.860  -1.662   0.271  1.00  0.00     0.137 C 
BRANCH  12  13
ATOM     13  N   UNL     1       0.478  -1.266   0.053  1.00  0.00    -0.349 N 
ATOM     14  C   UNL     1       0.938  -0.019  -0.434  1.00  0.00     0.269 C 
ATOM     15  H   UNL     1       1.260  -1.966   0.273  1.00  0.00     0.163 HD
ATOM     16  O   UNL     1       0.184   0.923  -0.764  1.00  0.00    -0.268 OA
BRANCH  14  17
ATOM     17  C   UNL     1       2.387   0.239  -0.580  1.00  0.00     0.128 A 
ATOM     18  C   UNL     1       2.893   1.412  -1.041  1.00  0.00     0.035 A 
ATOM     19  N   UNL     1       3.289  -0.730  -0.245  1.00  0.00    -0.243 NA
ATOM     20  C   UNL     1       4.245   1.651  -1.178  1.00  0.00     0.013 A 
ATOM     21  C   UNL     1       4.616  -0.549  -0.359  1.00  0.00     0.071 A 
ATOM     22  C   UNL     1       5.136   0.644  -0.827  1.00  0.00     0.002 A 
ATOM     23  C   UNL     1       5.492  -1.578   0.000  1.00  0.00     0.030 A 
ATOM     24  C   UNL     1       6.495   0.851  -0.952  1.00  0.00     0.030 A 
ATOM     25  C   UNL     1       6.851  -1.388  -0.118  1.00  0.00     0.023 A 
ATOM     26  C   UNL     1       7.351  -0.180  -0.591  1.00  0.00     0.041 A 
ATOM     27  Cl  UNL     1       9.080  -0.009  -0.715  1.00  0.00    -0.084 Cl
ENDBRANCH  14  17
ENDBRANCH  12  13
ENDBRANCH   1  12
TORSDOF 6
