REMARK SMILES O=C(NCC(=O)N1C[C@H](O)C[C@H]1COc1ccc(Cl)cc1)c1ccc2ccccc2n1
REMARK SMILES IDX 7 1 8 2 9 3 11 4 12 5 5 6 6 7 4 8 3 9 2 10 1 11 22 13 23 14
REMARK SMILES IDX 31 15 24 16 30 17 25 18 29 19 26 20 28 21 27 22 13 23 14 24
REMARK SMILES IDX 15 25 16 26 21 27 17 28 20 29 18 30 19 31 10 32
REMARK H PARENT 3 12 10 33
ROOT
ATOM      1  N   UNL     1      -1.747  -2.741   0.119  1.00  0.00    -0.332 N 
ATOM      2  C   UNL     1      -1.737  -4.108   0.677  1.00  0.00     0.151 C 
ATOM      3  C   UNL     1      -2.813  -3.951   1.733  1.00  0.00     0.136 C 
ATOM      4  C   UNL     1      -3.719  -2.828   1.271  1.00  0.00     0.062 C 
ATOM      5  C   UNL     1      -3.155  -2.452  -0.074  1.00  0.00     0.125 C 
ENDROOT
BRANCH   1   6
ATOM      6  C   UNL     1      -0.614  -1.922  -0.154  1.00  0.00     0.242 C 
ATOM      7  O   UNL     1      -0.697  -0.761  -0.632  1.00  0.00    -0.273 OA
BRANCH   6   8
ATOM      8  C   UNL     1       0.736  -2.468   0.141  1.00  0.00     0.216 C 
BRANCH   8   9
ATOM      9  N   UNL     1       1.789  -1.555  -0.175  1.00  0.00    -0.342 N 
ATOM     10  C   UNL     1       1.793  -0.290   0.501  1.00  0.00     0.270 C 
ATOM     11  O   UNL     1       0.895  -0.002   1.342  1.00  0.00    -0.268 OA
ATOM     12  H   UNL     1       2.554  -1.740  -0.860  1.00  0.00     0.164 HD
BRANCH  10  13
ATOM     13  C   UNL     1       2.844   0.676   0.214  1.00  0.00     0.128 A 
ATOM     14  C   UNL     1       2.870   1.888   0.845  1.00  0.00     0.035 A 
ATOM     15  N   UNL     1       3.826   0.415  -0.677  1.00  0.00    -0.243 NA
ATOM     16  C   UNL     1       3.851   2.838   0.604  1.00  0.00     0.013 A 
ATOM     17  C   UNL     1       4.801   1.293  -0.953  1.00  0.00     0.071 A 
ATOM     18  C   UNL     1       4.843   2.522  -0.326  1.00  0.00     0.000 A 
ATOM     19  C   UNL     1       5.769   0.955  -1.875  1.00  0.00     0.029 A 
ATOM     20  C   UNL     1       5.860   3.402  -0.632  1.00  0.00     0.010 A 
ATOM     21  C   UNL     1       6.806   1.824  -2.202  1.00  0.00     0.002 A 
ATOM     22  C   UNL     1       6.828   3.063  -1.554  1.00  0.00     0.001 A 
ENDBRANCH  10  13
ENDBRANCH   8   9
ENDBRANCH   6   8
ENDBRANCH   1   6
BRANCH   5  23
ATOM     23  C   UNL     1      -3.424  -1.040  -0.465  1.00  0.00     0.254 C 
BRANCH  23  24
ATOM     24  O   UNL     1      -3.000  -0.088   0.456  1.00  0.00    -0.491 OA
BRANCH  24  25
ATOM     25  C   UNL     1      -3.224   1.256   0.145  1.00  0.00     0.119 A 
ATOM     26  C   UNL     1      -2.818   2.252   1.033  1.00  0.00     0.048 A 
ATOM     27  C   UNL     1      -3.841   1.658  -1.022  1.00  0.00     0.048 A 
ATOM     28  C   UNL     1      -3.031   3.601   0.746  1.00  0.00     0.024 A 
ATOM     29  C   UNL     1      -4.068   2.980  -1.342  1.00  0.00     0.024 A 
ATOM     30  C   UNL     1      -3.655   3.942  -0.443  1.00  0.00     0.041 A 
ATOM     31  Cl  UNL     1      -3.958   5.620  -0.875  1.00  0.00    -0.084 Cl
ENDBRANCH  24  25
ENDBRANCH  23  24
ENDBRANCH   5  23
BRANCH   3  32
ATOM     32  O   UNL     1      -3.559  -5.138   1.878  1.00  0.00    -0.391 OA
ATOM     33  H   UNL     1      -3.058  -5.832   1.383  1.00  0.00     0.211 HD
ENDBRANCH   3  32
TORSDOF 8
