REMARK SMILES O=C(NCC(=O)N1CCCC[C@@H]1c1ccccc1)c1ccc2ccccc2n1
REMARK SMILES IDX 4 1 3 2 2 3 1 4 19 6 20 7 28 8 21 9 27 10 22 11 26 12 23 13
REMARK SMILES IDX 25 14 24 15 5 16 6 17 7 18 8 19 12 20 9 21 11 22 10 23 13 24
REMARK SMILES IDX 14 25 18 26 15 27 17 28 16 29
REMARK H PARENT 3 5
ROOT
ATOM      1  C   UNL     1      -0.242   2.033  -1.463  1.00  0.00     0.216 C 
ENDROOT
BRANCH   1   2
ATOM      2  N   UNL     1       1.004   1.397  -1.258  1.00  0.00    -0.342 N 
ATOM      3  C   UNL     1       1.718   1.558  -0.011  1.00  0.00     0.270 C 
ATOM      4  O   UNL     1       1.266   2.264   0.926  1.00  0.00    -0.268 OA
ATOM      5  H   UNL     1       1.447   0.789  -2.004  1.00  0.00     0.164 HD
BRANCH   3   6
ATOM      6  C   UNL     1       3.009   0.858   0.128  1.00  0.00     0.128 A 
ATOM      7  C   UNL     1       3.709   0.996   1.307  1.00  0.00     0.035 A 
ATOM      8  N   UNL     1       3.533   0.100  -0.829  1.00  0.00    -0.243 NA
ATOM      9  C   UNL     1       4.922   0.390   1.548  1.00  0.00     0.013 A 
ATOM     10  C   UNL     1       4.727  -0.516  -0.633  1.00  0.00     0.071 A 
ATOM     11  C   UNL     1       5.443  -0.390   0.539  1.00  0.00     0.000 A 
ATOM     12  C   UNL     1       5.289  -1.311  -1.620  1.00  0.00     0.029 A 
ATOM     13  C   UNL     1       6.655  -1.005   0.760  1.00  0.00     0.010 A 
ATOM     14  C   UNL     1       6.497  -1.930  -1.415  1.00  0.00     0.002 A 
ATOM     15  C   UNL     1       7.201  -1.793  -0.232  1.00  0.00     0.001 A 
ENDBRANCH   3   6
ENDBRANCH   1   2
BRANCH   1  16
ATOM     16  C   UNL     1      -1.399   1.672  -0.660  1.00  0.00     0.242 C 
ATOM     17  O   UNL     1      -2.451   2.413  -0.888  1.00  0.00    -0.273 OA
BRANCH  16  18
ATOM     18  N   UNL     1      -1.573   0.674   0.302  1.00  0.00    -0.334 N 
ATOM     19  C   UNL     1      -0.638  -0.340   0.686  1.00  0.00     0.120 C 
ATOM     20  C   UNL     1      -2.858   0.681   1.030  1.00  0.00     0.115 C 
ATOM     21  C   UNL     1      -1.271  -1.676   1.055  1.00  0.00     0.022 C 
ATOM     22  C   UNL     1      -2.839  -0.158   2.252  1.00  0.00     0.030 C 
ATOM     23  C   UNL     1      -2.506  -1.563   1.879  1.00  0.00     0.004 C 
BRANCH  20  24
ATOM     24  C   UNL     1      -4.014   0.430   0.178  1.00  0.00    -0.025 A 
ATOM     25  C   UNL     1      -5.175   1.198   0.345  1.00  0.00     0.006 A 
ATOM     26  C   UNL     1      -4.082  -0.522  -0.818  1.00  0.00     0.006 A 
ATOM     27  C   UNL     1      -6.295   1.007  -0.433  1.00  0.00     0.000 A 
ATOM     28  C   UNL     1      -5.202  -0.720  -1.603  1.00  0.00     0.000 A 
ATOM     29  C   UNL     1      -6.332   0.047  -1.421  1.00  0.00     0.000 A 
ENDBRANCH  20  24
ENDBRANCH  16  18
ENDBRANCH   1  16
TORSDOF 5
