REMARK SMILES O=C(NCC(=O)N1CCCC[C@H]1c1ccccc1)c1ccc2ccccc2n1
REMARK SMILES IDX 4 1 3 2 2 3 1 4 19 6 20 7 28 8 21 9 27 10 22 11 26 12 23 13
REMARK SMILES IDX 25 14 24 15 5 16 6 17 7 18 8 19 12 20 9 21 11 22 10 23 13 24
REMARK SMILES IDX 14 25 18 26 15 27 17 28 16 29
REMARK H PARENT 3 5
ROOT
ATOM      1  C   UNL     1      -0.021   0.307   2.527  1.00  0.00     0.216 C 
ENDROOT
BRANCH   1   2
ATOM      2  N   UNL     1       1.180   0.136   1.779  1.00  0.00    -0.342 N 
ATOM      3  C   UNL     1       1.814   1.177   1.022  1.00  0.00     0.270 C 
ATOM      4  O   UNL     1       1.292   2.344   1.004  1.00  0.00    -0.268 OA
ATOM      5  H   UNL     1       1.672  -0.807   1.751  1.00  0.00     0.164 HD
BRANCH   3   6
ATOM      6  C   UNL     1       3.045   0.894   0.280  1.00  0.00     0.128 A 
ATOM      7  C   UNL     1       3.628   1.917  -0.438  1.00  0.00     0.035 A 
ATOM      8  N   UNL     1       3.627  -0.308   0.267  1.00  0.00    -0.243 NA
ATOM      9  C   UNL     1       4.794   1.626  -1.133  1.00  0.00     0.013 A 
ATOM     10  C   UNL     1       4.749  -0.616  -0.392  1.00  0.00     0.071 A 
ATOM     11  C   UNL     1       5.368   0.376  -1.125  1.00  0.00     0.000 A 
ATOM     12  C   UNL     1       5.259  -1.904  -0.329  1.00  0.00     0.029 A 
ATOM     13  C   UNL     1       6.527   0.083  -1.814  1.00  0.00     0.010 A 
ATOM     14  C   UNL     1       6.424  -2.178  -1.029  1.00  0.00     0.002 A 
ATOM     15  C   UNL     1       7.065  -1.193  -1.774  1.00  0.00     0.001 A 
ENDBRANCH   3   6
ENDBRANCH   1   2
BRANCH   1  16
ATOM     16  C   UNL     1      -1.268   0.606   1.867  1.00  0.00     0.242 C 
ATOM     17  O   UNL     1      -2.263   0.844   2.682  1.00  0.00    -0.273 OA
BRANCH  16  18
ATOM     18  N   UNL     1      -1.608   0.683   0.503  1.00  0.00    -0.334 N 
ATOM     19  C   UNL     1      -0.749   0.377  -0.612  1.00  0.00     0.120 C 
ATOM     20  C   UNL     1      -2.959   1.138   0.183  1.00  0.00     0.115 C 
ATOM     21  C   UNL     1      -1.498  -0.133  -1.836  1.00  0.00     0.022 C 
ATOM     22  C   UNL     1      -3.167   1.617  -1.194  1.00  0.00     0.030 C 
ATOM     23  C   UNL     1      -2.444   0.917  -2.287  1.00  0.00     0.004 C 
BRANCH  20  24
ATOM     24  C   UNL     1      -4.011   0.235   0.717  1.00  0.00    -0.025 A 
ATOM     25  C   UNL     1      -5.170   0.754   1.310  1.00  0.00     0.006 A 
ATOM     26  C   UNL     1      -3.931  -1.139   0.677  1.00  0.00     0.006 A 
ATOM     27  C   UNL     1      -6.158  -0.060   1.818  1.00  0.00     0.000 A 
ATOM     28  C   UNL     1      -4.923  -1.968   1.186  1.00  0.00     0.000 A 
ATOM     29  C   UNL     1      -6.052  -1.432   1.764  1.00  0.00     0.000 A 
ENDBRANCH  20  24
ENDBRANCH  16  18
ENDBRANCH   1  16
TORSDOF 5
