REMARK SMILES C=C(F)[C@@](O)(F)CN
REMARK SMILES IDX 4 1 6 2 2 3 1 4 3 5 5 6 7 8 8 9
REMARK H PARENT 5 7 8 10 8 11
ROOT
ATOM      1  C   UNL     1       0.059   0.673  -0.241  1.00  0.00     0.271 C 
ATOM      2  F   UNL     1      -0.465   1.163  -1.398  1.00  0.00    -0.203 F 
ENDROOT
BRANCH   1   3
ATOM      3  C   UNL     1       0.983  -0.456  -0.563  1.00  0.00     0.158 C 
ATOM      4  C   UNL     1       2.240  -0.444  -0.157  1.00  0.00     0.052 C 
ATOM      5  F   UNL     1       0.495  -1.503  -1.290  1.00  0.00    -0.206 F 
ENDBRANCH   1   3
BRANCH   1   6
ATOM      6  O   UNL     1       0.754   1.619   0.495  1.00  0.00    -0.355 OA
ATOM      7  H   UNL     1       0.163   2.378   0.739  1.00  0.00     0.214 HD
ENDBRANCH   1   6
BRANCH   1   8
ATOM      8  C   UNL     1      -1.047   0.068   0.610  1.00  0.00     0.157 C 
BRANCH   8   9
ATOM      9  N   UNL     1      -1.727  -0.911  -0.229  1.00  0.00    -0.325 NA
ATOM     10  H   UNL     1      -2.131  -1.672   0.376  1.00  0.00     0.119 HD
ATOM     11  H   UNL     1      -2.487  -0.456  -0.780  1.00  0.00     0.119 HD
ENDBRANCH   8   9
ENDBRANCH   1   8
TORSDOF 4
