REMARK SMILES C=C(F)[C@](O)(F)CN
REMARK SMILES IDX 4 1 6 2 2 3 1 4 3 5 5 6 7 8 8 9
REMARK H PARENT 5 7 8 10 8 11
ROOT
ATOM      1  C   UNL     1       0.151   0.152  -0.417  1.00  0.00     0.271 C 
ATOM      2  F   UNL     1       0.218   1.515  -0.264  1.00  0.00    -0.203 F 
ENDROOT
BRANCH   1   3
ATOM      3  C   UNL     1       1.319  -0.481   0.271  1.00  0.00     0.158 C 
ATOM      4  C   UNL     1       2.242   0.252   0.857  1.00  0.00     0.052 C 
ATOM      5  F   UNL     1       1.376  -1.834   0.258  1.00  0.00    -0.206 F 
ENDBRANCH   1   3
BRANCH   1   6
ATOM      6  O   UNL     1       0.210  -0.249  -1.745  1.00  0.00    -0.355 OA
ATOM      7  H   UNL     1       0.392   0.586  -2.273  1.00  0.00     0.214 HD
ENDBRANCH   1   6
BRANCH   1   8
ATOM      8  C   UNL     1      -1.109  -0.358   0.260  1.00  0.00     0.157 C 
BRANCH   8   9
ATOM      9  N   UNL     1      -2.291   0.133  -0.392  1.00  0.00    -0.325 NA
ATOM     10  H   UNL     1      -3.102  -0.416  -0.046  1.00  0.00     0.119 HD
ATOM     11  H   UNL     1      -2.444   1.138  -0.228  1.00  0.00     0.119 HD
ENDBRANCH   8   9
ENDBRANCH   1   8
TORSDOF 4
