REMARK SMILES O=C(c1nn2c(C(F)(F)F)cc(C3CC3)cc2c1Cl)N1CCN(CCC(F)(F)F)CC1
REMARK SMILES IDX 1 1 2 2 20 3 21 4 22 5 23 6 30 7 31 8 3 9 4 10 18 11 5 12
REMARK SMILES IDX 17 13 6 14 16 15 11 16 12 17 19 18 7 19 8 20 9 21 10 22
REMARK SMILES IDX 13 23 14 24 15 25 24 26 25 27 26 28 27 29 28 30 29 31
REMARK H PARENT
ROOT
ATOM      1  O   UNL     1      -0.821   1.632   1.395  1.00  0.00    -0.267 OA
ATOM      2  C   UNL     1      -0.657   0.639   0.527  1.00  0.00     0.276 C 
ATOM      3  N   UNL     1      -1.890   0.144   0.109  1.00  0.00    -0.335 N 
ATOM      4  C   UNL     1      -3.051   0.845   0.746  1.00  0.00     0.135 C 
ATOM      5  C   UNL     1      -4.044   1.056  -0.335  1.00  0.00     0.106 C 
ATOM      6  N   UNL     1      -4.605  -0.215  -0.675  1.00  0.00    -0.299 NA
ATOM      7  C   UNL     1      -3.636  -1.152  -1.130  1.00  0.00     0.106 C 
ATOM      8  C   UNL     1      -2.209  -0.898  -0.785  1.00  0.00     0.135 C 
ENDROOT
BRANCH   2   9
ATOM      9  C   UNL     1       0.711   0.360   0.271  1.00  0.00     0.170 A 
ATOM     10  N   UNL     1       1.685   1.183   0.833  1.00  0.00    -0.160 NA
ATOM     11  C   UNL     1       1.440  -0.564  -0.408  1.00  0.00     0.099 A 
ATOM     12  N   UNL     1       2.884   0.769   0.506  1.00  0.00    -0.226 N 
ATOM     13  C   UNL     1       2.817  -0.317  -0.267  1.00  0.00     0.087 A 
ATOM     14  C   UNL     1       4.074   1.281   0.850  1.00  0.00     0.147 A 
ATOM     15  C   UNL     1       3.940  -0.962  -0.748  1.00  0.00     0.034 A 
ATOM     16  C   UNL     1       5.206   0.656   0.382  1.00  0.00     0.037 A 
ATOM     17  C   UNL     1       5.187  -0.468  -0.419  1.00  0.00    -0.041 A 
ATOM     18  Cl  UNL     1       0.865  -1.904  -1.345  1.00  0.00    -0.079 Cl
BRANCH  14  19
ATOM     19  C   UNL     1       4.212   2.495   1.719  1.00  0.00     0.433 C 
ATOM     20  F   UNL     1       3.844   3.584   0.959  1.00  0.00    -0.165 F 
ATOM     21  F   UNL     1       3.355   2.290   2.792  1.00  0.00    -0.165 F 
ATOM     22  F   UNL     1       5.506   2.584   2.178  1.00  0.00    -0.165 F 
ENDBRANCH  14  19
BRANCH  17  23
ATOM     23  C   UNL     1       6.440  -1.116  -0.890  1.00  0.00     0.019 C 
ATOM     24  C   UNL     1       7.630  -0.317  -1.280  1.00  0.00     0.009 C 
ATOM     25  C   UNL     1       7.595  -1.136   0.026  1.00  0.00     0.009 C 
ENDBRANCH  17  23
ENDBRANCH   2   9
BRANCH   6  26
ATOM     26  C   UNL     1      -5.523  -0.799   0.227  1.00  0.00     0.094 C 
BRANCH  26  27
ATOM     27  C   UNL     1      -6.847  -0.161   0.410  1.00  0.00     0.131 C 
BRANCH  27  28
ATOM     28  C   UNL     1      -7.687  -0.080  -0.850  1.00  0.00     0.390 C 
ATOM     29  F   UNL     1      -7.888  -1.397  -1.292  1.00  0.00    -0.171 F 
ATOM     30  F   UNL     1      -8.942   0.410  -0.530  1.00  0.00    -0.171 F 
ATOM     31  F   UNL     1      -7.097   0.579  -1.880  1.00  0.00    -0.171 F 
ENDBRANCH  27  28
ENDBRANCH  26  27
ENDBRANCH   6  26
TORSDOF 6
