REMARK SMILES C[C@H](C(=O)/N=c1\[nH]nc(CCCCc2n[nH]/c(=N\C(=O)[C@H]3COc4ccccc4C3)s2)s1)C(C)(C)CO
REMARK SMILES IDX 6 1 7 2 8 3 9 4 32 5 5 7 3 8 4 9 2 10 1 11 33 12 34 13 35 14
REMARK SMILES IDX 36 15 37 16 10 18 11 19 12 20 13 21 14 22 15 23 31 24 16 25
REMARK SMILES IDX 17 26 18 28 19 29 20 30 21 31 22 32 30 33 23 34 29 35 24 36
REMARK SMILES IDX 28 37 25 38 27 39 26 40
REMARK H PARENT 7 6 37 17 16 27
ROOT
ATOM      1  C   UNL     1       4.771   0.527  -0.710  1.00  0.00     0.208 A 
ATOM      2  N   UNL     1       4.694   0.024  -1.948  1.00  0.00    -0.251 N 
ATOM      3  N   UNL     1       3.546  -0.499  -2.244  1.00  0.00    -0.167 NA
ATOM      4  C   UNL     1       2.572  -0.616  -1.645  1.00  0.00     0.116 A 
ATOM      5  S   UNL     1       3.088   0.198  -0.003  1.00  0.00    -0.080 S 
ATOM      6  H   UNL     1       5.544   0.079  -2.594  1.00  0.00     0.193 HD
ENDROOT
BRANCH   1   7
ATOM      7  N   UNL     1       5.699   1.107  -0.063  1.00  0.00    -0.184 NA
BRANCH   7   8
ATOM      8  C   UNL     1       6.993   1.341  -0.654  1.00  0.00     0.251 C 
ATOM      9  O   UNL     1       7.129   2.468  -1.219  1.00  0.00    -0.272 OA
BRANCH   8  10
ATOM     10  C   UNL     1       8.085   0.366  -0.617  1.00  0.00     0.086 C 
ATOM     11  C   UNL     1       9.262   0.985  -1.341  1.00  0.00     0.019 C 
BRANCH  10  12
ATOM     12  C   UNL     1       8.447   0.017   0.818  1.00  0.00    -0.001 C 
ATOM     13  C   UNL     1       8.865   1.259   1.577  1.00  0.00     0.014 C 
ATOM     14  C   UNL     1       7.235  -0.654   1.432  1.00  0.00     0.014 C 
BRANCH  12  15
ATOM     15  C   UNL     1       9.576  -0.995   0.839  1.00  0.00     0.163 C 
BRANCH  15  16
ATOM     16  O   UNL     1      10.725  -0.509   0.214  1.00  0.00    -0.396 OA
ATOM     17  H   UNL     1      11.196  -1.189  -0.314  1.00  0.00     0.210 HD
ENDBRANCH  15  16
ENDBRANCH  12  15
ENDBRANCH  10  12
ENDBRANCH   8  10
ENDBRANCH   7   8
ENDBRANCH   1   7
BRANCH   4  18
ATOM     18  C   UNL     1       1.168  -1.164  -1.747  1.00  0.00     0.070 C 
BRANCH  18  19
ATOM     19  C   UNL     1       0.190  -0.163  -2.268  1.00  0.00     0.008 C 
BRANCH  19  20
ATOM     20  C   UNL     1      -0.013   1.068  -1.498  1.00  0.00     0.008 C 
BRANCH  20  21
ATOM     21  C   UNL     1      -0.511   0.995  -0.112  1.00  0.00     0.070 C 
BRANCH  21  22
ATOM     22  C   UNL     1      -1.831   0.408   0.058  1.00  0.00     0.116 A 
ATOM     23  N   UNL     1      -2.653   0.129   1.014  1.00  0.00    -0.167 NA
ATOM     24  S   UNL     1      -2.870  -0.182  -1.404  1.00  0.00    -0.080 S 
ATOM     25  N   UNL     1      -3.789  -0.386   0.889  1.00  0.00    -0.251 N 
ATOM     26  C   UNL     1      -4.245  -0.699  -0.360  1.00  0.00     0.208 A 
ATOM     27  H   UNL     1      -4.446  -0.604   1.712  1.00  0.00     0.193 HD
BRANCH  26  28
ATOM     28  N   UNL     1      -5.329  -1.214  -0.750  1.00  0.00    -0.183 NA
BRANCH  28  29
ATOM     29  C   UNL     1      -6.325  -1.571   0.194  1.00  0.00     0.255 C 
ATOM     30  O   UNL     1      -6.155  -2.489   1.048  1.00  0.00    -0.272 OA
BRANCH  29  31
ATOM     31  C   UNL     1      -7.606  -0.809   0.143  1.00  0.00     0.123 C 
ATOM     32  C   UNL     1      -8.221  -1.008  -1.213  1.00  0.00     0.243 C 
ATOM     33  C   UNL     1      -8.524  -1.167   1.280  1.00  0.00     0.056 C 
ATOM     34  O   UNL     1      -9.553  -0.549  -1.277  1.00  0.00    -0.492 OA
ATOM     35  C   UNL     1      -9.730  -0.312   1.141  1.00  0.00    -0.005 A 
ATOM     36  C   UNL     1     -10.173  -0.054  -0.139  1.00  0.00     0.122 A 
ATOM     37  C   UNL     1     -10.418   0.227   2.189  1.00  0.00     0.007 A 
ATOM     38  C   UNL     1     -11.289   0.733  -0.326  1.00  0.00     0.047 A 
ATOM     39  C   UNL     1     -11.548   1.025   2.005  1.00  0.00     0.001 A 
ATOM     40  C   UNL     1     -12.002   1.291   0.726  1.00  0.00     0.004 A 
ENDBRANCH  29  31
ENDBRANCH  28  29
ENDBRANCH  26  28
ENDBRANCH  21  22
ENDBRANCH  20  21
ENDBRANCH  19  20
ENDBRANCH  18  19
ENDBRANCH   4  18
TORSDOF 14
