REMARK SMILES C[C@@H](c1ccco1)N(C(=O)c1ccc(C#N)cc1)[C@@H](C(N)=O)c1ccc(Cl)cc1
REMARK SMILES IDX 8 1 2 2 1 3 3 4 4 5 7 6 5 7 6 8 9 9 10 10 11 11 12 12 18 13
REMARK SMILES IDX 13 14 17 15 14 16 15 17 16 18 19 19 20 20 21 21 22 22 23 25
REMARK SMILES IDX 24 26 29 27 25 28 28 29 26 30 27 31
REMARK H PARENT 21 23 21 24
ROOT
ATOM      1  N   UNL     1       0.186   0.191   0.560  1.00  0.00    -0.313 N 
ENDROOT
BRANCH   1   2
ATOM      2  C   UNL     1      -0.486   1.437   0.504  1.00  0.00     0.150 C 
ATOM      3  C   UNL     1      -0.434   2.137   1.884  1.00  0.00     0.040 C 
BRANCH   2   4
ATOM      4  C   UNL     1      -0.115   2.376  -0.562  1.00  0.00     0.126 A 
ATOM      5  C   UNL     1      -0.031   2.248  -1.925  1.00  0.00     0.048 A 
ATOM      6  O   UNL     1       0.236   3.646  -0.297  1.00  0.00    -0.467 OA
ATOM      7  C   UNL     1       0.377   3.459  -2.478  1.00  0.00     0.042 A 
ATOM      8  C   UNL     1       0.524   4.291  -1.375  1.00  0.00     0.195 A 
ENDBRANCH   2   4
ENDBRANCH   1   2
BRANCH   1   9
ATOM      9  C   UNL     1      -0.602  -1.019   0.524  1.00  0.00     0.255 C 
ATOM     10  O   UNL     1      -0.058  -2.160   0.544  1.00  0.00    -0.269 OA
BRANCH   9  11
ATOM     11  C   UNL     1      -2.054  -0.999   0.469  1.00  0.00     0.040 A 
ATOM     12  C   UNL     1      -2.710  -1.223   1.678  1.00  0.00     0.015 A 
ATOM     13  C   UNL     1      -2.804  -0.787  -0.658  1.00  0.00     0.015 A 
ATOM     14  C   UNL     1      -4.078  -1.244   1.804  1.00  0.00     0.020 A 
ATOM     15  C   UNL     1      -4.178  -0.808  -0.528  1.00  0.00     0.020 A 
ATOM     16  C   UNL     1      -4.832  -1.029   0.655  1.00  0.00     0.052 A 
BRANCH  16  17
ATOM     17  C   UNL     1      -6.252  -1.057   0.801  1.00  0.00     0.099 C 
ATOM     18  N   UNL     1      -7.426  -1.061   0.930  1.00  0.00    -0.192 NA
ENDBRANCH  16  17
ENDBRANCH   9  11
ENDBRANCH   1   9
BRANCH   1  19
ATOM     19  C   UNL     1       1.608   0.074   0.745  1.00  0.00     0.205 C 
BRANCH  19  20
ATOM     20  C   UNL     1       1.919  -0.395   2.146  1.00  0.00     0.244 C 
ATOM     21  N   UNL     1       3.220  -0.278   2.695  1.00  0.00    -0.368 N 
ATOM     22  O   UNL     1       0.962  -0.901   2.825  1.00  0.00    -0.273 OA
ATOM     23  H   UNL     1       3.740   0.619   2.501  1.00  0.00     0.159 HD
ATOM     24  H   UNL     1       3.699  -0.999   3.274  1.00  0.00     0.159 HD
ENDBRANCH  19  20
BRANCH  19  25
ATOM     25  C   UNL     1       2.240  -0.839  -0.198  1.00  0.00    -0.016 A 
ATOM     26  C   UNL     1       2.231  -0.724  -1.569  1.00  0.00     0.008 A 
ATOM     27  C   UNL     1       2.918  -1.966   0.291  1.00  0.00     0.008 A 
ATOM     28  C   UNL     1       2.845  -1.650  -2.412  1.00  0.00     0.021 A 
ATOM     29  C   UNL     1       3.528  -2.887  -0.516  1.00  0.00     0.021 A 
ATOM     30  C   UNL     1       3.500  -2.743  -1.884  1.00  0.00     0.041 A 
ATOM     31  Cl  UNL     1       4.275  -3.920  -2.950  1.00  0.00    -0.084 Cl
ENDBRANCH  19  25
ENDBRANCH   1  19
TORSDOF 8
