REMARK SMILES COc1cc(C)nc(N2CCO[C@H]3CCCC[C@H]32)n1
REMARK SMILES IDX 3 1 4 2 5 3 6 4 7 5 8 6 19 7 2 8 1 9 9 10 10 11 18 12 11 13
REMARK SMILES IDX 17 14 13 15 12 16 16 17 14 18 15 19
REMARK H PARENT
ROOT
ATOM      1  C   UNL     1       3.035   0.281   0.883  1.00  0.00     0.218 A 
ATOM      2  C   UNL     1       3.735  -0.887   0.702  1.00  0.00     0.092 A 
ATOM      3  C   UNL     1       3.105  -1.982   0.147  1.00  0.00     0.047 A 
ATOM      4  C   UNL     1       3.887  -3.240  -0.039  1.00  0.00     0.067 C 
ATOM      5  N   UNL     1       1.794  -1.896  -0.216  1.00  0.00    -0.218 NA
ATOM      6  C   UNL     1       1.156  -0.740  -0.020  1.00  0.00     0.229 A 
ATOM      7  N   UNL     1       1.739   0.339   0.514  1.00  0.00    -0.177 NA
ENDROOT
BRANCH   1   8
ATOM      8  O   UNL     1       3.589   1.420   1.428  1.00  0.00    -0.481 OA
ATOM      9  C   UNL     1       2.854   2.624   1.611  1.00  0.00     0.280 C 
ENDBRANCH   1   8
BRANCH   6  10
ATOM     10  N   UNL     1      -0.212  -0.651  -0.399  1.00  0.00    -0.333 N 
ATOM     11  C   UNL     1      -0.929  -1.767  -0.987  1.00  0.00     0.148 C 
ATOM     12  C   UNL     1      -0.975   0.582  -0.216  1.00  0.00     0.114 C 
ATOM     13  C   UNL     1      -1.498  -1.288  -2.283  1.00  0.00     0.182 C 
ATOM     14  C   UNL     1      -1.807   0.345   1.033  1.00  0.00     0.028 C 
ATOM     15  C   UNL     1      -1.870   0.857  -1.383  1.00  0.00     0.140 C 
ATOM     16  O   UNL     1      -1.719   0.022  -2.447  1.00  0.00    -0.374 OA
ATOM     17  C   UNL     1      -2.559   1.616   1.304  1.00  0.00     0.002 C 
ATOM     18  C   UNL     1      -3.340   0.954  -1.004  1.00  0.00     0.034 C 
ATOM     19  C   UNL     1      -3.595   1.765   0.222  1.00  0.00     0.003 C 
ENDBRANCH   6  10
TORSDOF 2
