REMARK SMILES COc1cc(C)nc(N2CCO[C@H]3CCCC[C@@H]32)n1
REMARK SMILES IDX 3 1 4 2 5 3 6 4 7 5 8 6 19 7 2 8 1 9 9 10 10 11 18 12 11 13
REMARK SMILES IDX 17 14 13 15 12 16 16 17 14 18 15 19
REMARK H PARENT
ROOT
ATOM      1  C   UNL     1      -3.445   0.035   0.009  1.00  0.00     0.218 A 
ATOM      2  C   UNL     1      -3.439   1.393   0.180  1.00  0.00     0.092 A 
ATOM      3  C   UNL     1      -2.229   2.060   0.162  1.00  0.00     0.047 A 
ATOM      4  C   UNL     1      -2.186   3.525   0.343  1.00  0.00     0.067 C 
ATOM      5  N   UNL     1      -1.100   1.360  -0.022  1.00  0.00    -0.218 NA
ATOM      6  C   UNL     1      -1.087   0.028  -0.191  1.00  0.00     0.229 A 
ATOM      7  N   UNL     1      -2.271  -0.612  -0.172  1.00  0.00    -0.177 NA
ENDROOT
BRANCH   1   8
ATOM      8  O   UNL     1      -4.630  -0.691   0.018  1.00  0.00    -0.481 OA
ATOM      9  C   UNL     1      -4.691  -2.090  -0.153  1.00  0.00     0.280 C 
ENDBRANCH   1   8
BRANCH   6  10
ATOM     10  N   UNL     1       0.085  -0.742  -0.388  1.00  0.00    -0.333 N 
ATOM     11  C   UNL     1       0.017  -2.215  -0.536  1.00  0.00     0.148 C 
ATOM     12  C   UNL     1       1.422  -0.194  -0.459  1.00  0.00     0.114 C 
ATOM     13  C   UNL     1       1.438  -2.661  -0.850  1.00  0.00     0.182 C 
ATOM     14  C   UNL     1       1.564   1.258  -0.275  1.00  0.00     0.028 C 
ATOM     15  C   UNL     1       2.194  -1.013   0.580  1.00  0.00     0.140 C 
ATOM     16  O   UNL     1       2.375  -2.266   0.066  1.00  0.00    -0.374 OA
ATOM     17  C   UNL     1       3.019   1.608  -0.511  1.00  0.00     0.002 C 
ATOM     18  C   UNL     1       3.430  -0.311   1.014  1.00  0.00     0.034 C 
ATOM     19  C   UNL     1       3.956   0.474  -0.162  1.00  0.00     0.003 C 
ENDBRANCH   6  10
TORSDOF 2
