REMARK SMILES COc1cc(C)nc(N2CCO[C@@H]3CCCC[C@@H]32)n1
REMARK SMILES IDX 3 1 4 2 5 3 6 4 7 5 8 6 19 7 2 8 1 9 9 10 10 11 18 12 11 13
REMARK SMILES IDX 17 14 13 15 12 16 16 17 14 18 15 19
REMARK H PARENT
ROOT
ATOM      1  C   UNL     1       3.074   0.311  -0.884  1.00  0.00     0.218 A 
ATOM      2  C   UNL     1       3.816  -0.764  -0.439  1.00  0.00     0.092 A 
ATOM      3  C   UNL     1       3.245  -1.781   0.317  1.00  0.00     0.047 A 
ATOM      4  C   UNL     1       4.099  -2.897   0.757  1.00  0.00     0.067 C 
ATOM      5  N   UNL     1       1.935  -1.669   0.597  1.00  0.00    -0.218 NA
ATOM      6  C   UNL     1       1.198  -0.626   0.171  1.00  0.00     0.229 A 
ATOM      7  N   UNL     1       1.770   0.348  -0.561  1.00  0.00    -0.177 NA
ENDROOT
BRANCH   1   8
ATOM      8  O   UNL     1       3.594   1.345  -1.638  1.00  0.00    -0.481 OA
ATOM      9  C   UNL     1       2.796   2.429  -2.073  1.00  0.00     0.280 C 
ENDBRANCH   1   8
BRANCH   6  10
ATOM     10  N   UNL     1      -0.188  -0.536   0.483  1.00  0.00    -0.333 N 
ATOM     11  C   UNL     1      -0.836  -1.568   1.270  1.00  0.00     0.148 C 
ATOM     12  C   UNL     1      -0.979   0.568   0.034  1.00  0.00     0.114 C 
ATOM     13  C   UNL     1      -1.473  -0.863   2.449  1.00  0.00     0.182 C 
ATOM     14  C   UNL     1      -1.659   0.327  -1.280  1.00  0.00     0.028 C 
ATOM     15  C   UNL     1      -1.943   0.970   1.116  1.00  0.00     0.140 C 
ATOM     16  O   UNL     1      -1.459   0.507   2.327  1.00  0.00    -0.374 OA
ATOM     17  C   UNL     1      -2.811   1.286  -1.476  1.00  0.00     0.002 C 
ATOM     18  C   UNL     1      -3.348   0.494   0.811  1.00  0.00     0.034 C 
ATOM     19  C   UNL     1      -3.851   1.207  -0.408  1.00  0.00     0.003 C 
ENDBRANCH   6  10
TORSDOF 2
