REMARK SMILES COc1cc(C)nc(N2CCO[C@@H]3CCCC[C@H]32)n1
REMARK SMILES IDX 3 1 4 2 5 3 6 4 7 5 8 6 19 7 2 8 1 9 9 10 10 11 18 12 11 13
REMARK SMILES IDX 17 14 13 15 12 16 16 17 14 18 15 19
REMARK H PARENT
ROOT
ATOM      1  C   UNL     1       3.443   0.080   0.236  1.00  0.00     0.218 A 
ATOM      2  C   UNL     1       3.489  -1.275   0.113  1.00  0.00     0.092 A 
ATOM      3  C   UNL     1       2.282  -1.952   0.033  1.00  0.00     0.047 A 
ATOM      4  C   UNL     1       2.367  -3.438  -0.101  1.00  0.00     0.067 C 
ATOM      5  N   UNL     1       1.114  -1.302   0.075  1.00  0.00    -0.218 NA
ATOM      6  C   UNL     1       1.063   0.036   0.196  1.00  0.00     0.229 A 
ATOM      7  N   UNL     1       2.241   0.682   0.273  1.00  0.00    -0.177 NA
ENDROOT
BRANCH   1   8
ATOM      8  O   UNL     1       4.635   0.789   0.318  1.00  0.00    -0.481 OA
ATOM      9  C   UNL     1       4.724   2.177   0.446  1.00  0.00     0.280 C 
ENDBRANCH   1   8
BRANCH   6  10
ATOM     10  N   UNL     1      -0.172   0.741   0.242  1.00  0.00    -0.333 N 
ATOM     11  C   UNL     1      -0.150   2.176   0.373  1.00  0.00     0.148 C 
ATOM     12  C   UNL     1      -1.421   0.054   0.160  1.00  0.00     0.114 C 
ATOM     13  C   UNL     1      -1.450   2.808   0.631  1.00  0.00     0.182 C 
ATOM     14  C   UNL     1      -1.436  -1.178  -0.673  1.00  0.00     0.028 C 
ATOM     15  C   UNL     1      -2.519   0.951  -0.325  1.00  0.00     0.140 C 
ATOM     16  O   UNL     1      -2.560   2.211   0.121  1.00  0.00    -0.374 OA
ATOM     17  C   UNL     1      -2.737  -1.450  -1.369  1.00  0.00     0.002 C 
ATOM     18  C   UNL     1      -3.815   0.264   0.131  1.00  0.00     0.034 C 
ATOM     19  C   UNL     1      -3.963  -0.985  -0.653  1.00  0.00     0.003 C 
ENDBRANCH   6  10
TORSDOF 2
