REMARK SMILES Cc1sc2nc(SCC(=O)NCc3ccco3)n(Cc3ccccc3)c(=O)c2c1C
REMARK SMILES IDX 7 1 6 2 2 3 3 4 29 5 4 6 28 7 5 8 26 9 18 10 1 11 30 12
REMARK SMILES IDX 27 13 19 14 20 15 21 16 25 17 22 18 24 19 23 20 8 21 9 22
REMARK SMILES IDX 11 23 10 24 12 26 13 27 14 28 17 29 15 30 16 31
REMARK H PARENT 11 25
ROOT
ATOM      1  S   UNL     1       0.907  -2.128   0.243  1.00  0.00    -0.078 SA
ENDROOT
BRANCH   1   2
ATOM      2  C   UNL     1      -0.257  -0.833  -0.031  1.00  0.00     0.173 A 
ATOM      3  C   UNL     1      -2.123   3.667   0.055  1.00  0.00     0.007 A 
ATOM      4  S   UNL     1      -0.582   3.184   0.843  1.00  0.00    -0.120 S 
ATOM      5  C   UNL     1      -2.636   2.542  -0.546  1.00  0.00    -0.022 A 
ATOM      6  C   UNL     1      -0.762   1.442   0.275  1.00  0.00     0.132 A 
ATOM      7  C   UNL     1      -1.934   1.401  -0.431  1.00  0.00     0.080 A 
ATOM      8  N   UNL     1       0.058   0.394   0.483  1.00  0.00    -0.213 NA
ATOM      9  C   UNL     1      -2.228   0.118  -0.947  1.00  0.00     0.263 A 
ATOM     10  N   UNL     1      -1.388  -0.922  -0.724  1.00  0.00    -0.283 N 
ATOM     11  C   UNL     1      -2.672   5.037   0.089  1.00  0.00     0.057 C 
ATOM     12  C   UNL     1      -3.957   2.643  -1.296  1.00  0.00     0.046 C 
ATOM     13  O   UNL     1      -3.258  -0.093  -1.618  1.00  0.00    -0.268 OA
BRANCH  10  14
ATOM     14  C   UNL     1      -1.762  -2.223  -1.245  1.00  0.00     0.163 C 
BRANCH  14  15
ATOM     15  C   UNL     1      -2.692  -2.911  -0.330  1.00  0.00    -0.028 A 
ATOM     16  C   UNL     1      -4.071  -2.904  -0.602  1.00  0.00     0.005 A 
ATOM     17  C   UNL     1      -2.328  -3.581   0.813  1.00  0.00     0.005 A 
ATOM     18  C   UNL     1      -4.982  -3.526   0.226  1.00  0.00     0.000 A 
ATOM     19  C   UNL     1      -3.252  -4.211   1.649  1.00  0.00     0.000 A 
ATOM     20  C   UNL     1      -4.598  -4.193   1.368  1.00  0.00     0.000 A 
ENDBRANCH  14  15
ENDBRANCH  10  14
ENDBRANCH   1   2
BRANCH   1  21
ATOM     21  C   UNL     1       2.365  -1.633   1.161  1.00  0.00     0.178 C 
BRANCH  21  22
ATOM     22  C   UNL     1       3.250  -0.687   0.449  1.00  0.00     0.230 C 
ATOM     23  N   UNL     1       3.257   0.703   0.600  1.00  0.00    -0.348 N 
ATOM     24  O   UNL     1       4.077  -1.206  -0.375  1.00  0.00    -0.274 OA
ATOM     25  H   UNL     1       2.598   1.154   1.268  1.00  0.00     0.163 HD
BRANCH  23  26
ATOM     26  C   UNL     1       4.209   1.479  -0.196  1.00  0.00     0.191 C 
BRANCH  26  27
ATOM     27  C   UNL     1       5.606   1.068   0.111  1.00  0.00     0.122 A 
ATOM     28  C   UNL     1       6.385   1.654   1.116  1.00  0.00     0.047 A 
ATOM     29  O   UNL     1       6.335   0.141  -0.457  1.00  0.00    -0.467 OA
ATOM     30  C   UNL     1       7.611   1.003   1.090  1.00  0.00     0.042 A 
ATOM     31  C   UNL     1       7.510   0.069   0.081  1.00  0.00     0.195 A 
ENDBRANCH  26  27
ENDBRANCH  23  26
ENDBRANCH  21  22
ENDBRANCH   1  21
TORSDOF 7
