AutoDock-GPU version: v1.6

**********************************************************
**    AutoDock-GPU AUTODOCKTOOLS-COMPATIBLE DLG FILE    **
**********************************************************


    DOCKING PARAMETERS
    ________________________


Ligand file:                               /home/a/REINVENT4/ReinventStudies/pleaseWork/justRnve/graph-dock-w0wspr/graph-DockGPU/node-autodockgpu/inputs/GHRBDJAYIWVDBG-KTMSHTBCNA-N.pdbqt
Grid fld file:                             /home/a/REINVENT4/ReinventStudies/mols/Rad51/maps/rad51_receptor.maps.fld

Random seed:                               42
Number of runs:                            20
Number of energy evaluations:              5210753
Number of generations:                     42000
Size of population:                        150
Rate of crossover:                         80.000000%
Tournament selection probability limit:    60.000000%
Rate of mutation:                          2.000000%
Maximal allowed delta movement:            +/- 6.000000A
Maximal allowed delta angle:               +/- 90.000000

Rate of local search:                      100.000000%
Maximal number of local search iterations: 300
Rho lower bound:                           0.010000
Spread of local search delta movement:     2.000000A
Spread of local search delta angle:        74.999999
Limit of consecutive successes/failures:   4

Handle symmetry during clustering:         YES
RMSD tolerance:                            2.000000A

Program call in command line was:          /home/a/REINVENT4/ReinventStudies/adgpu-v1.6_linux_x64_cuda12_128wi --filelist batch.txt --heuristics 1 --nrun 20 --psize 150 --lsit 300 --seed 42 --heurmax 12000000 


    GRID PARAMETERS
    ________________________


Receptor name:                             rad51_receptor
Number of grid points (x, y, z):           53, 53, 53
Grid center (x, y, z):                     139.950000, 75.640000, 221.970000A
Grid size (x, y, z):                       19.500000, 19.500000, 19.500000A
Grid spacing:                              0.375000A


    LIGAND PARAMETERS
    ________________________


Ligand name:                               /home/a/REINVENT4/ReinventStudies/pleaseWork/justRnve/graph-dock-w0wspr/graph-DockGPU/node-autodockgpu/inputs/GHRBDJAYIWVDBG-KTMSHTBCNA-N
Number of atoms:                           40
Number of rotatable bonds:                 14
Number of atom types:                      7


    DUMMY DATA (only for ADT-compatibility)
    ________________________


DPF> outlev 1
DPF> ga_run 20
DPF> fld /home/a/REINVENT4/ReinventStudies/mols/Rad51/maps/rad51_receptor.maps.fld
DPF> move /home/a/REINVENT4/ReinventStudies/pleaseWork/justRnve/graph-dock-w0wspr/graph-DockGPU/node-autodockgpu/inputs/GHRBDJAYIWVDBG-KTMSHTBCNA-N.pdbqt


    COUNTER STATES
    ________________________


Number of energy evaluations performed:    2423613
Number of generations used:                215


    INPUT LIGAND PDBQT FILE:
    ________________________


INPUT-LIGAND-PDBQT: REMARK SMILES C[C@@H](C(=O)/N=c1/[nH]nc(CCCCc2n[nH]/c(=N\C(=O)[C@H]3COc4ccccc4C3)s2)s1)C(C)(C)CO
INPUT-LIGAND-PDBQT: REMARK SMILES IDX 6 1 7 2 8 3 9 4 32 5 5 7 3 8 4 9 2 10 1 11 33 12 34 13 35 14
INPUT-LIGAND-PDBQT: REMARK SMILES IDX 36 15 37 16 10 18 11 19 12 20 13 21 14 22 15 23 31 24 16 25
INPUT-LIGAND-PDBQT: REMARK SMILES IDX 17 26 18 28 19 29 20 30 21 31 22 32 30 33 23 34 29 35 24 36
INPUT-LIGAND-PDBQT: REMARK SMILES IDX 28 37 25 38 27 39 26 40
INPUT-LIGAND-PDBQT: REMARK H PARENT 7 6 37 17 16 27
INPUT-LIGAND-PDBQT: ROOT
INPUT-LIGAND-PDBQT: ATOM      1  C   UNL     1      -4.918  -0.189   2.006  1.00  0.00     0.208 A 
INPUT-LIGAND-PDBQT: ATOM      2  N   UNL     1      -3.857   0.041   2.727  1.00  0.00    -0.251 N 
INPUT-LIGAND-PDBQT: ATOM      3  N   UNL     1      -2.710  -0.174   2.150  1.00  0.00    -0.167 NA
INPUT-LIGAND-PDBQT: ATOM      4  C   UNL     1      -2.455  -0.539   1.096  1.00  0.00     0.116 A 
INPUT-LIGAND-PDBQT: ATOM      5  S   UNL     1      -4.186  -0.763   0.361  1.00  0.00    -0.080 S 
INPUT-LIGAND-PDBQT: ATOM      6  H   UNL     1      -3.910   0.388   3.738  1.00  0.00     0.193 HD
INPUT-LIGAND-PDBQT: ENDROOT
INPUT-LIGAND-PDBQT: BRANCH   1   7
INPUT-LIGAND-PDBQT: ATOM      7  N   UNL     1      -6.178  -0.114   2.167  1.00  0.00    -0.184 NA
INPUT-LIGAND-PDBQT: BRANCH   7   8
INPUT-LIGAND-PDBQT: ATOM      8  C   UNL     1      -7.006  -0.476   1.071  1.00  0.00     0.251 C 
INPUT-LIGAND-PDBQT: ATOM      9  O   UNL     1      -7.238  -1.685   0.876  1.00  0.00    -0.272 OA
INPUT-LIGAND-PDBQT: BRANCH   8  10
INPUT-LIGAND-PDBQT: ATOM     10  C   UNL     1      -7.539   0.628   0.233  1.00  0.00     0.086 C 
INPUT-LIGAND-PDBQT: ATOM     11  C   UNL     1      -8.366   1.532   1.102  1.00  0.00     0.019 C 
INPUT-LIGAND-PDBQT: BRANCH  10  12
INPUT-LIGAND-PDBQT: ATOM     12  C   UNL     1      -8.253   0.175  -0.999  1.00  0.00    -0.001 C 
INPUT-LIGAND-PDBQT: ATOM     13  C   UNL     1      -8.610   1.430  -1.790  1.00  0.00     0.014 C 
INPUT-LIGAND-PDBQT: ATOM     14  C   UNL     1      -7.337  -0.666  -1.834  1.00  0.00     0.014 C 
INPUT-LIGAND-PDBQT: BRANCH  12  15
INPUT-LIGAND-PDBQT: ATOM     15  C   UNL     1      -9.508  -0.617  -0.713  1.00  0.00     0.163 C 
INPUT-LIGAND-PDBQT: BRANCH  15  16
INPUT-LIGAND-PDBQT: ATOM     16  O   UNL     1     -10.458   0.065   0.007  1.00  0.00    -0.396 OA
INPUT-LIGAND-PDBQT: ATOM     17  H   UNL     1     -10.886  -0.474   0.730  1.00  0.00     0.210 HD
INPUT-LIGAND-PDBQT: ENDBRANCH  15  16
INPUT-LIGAND-PDBQT: ENDBRANCH  12  15
INPUT-LIGAND-PDBQT: ENDBRANCH  10  12
INPUT-LIGAND-PDBQT: ENDBRANCH   8  10
INPUT-LIGAND-PDBQT: ENDBRANCH   7   8
INPUT-LIGAND-PDBQT: ENDBRANCH   1   7
INPUT-LIGAND-PDBQT: BRANCH   4  18
INPUT-LIGAND-PDBQT: ATOM     18  C   UNL     1      -1.391  -0.903   0.078  1.00  0.00     0.070 C 
INPUT-LIGAND-PDBQT: BRANCH  18  19
INPUT-LIGAND-PDBQT: ATOM     19  C   UNL     1      -0.075  -0.690   0.754  1.00  0.00     0.008 C 
INPUT-LIGAND-PDBQT: BRANCH  19  20
INPUT-LIGAND-PDBQT: ATOM     20  C   UNL     1       0.056   0.741   1.156  1.00  0.00     0.008 C 
INPUT-LIGAND-PDBQT: BRANCH  20  21
INPUT-LIGAND-PDBQT: ATOM     21  C   UNL     1       1.378   0.991   1.842  1.00  0.00     0.070 C 
INPUT-LIGAND-PDBQT: BRANCH  21  22
INPUT-LIGAND-PDBQT: ATOM     22  C   UNL     1       2.456   0.642   0.883  1.00  0.00     0.116 A 
INPUT-LIGAND-PDBQT: ATOM     23  N   UNL     1       3.146   1.055   0.034  1.00  0.00    -0.167 NA
INPUT-LIGAND-PDBQT: ATOM     24  S   UNL     1       3.106  -1.172   0.904  1.00  0.00    -0.080 S 
INPUT-LIGAND-PDBQT: ATOM     25  N   UNL     1       4.063   0.454  -0.666  1.00  0.00    -0.251 N 
INPUT-LIGAND-PDBQT: ATOM     26  C   UNL     1       4.263  -0.798  -0.401  1.00  0.00     0.208 A 
INPUT-LIGAND-PDBQT: ATOM     27  H   UNL     1       4.613   0.989  -1.419  1.00  0.00     0.193 HD
INPUT-LIGAND-PDBQT: BRANCH  26  28
INPUT-LIGAND-PDBQT: ATOM     28  N   UNL     1       5.113  -1.703  -0.920  1.00  0.00    -0.183 NA
INPUT-LIGAND-PDBQT: BRANCH  28  29
INPUT-LIGAND-PDBQT: ATOM     29  C   UNL     1       5.956  -1.213  -1.951  1.00  0.00     0.255 C 
INPUT-LIGAND-PDBQT: ATOM     30  O   UNL     1       5.612  -1.042  -3.130  1.00  0.00    -0.272 OA
INPUT-LIGAND-PDBQT: BRANCH  29  31
INPUT-LIGAND-PDBQT: ATOM     31  C   UNL     1       7.361  -0.884  -1.571  1.00  0.00     0.123 C 
INPUT-LIGAND-PDBQT: ATOM     32  C   UNL     1       8.173  -0.376  -2.722  1.00  0.00     0.243 C 
INPUT-LIGAND-PDBQT: ATOM     33  C   UNL     1       7.417   0.167  -0.476  1.00  0.00     0.056 C 
INPUT-LIGAND-PDBQT: ATOM     34  O   UNL     1       9.500  -0.218  -2.256  1.00  0.00    -0.492 OA
INPUT-LIGAND-PDBQT: ATOM     35  C   UNL     1       8.827   0.136   0.033  1.00  0.00    -0.005 A 
INPUT-LIGAND-PDBQT: ATOM     36  C   UNL     1       9.809  -0.060  -0.916  1.00  0.00     0.122 A 
INPUT-LIGAND-PDBQT: ATOM     37  C   UNL     1       9.111   0.293   1.354  1.00  0.00     0.007 A 
INPUT-LIGAND-PDBQT: ATOM     38  C   UNL     1      11.122  -0.091  -0.455  1.00  0.00     0.047 A 
INPUT-LIGAND-PDBQT: ATOM     39  C   UNL     1      10.418   0.263   1.814  1.00  0.00     0.001 A 
INPUT-LIGAND-PDBQT: ATOM     40  C   UNL     1      11.420   0.068   0.882  1.00  0.00     0.004 A 
INPUT-LIGAND-PDBQT: ENDBRANCH  29  31
INPUT-LIGAND-PDBQT: ENDBRANCH  28  29
INPUT-LIGAND-PDBQT: ENDBRANCH  26  28
INPUT-LIGAND-PDBQT: ENDBRANCH  21  22
INPUT-LIGAND-PDBQT: ENDBRANCH  20  21
INPUT-LIGAND-PDBQT: ENDBRANCH  19  20
INPUT-LIGAND-PDBQT: ENDBRANCH  18  19
INPUT-LIGAND-PDBQT: ENDBRANCH   4  18
INPUT-LIGAND-PDBQT: TORSDOF 14


    FINAL DOCKED STATE:
    ________________________


Run:   1 / 20
Time taken for this run:   0.173s

DOCKED: MODEL        1
DOCKED: USER    Run = 1
DOCKED: USER
DOCKED: USER    Estimated Free Energy of Binding    =  -4.29 kcal/mol  [=(1)+(2)+(3)-(4)]
DOCKED: USER
DOCKED: USER    (1) Final Intermolecular Energy     =  -8.46 kcal/mol
DOCKED: USER        vdW + Hbond + desolv Energy     =  -8.37 kcal/mol
DOCKED: USER        Electrostatic Energy            =  -0.09 kcal/mol
DOCKED: USER        Moving Ligand-Fixed Receptor    =  -8.46 kcal/mol
DOCKED: USER        Moving Ligand-Moving Receptor   =  +0.00 kcal/mol
DOCKED: USER    (2) Final Total Internal Energy     =  -6.38 kcal/mol
DOCKED: USER    (3) Torsional Free Energy           =  +4.18 kcal/mol
DOCKED: USER    (4) Unbound System's Energy         =  -6.38 kcal/mol
DOCKED: USER
DOCKED: USER
DOCKED: REMARK SMILES C[C@@H](C(=O)/N=c1/[nH]nc(CCCCc2n[nH]/c(=N\C(=O)[C@H]3COc4ccccc4C3)s2)s1)C(C)(C)CO
DOCKED: REMARK SMILES IDX 6 1 7 2 8 3 9 4 32 5 5 7 3 8 4 9 2 10 1 11 33 12 34 13 35 14
DOCKED: REMARK SMILES IDX 36 15 37 16 10 18 11 19 12 20 13 21 14 22 15 23 31 24 16 25
DOCKED: REMARK SMILES IDX 17 26 18 28 19 29 20 30 21 31 22 32 30 33 23 34 29 35 24 36
DOCKED: REMARK SMILES IDX 28 37 25 38 27 39 26 40
DOCKED: REMARK H PARENT 7 6 37 17 16 27
DOCKED: USER                              x       y       z     vdW  Elec       q    Type
DOCKED: USER                           _______ _______ _______ _____ _____    ______ ____
DOCKED: ROOT
DOCKED: ATOM      1  C   UNL     1     140.667  78.353 218.742 -0.07 -0.09    +0.208 A  
DOCKED: ATOM      2  N   UNL     1     140.195  79.566 218.798 -0.03 +0.09    -0.251 N  
DOCKED: ATOM      3  N   UNL     1     139.021  79.704 219.344 -0.02 +0.04    -0.167 NA 
DOCKED: ATOM      4  C   UNL     1     138.307  78.932 219.796 -0.03 -0.03    +0.116 A  
DOCKED: ATOM      5  S   UNL     1     139.293  77.335 219.547 -0.07 +0.02    -0.080 S  
DOCKED: ATOM      6  H   UNL     1     140.731  80.413 218.422 +0.05 -0.08    +0.193 HD 
DOCKED: ENDROOT
DOCKED: BRANCH   1   7
DOCKED: ATOM      7  N   UNL     1     141.726  77.793 218.312 -0.13 +0.10    -0.184 NA 
DOCKED: BRANCH   7   8
DOCKED: ATOM      8  C   UNL     1     142.542  77.112 219.254 -0.23 -0.16    +0.251 C  
DOCKED: ATOM      9  O   UNL     1     142.570  77.531 220.428 -0.20 +0.23    -0.272 OA 
DOCKED: BRANCH   8  10
DOCKED: ATOM     10  C   UNL     1     143.307  75.938 218.762 -0.29 -0.05    +0.086 C  
DOCKED: ATOM     11  C   UNL     1     143.365  75.999 217.263 -0.23 -0.01    +0.019 C  
DOCKED: BRANCH  10  12
DOCKED: ATOM     12  C   UNL     1     142.819  74.625 219.283 -0.25 +0.00    -0.001 C  
DOCKED: ATOM     13  C   UNL     1     141.383  74.461 218.795 -0.08 -0.00    +0.014 C  
DOCKED: ATOM     14  C   UNL     1     143.644  73.515 218.708 -0.18 -0.00    +0.014 C  
DOCKED: BRANCH  12  15
DOCKED: ATOM     15  C   UNL     1     142.856  74.522 220.791 -0.15 -0.06    +0.163 C  
DOCKED: BRANCH  15  16
DOCKED: ATOM     16  O   UNL     1     141.761  75.056 221.424 -0.21 +0.12    -0.396 OA 
DOCKED: ATOM     17  H   UNL     1     141.817  76.041 221.573 -0.38 -0.12    +0.210 HD 
DOCKED: ENDBRANCH  15  16
DOCKED: ENDBRANCH  12  15
DOCKED: ENDBRANCH  10  12
DOCKED: ENDBRANCH   8  10
DOCKED: ENDBRANCH   7   8
DOCKED: ENDBRANCH   1   7
DOCKED: BRANCH   4  18
DOCKED: ATOM     18  C   UNL     1     136.982  78.642 220.475 -0.04 -0.01    +0.070 C  
DOCKED: BRANCH  18  19
DOCKED: ATOM     19  C   UNL     1     136.942  79.501 221.698 -0.10 -0.00    +0.008 C  
DOCKED: BRANCH  19  20
DOCKED: ATOM     20  C   UNL     1     136.918  78.639 222.915 -0.17 -0.00    +0.008 C  
DOCKED: BRANCH  20  21
DOCKED: ATOM     21  C   UNL     1     137.583  77.309 222.650 -0.23 -0.01    +0.070 C  
DOCKED: BRANCH  21  22
DOCKED: ATOM     22  C   UNL     1     139.050  77.514 222.737 -0.24 -0.02    +0.116 A  
DOCKED: ATOM     23  N   UNL     1     140.094  77.033 222.521 -0.27 +0.04    -0.167 NA 
DOCKED: ATOM     24  S   UNL     1     139.668  79.185 223.473 -0.45 +0.01    -0.080 S  
DOCKED: ATOM     25  N   UNL     1     141.290  77.502 222.724 -0.24 +0.11    -0.251 N  
DOCKED: ATOM     26  C   UNL     1     141.365  78.685 223.246 -0.41 -0.07    +0.208 A  
DOCKED: ATOM     27  H   UNL     1     142.156  76.920 222.464 -0.43 -0.19    +0.193 HD 
DOCKED: BRANCH  26  28
DOCKED: ATOM     28  N   UNL     1     142.416  79.455 223.582 -0.41 +0.06    -0.183 NA 
DOCKED: BRANCH  28  29
DOCKED: ATOM     29  C   UNL     1     142.177  80.853 223.531 -0.44 -0.05    +0.255 C  
DOCKED: ATOM     30  O   UNL     1     142.159  81.608 224.514 -0.41 +0.02    -0.272 OA 
DOCKED: BRANCH  29  31
DOCKED: ATOM     31  C   UNL     1     141.929  81.444 222.183 -0.35 -0.03    +0.123 C  
DOCKED: ATOM     32  C   UNL     1     142.187  80.479 221.067 -0.18 -0.10    +0.243 C  
DOCKED: ATOM     33  C   UNL     1     140.500  81.936 222.038 -0.31 -0.01    +0.056 C  
DOCKED: ATOM     34  O   UNL     1     142.031  81.194 219.856 -0.07 +0.20    -0.492 OA 
DOCKED: ATOM     35  C   UNL     1     140.498  82.794 220.809 -0.27 +0.00    -0.005 A  
DOCKED: ATOM     36  C   UNL     1     141.286  82.358 219.764 -0.20 -0.04    +0.122 A  
DOCKED: ATOM     37  C   UNL     1     139.759  83.935 220.737 -0.21 -0.00    +0.007 A  
DOCKED: ATOM     38  C   UNL     1     141.293  83.147 218.617 -0.18 -0.02    +0.047 A  
DOCKED: ATOM     39  C   UNL     1     139.765  84.721 219.596 -0.13 -0.00    +0.001 A  
DOCKED: ATOM     40  C   UNL     1     140.547  84.304 218.535 -0.13 -0.00    +0.004 A  
DOCKED: ENDBRANCH  29  31
DOCKED: ENDBRANCH  28  29
DOCKED: ENDBRANCH  26  28
DOCKED: ENDBRANCH  21  22
DOCKED: ENDBRANCH  20  21
DOCKED: ENDBRANCH  19  20
DOCKED: ENDBRANCH  18  19
DOCKED: ENDBRANCH   4  18
DOCKED: TORSDOF 14
DOCKED: TER
DOCKED: ENDMDL
________________________________________________________________________________


    FINAL DOCKED STATE:
    ________________________


Run:   2 / 20
Time taken for this run:   0.173s

DOCKED: MODEL        2
DOCKED: USER    Run = 2
DOCKED: USER
DOCKED: USER    Estimated Free Energy of Binding    =  -3.29 kcal/mol  [=(1)+(2)+(3)-(4)]
DOCKED: USER
DOCKED: USER    (1) Final Intermolecular Energy     =  -7.47 kcal/mol
DOCKED: USER        vdW + Hbond + desolv Energy     =  -7.54 kcal/mol
DOCKED: USER        Electrostatic Energy            =  +0.08 kcal/mol
DOCKED: USER        Moving Ligand-Fixed Receptor    =  -7.47 kcal/mol
DOCKED: USER        Moving Ligand-Moving Receptor   =  +0.00 kcal/mol
DOCKED: USER    (2) Final Total Internal Energy     =  -7.43 kcal/mol
DOCKED: USER    (3) Torsional Free Energy           =  +4.18 kcal/mol
DOCKED: USER    (4) Unbound System's Energy         =  -7.43 kcal/mol
DOCKED: USER
DOCKED: USER
DOCKED: REMARK SMILES C[C@@H](C(=O)/N=c1/[nH]nc(CCCCc2n[nH]/c(=N\C(=O)[C@H]3COc4ccccc4C3)s2)s1)C(C)(C)CO
DOCKED: REMARK SMILES IDX 6 1 7 2 8 3 9 4 32 5 5 7 3 8 4 9 2 10 1 11 33 12 34 13 35 14
DOCKED: REMARK SMILES IDX 36 15 37 16 10 18 11 19 12 20 13 21 14 22 15 23 31 24 16 25
DOCKED: REMARK SMILES IDX 17 26 18 28 19 29 20 30 21 31 22 32 30 33 23 34 29 35 24 36
DOCKED: REMARK SMILES IDX 28 37 25 38 27 39 26 40
DOCKED: REMARK H PARENT 7 6 37 17 16 27
DOCKED: USER                              x       y       z     vdW  Elec       q    Type
DOCKED: USER                           _______ _______ _______ _____ _____    ______ ____
DOCKED: ROOT
DOCKED: ATOM      1  C   UNL     1     139.729  76.961 222.666 -0.17 -0.04    +0.208 A  
DOCKED: ATOM      2  N   UNL     1     140.800  76.294 222.341 -0.26 +0.07    -0.251 N  
DOCKED: ATOM      3  N   UNL     1     140.619  75.062 221.960 -0.64 +0.02    -0.167 NA 
DOCKED: ATOM      4  C   UNL     1     139.665  74.440 221.855 -0.24 -0.02    +0.116 A  
DOCKED: ATOM      5  S   UNL     1     138.353  75.694 222.395 -0.28 +0.02    -0.080 S  
DOCKED: ATOM      6  H   UNL     1     141.780  76.722 222.380 -0.45 -0.13    +0.193 HD 
DOCKED: ENDROOT
DOCKED: BRANCH   1   7
DOCKED: ATOM      7  N   UNL     1     139.461  78.136 223.074 -0.19 +0.03    -0.184 NA 
DOCKED: BRANCH   7   8
DOCKED: ATOM      8  C   UNL     1     138.806  79.015 222.170 -0.15 -0.05    +0.251 C  
DOCKED: ATOM      9  O   UNL     1     138.379  78.551 221.095 -0.05 +0.06    -0.272 OA 
DOCKED: BRANCH   8  10
DOCKED: ATOM     10  C   UNL     1     138.678  80.436 222.582 -0.23 -0.01    +0.086 C  
DOCKED: ATOM     11  C   UNL     1     138.562  80.491 224.078 -0.40 -0.00    +0.019 C  
DOCKED: BRANCH  10  12
DOCKED: ATOM     12  C   UNL     1     137.595  81.185 221.876 -0.13 +0.00    -0.001 C  
DOCKED: ATOM     13  C   UNL     1     136.295  80.426 222.126 -0.09 -0.00    +0.014 C  
DOCKED: ATOM     14  C   UNL     1     137.462  82.557 222.464 -0.15 -0.00    +0.014 C  
DOCKED: BRANCH  12  15
DOCKED: ATOM     15  C   UNL     1     137.825  81.319 220.388 -0.04 -0.03    +0.163 C  
DOCKED: BRANCH  15  16
DOCKED: ATOM     16  O   UNL     1     137.263  80.318 219.634 -0.00 +0.08    -0.396 OA 
DOCKED: ATOM     17  H   UNL     1     137.918  79.641 219.304 +0.02 -0.05    +0.210 HD 
DOCKED: ENDBRANCH  15  16
DOCKED: ENDBRANCH  12  15
DOCKED: ENDBRANCH  10  12
DOCKED: ENDBRANCH   8  10
DOCKED: ENDBRANCH   7   8
DOCKED: ENDBRANCH   1   7
DOCKED: BRANCH   4  18
DOCKED: ATOM     18  C   UNL     1     139.021  73.116 221.491 -0.18 -0.02    +0.070 C  
DOCKED: BRANCH  18  19
DOCKED: ATOM     19  C   UNL     1     139.833  72.550 220.371 -0.11 -0.00    +0.008 C  
DOCKED: BRANCH  19  20
DOCKED: ATOM     20  C   UNL     1     139.848  73.509 219.228 -0.05 -0.00    +0.008 C  
DOCKED: BRANCH  20  21
DOCKED: ATOM     21  C   UNL     1     138.445  73.818 218.763 -0.02 -0.01    +0.070 C  
DOCKED: BRANCH  21  22
DOCKED: ATOM     22  C   UNL     1     138.295  75.294 218.733 -0.01 -0.02    +0.116 A  
DOCKED: ATOM     23  N   UNL     1     137.678  76.197 219.146 -0.01 +0.03    -0.167 NA 
DOCKED: ATOM     24  S   UNL     1     139.524  76.286 217.629 -0.02 +0.02    -0.080 S  
DOCKED: ATOM     25  N   UNL     1     137.802  77.471 218.915 -0.00 +0.05    -0.251 N  
DOCKED: ATOM     26  C   UNL     1     138.751  77.821 218.105 -0.00 -0.06    +0.208 A  
DOCKED: ATOM     27  H   UNL     1     137.141  78.178 219.384 +0.01 -0.04    +0.193 HD 
DOCKED: BRANCH  26  28
DOCKED: ATOM     28  N   UNL     1     139.152  79.025 217.656 -0.01 +0.06    -0.183 NA 
DOCKED: BRANCH  28  29
DOCKED: ATOM     29  C   UNL     1     140.526  79.314 217.860 -0.05 -0.11    +0.255 C  
DOCKED: ATOM     30  O   UNL     1     141.335  79.592 216.962 -0.08 +0.18    -0.272 OA 
DOCKED: BRANCH  29  31
DOCKED: ATOM     31  C   UNL     1     141.019  79.276 219.268 -0.16 -0.06    +0.123 C  
DOCKED: ATOM     32  C   UNL     1     141.913  78.106 219.541 -0.17 -0.15    +0.243 C  
DOCKED: ATOM     33  C   UNL     1     141.792  80.533 219.628 -0.29 -0.03    +0.056 C  
DOCKED: ATOM     34  O   UNL     1     142.209  78.125 220.925 -0.09 +0.37    -0.492 OA 
DOCKED: ATOM     35  C   UNL     1     141.913  80.511 221.122 -0.39 +0.00    -0.005 A  
DOCKED: ATOM     36  C   UNL     1     142.120  79.272 221.694 -0.33 -0.07    +0.122 A  
DOCKED: ATOM     37  C   UNL     1     141.823  81.649 221.861 -0.42 -0.00    +0.007 A  
DOCKED: ATOM     38  C   UNL     1     142.234  79.239 223.081 -0.56 -0.02    +0.047 A  
DOCKED: ATOM     39  C   UNL     1     141.936  81.617 223.242 -0.52 -0.00    +0.001 A  
DOCKED: ATOM     40  C   UNL     1     142.144  80.388 223.839 -0.64 -0.00    +0.004 A  
DOCKED: ENDBRANCH  29  31
DOCKED: ENDBRANCH  28  29
DOCKED: ENDBRANCH  26  28
DOCKED: ENDBRANCH  21  22
DOCKED: ENDBRANCH  20  21
DOCKED: ENDBRANCH  19  20
DOCKED: ENDBRANCH  18  19
DOCKED: ENDBRANCH   4  18
DOCKED: TORSDOF 14
DOCKED: TER
DOCKED: ENDMDL
________________________________________________________________________________


    FINAL DOCKED STATE:
    ________________________


Run:   3 / 20
Time taken for this run:   0.173s

DOCKED: MODEL        3
DOCKED: USER    Run = 3
DOCKED: USER
DOCKED: USER    Estimated Free Energy of Binding    =  -4.92 kcal/mol  [=(1)+(2)+(3)-(4)]
DOCKED: USER
DOCKED: USER    (1) Final Intermolecular Energy     =  -9.10 kcal/mol
DOCKED: USER        vdW + Hbond + desolv Energy     =  -8.91 kcal/mol
DOCKED: USER        Electrostatic Energy            =  -0.19 kcal/mol
DOCKED: USER        Moving Ligand-Fixed Receptor    =  -9.10 kcal/mol
DOCKED: USER        Moving Ligand-Moving Receptor   =  +0.00 kcal/mol
DOCKED: USER    (2) Final Total Internal Energy     =  -6.40 kcal/mol
DOCKED: USER    (3) Torsional Free Energy           =  +4.18 kcal/mol
DOCKED: USER    (4) Unbound System's Energy         =  -6.40 kcal/mol
DOCKED: USER
DOCKED: USER
DOCKED: REMARK SMILES C[C@@H](C(=O)/N=c1/[nH]nc(CCCCc2n[nH]/c(=N\C(=O)[C@H]3COc4ccccc4C3)s2)s1)C(C)(C)CO
DOCKED: REMARK SMILES IDX 6 1 7 2 8 3 9 4 32 5 5 7 3 8 4 9 2 10 1 11 33 12 34 13 35 14
DOCKED: REMARK SMILES IDX 36 15 37 16 10 18 11 19 12 20 13 21 14 22 15 23 31 24 16 25
DOCKED: REMARK SMILES IDX 17 26 18 28 19 29 20 30 21 31 22 32 30 33 23 34 29 35 24 36
DOCKED: REMARK SMILES IDX 28 37 25 38 27 39 26 40
DOCKED: REMARK H PARENT 7 6 37 17 16 27
DOCKED: USER                              x       y       z     vdW  Elec       q    Type
DOCKED: USER                           _______ _______ _______ _____ _____    ______ ____
DOCKED: ROOT
DOCKED: ATOM      1  C   UNL     1     139.152  72.885 219.633 -0.02 -0.04    +0.208 A  
DOCKED: ATOM      2  N   UNL     1     138.014  72.326 219.938 -0.01 +0.05    -0.251 N  
DOCKED: ATOM      3  N   UNL     1     136.980  72.711 219.248 -0.00 +0.03    -0.167 NA 
DOCKED: ATOM      4  C   UNL     1     136.883  73.472 218.399 -0.00 -0.02    +0.116 A  
DOCKED: ATOM      5  S   UNL     1     138.675  74.061 218.233 -0.02 +0.02    -0.080 S  
DOCKED: ATOM      6  H   UNL     1     137.921  71.590 220.710 +0.03 -0.04    +0.193 HD 
DOCKED: ENDROOT
DOCKED: BRANCH   1   7
DOCKED: ATOM      7  N   UNL     1     140.356  72.806 220.036 -0.05 +0.03    -0.184 NA 
DOCKED: BRANCH   7   8
DOCKED: ATOM      8  C   UNL     1     140.827  73.820 220.912 -0.17 -0.04    +0.251 C  
DOCKED: ATOM      9  O   UNL     1     140.696  73.651 222.140 -0.74 -0.00    -0.272 OA 
DOCKED: BRANCH   8  10
DOCKED: ATOM     10  C   UNL     1     141.448  75.017 220.290 -0.21 -0.03    +0.086 C  
DOCKED: ATOM     11  C   UNL     1     142.938  74.920 220.449 -0.30 -0.01    +0.019 C  
DOCKED: BRANCH  10  12
DOCKED: ATOM     12  C   UNL     1     140.884  76.317 220.764 -0.28 +0.00    -0.001 C  
DOCKED: ATOM     13  C   UNL     1     141.846  77.409 220.304 -0.31 -0.01    +0.014 C  
DOCKED: ATOM     14  C   UNL     1     139.554  76.557 220.119 -0.11 -0.00    +0.014 C  
DOCKED: BRANCH  12  15
DOCKED: ATOM     15  C   UNL     1     140.714  76.392 222.263 -0.30 -0.05    +0.163 C  
DOCKED: BRANCH  15  16
DOCKED: ATOM     16  O   UNL     1     139.548  75.836 222.730 -0.36 +0.06    -0.396 OA 
DOCKED: ATOM     17  H   UNL     1     139.150  75.152 222.122 +0.00 -0.04    +0.210 HD 
DOCKED: ENDBRANCH  15  16
DOCKED: ENDBRANCH  12  15
DOCKED: ENDBRANCH  10  12
DOCKED: ENDBRANCH   8  10
DOCKED: ENDBRANCH   7   8
DOCKED: ENDBRANCH   1   7
DOCKED: BRANCH   4  18
DOCKED: ATOM     18  C   UNL     1     135.993  74.181 217.396 -0.00 -0.01    +0.070 C  
DOCKED: BRANCH  18  19
DOCKED: ATOM     19  C   UNL     1     135.527  75.435 218.063 -0.00 -0.00    +0.008 C  
DOCKED: BRANCH  19  20
DOCKED: ATOM     20  C   UNL     1     134.690  75.091 219.249 -0.00 -0.00    +0.008 C  
DOCKED: BRANCH  20  21
DOCKED: ATOM     21  C   UNL     1     135.163  75.832 220.477 -0.02 -0.01    +0.070 C  
DOCKED: BRANCH  21  22
DOCKED: ATOM     22  C   UNL     1     136.055  74.921 221.237 -0.06 -0.02    +0.116 A  
DOCKED: ATOM     23  N   UNL     1     137.126  74.795 221.689 -0.10 +0.04    -0.167 NA 
DOCKED: ATOM     24  S   UNL     1     135.327  73.223 221.784 -0.07 +0.01    -0.080 S  
DOCKED: ATOM     25  N   UNL     1     137.643  73.803 222.353 -0.01 +0.10    -0.251 N  
DOCKED: ATOM     26  C   UNL     1     136.872  72.783 222.560 -0.09 -0.06    +0.208 A  
DOCKED: ATOM     27  H   UNL     1     138.659  73.851 222.702 -0.53 -0.09    +0.193 HD 
DOCKED: BRANCH  26  28
DOCKED: ATOM     28  N   UNL     1     137.076  71.614 223.194 -0.13 +0.05    -0.183 NA 
DOCKED: BRANCH  28  29
DOCKED: ATOM     29  C   UNL     1     138.422  71.164 223.204 -0.16 -0.06    +0.255 C  
DOCKED: ATOM     30  O   UNL     1     139.290  71.499 222.385 -0.15 +0.05    -0.272 OA 
DOCKED: BRANCH  29  31
DOCKED: ATOM     31  C   UNL     1     138.805  70.214 224.289 -0.29 -0.02    +0.123 C  
DOCKED: ATOM     32  C   UNL     1     138.757  68.782 223.855 -0.20 -0.03    +0.243 C  
DOCKED: ATOM     33  C   UNL     1     140.207  70.485 224.807 -0.42 -0.01    +0.056 C  
DOCKED: ATOM     34  O   UNL     1     139.023  67.992 224.999 -0.55 +0.01    -0.492 OA 
DOCKED: ATOM     35  C   UNL     1     140.314  69.714 226.088 -0.50 +0.00    -0.005 A  
DOCKED: ATOM     36  C   UNL     1     139.698  68.479 226.105 -0.47 -0.02    +0.122 A  
DOCKED: ATOM     37  C   UNL     1     140.981  70.210 227.165 -0.59 -0.00    +0.007 A  
DOCKED: ATOM     38  C   UNL     1     139.790  67.754 227.289 -0.53 -0.01    +0.047 A  
DOCKED: ATOM     39  C   UNL     1     141.074  69.488 228.344 -0.59 -0.00    +0.001 A  
DOCKED: ATOM     40  C   UNL     1     140.465  68.248 228.386 -0.62 -0.00    +0.004 A  
DOCKED: ENDBRANCH  29  31
DOCKED: ENDBRANCH  28  29
DOCKED: ENDBRANCH  26  28
DOCKED: ENDBRANCH  21  22
DOCKED: ENDBRANCH  20  21
DOCKED: ENDBRANCH  19  20
DOCKED: ENDBRANCH  18  19
DOCKED: ENDBRANCH   4  18
DOCKED: TORSDOF 14
DOCKED: TER
DOCKED: ENDMDL
________________________________________________________________________________


    FINAL DOCKED STATE:
    ________________________


Run:   4 / 20
Time taken for this run:   0.173s

DOCKED: MODEL        4
DOCKED: USER    Run = 4
DOCKED: USER
DOCKED: USER    Estimated Free Energy of Binding    =  -4.86 kcal/mol  [=(1)+(2)+(3)-(4)]
DOCKED: USER
DOCKED: USER    (1) Final Intermolecular Energy     =  -9.03 kcal/mol
DOCKED: USER        vdW + Hbond + desolv Energy     =  -8.96 kcal/mol
DOCKED: USER        Electrostatic Energy            =  -0.07 kcal/mol
DOCKED: USER        Moving Ligand-Fixed Receptor    =  -9.03 kcal/mol
DOCKED: USER        Moving Ligand-Moving Receptor   =  +0.00 kcal/mol
DOCKED: USER    (2) Final Total Internal Energy     =  -6.85 kcal/mol
DOCKED: USER    (3) Torsional Free Energy           =  +4.18 kcal/mol
DOCKED: USER    (4) Unbound System's Energy         =  -6.85 kcal/mol
DOCKED: USER
DOCKED: USER
DOCKED: REMARK SMILES C[C@@H](C(=O)/N=c1/[nH]nc(CCCCc2n[nH]/c(=N\C(=O)[C@H]3COc4ccccc4C3)s2)s1)C(C)(C)CO
DOCKED: REMARK SMILES IDX 6 1 7 2 8 3 9 4 32 5 5 7 3 8 4 9 2 10 1 11 33 12 34 13 35 14
DOCKED: REMARK SMILES IDX 36 15 37 16 10 18 11 19 12 20 13 21 14 22 15 23 31 24 16 25
DOCKED: REMARK SMILES IDX 17 26 18 28 19 29 20 30 21 31 22 32 30 33 23 34 29 35 24 36
DOCKED: REMARK SMILES IDX 28 37 25 38 27 39 26 40
DOCKED: REMARK H PARENT 7 6 37 17 16 27
DOCKED: USER                              x       y       z     vdW  Elec       q    Type
DOCKED: USER                           _______ _______ _______ _____ _____    ______ ____
DOCKED: ROOT
DOCKED: ATOM      1  C   UNL     1     138.664  77.519 222.074 -0.18 -0.04    +0.208 A  
DOCKED: ATOM      2  N   UNL     1     139.237  76.833 221.126 -0.08 +0.06    -0.251 N  
DOCKED: ATOM      3  N   UNL     1     138.753  75.645 220.901 -0.09 +0.04    -0.167 NA 
DOCKED: ATOM      4  C   UNL     1     137.893  75.077 221.398 -0.14 -0.03    +0.116 A  
DOCKED: ATOM      5  S   UNL     1     137.318  76.342 222.685 -0.31 +0.02    -0.080 S  
DOCKED: ATOM      6  H   UNL     1     140.059  77.211 220.554 +0.06 -0.06    +0.193 HD 
DOCKED: ENDROOT
DOCKED: BRANCH   1   7
DOCKED: ATOM      7  N   UNL     1     138.811  78.668 222.600 -0.18 +0.03    -0.184 NA 
DOCKED: BRANCH   7   8
DOCKED: ATOM      8  C   UNL     1     139.709  79.572 221.971 -0.15 -0.06    +0.251 C  
DOCKED: ATOM      9  O   UNL     1     139.928  79.439 220.752 -0.06 +0.08    -0.272 OA 
DOCKED: BRANCH   8  10
DOCKED: ATOM     10  C   UNL     1     140.324  80.619 222.826 -0.36 -0.02    +0.086 C  
DOCKED: ATOM     11  C   UNL     1     140.224  81.938 222.114 -0.29 -0.00    +0.019 C  
DOCKED: BRANCH  10  12
DOCKED: ATOM     12  C   UNL     1     141.708  80.299 223.291 -0.60 +0.00    -0.001 C  
DOCKED: ATOM     13  C   UNL     1     142.600  80.299 222.053 -0.46 -0.01    +0.014 C  
DOCKED: ATOM     14  C   UNL     1     142.189  81.370 224.220 -0.53 -0.00    +0.014 C  
DOCKED: BRANCH  12  15
DOCKED: ATOM     15  C   UNL     1     141.816  78.966 223.993 -0.45 -0.04    +0.163 C  
DOCKED: BRANCH  15  16
DOCKED: ATOM     16  O   UNL     1     141.518  77.882 223.204 -0.28 +0.16    -0.396 OA 
DOCKED: ATOM     17  H   UNL     1     140.958  78.100 222.407 +0.10 -0.08    +0.210 HD 
DOCKED: ENDBRANCH  15  16
DOCKED: ENDBRANCH  12  15
DOCKED: ENDBRANCH  10  12
DOCKED: ENDBRANCH   8  10
DOCKED: ENDBRANCH   7   8
DOCKED: ENDBRANCH   1   7
DOCKED: BRANCH   4  18
DOCKED: ATOM     18  C   UNL     1     137.052  73.817 221.473 -0.11 -0.02    +0.070 C  
DOCKED: BRANCH  18  19
DOCKED: ATOM     19  C   UNL     1     137.830  72.844 222.300 -0.10 -0.00    +0.008 C  
DOCKED: BRANCH  19  20
DOCKED: ATOM     20  C   UNL     1     138.666  71.987 221.409 -0.13 -0.00    +0.008 C  
DOCKED: BRANCH  20  21
DOCKED: ATOM     21  C   UNL     1     140.101  71.956 221.880 -0.24 -0.01    +0.070 C  
DOCKED: BRANCH  21  22
DOCKED: ATOM     22  C   UNL     1     140.714  73.264 221.541 -0.25 -0.01    +0.116 A  
DOCKED: ATOM     23  N   UNL     1     141.076  74.288 221.975 -0.60 +0.00    -0.167 NA 
DOCKED: ATOM     24  S   UNL     1     141.165  73.577 219.693 -0.14 +0.02    -0.080 S  
DOCKED: ATOM     25  N   UNL     1     141.614  75.309 221.374 -0.18 +0.09    -0.251 N  
DOCKED: ATOM     26  C   UNL     1     141.787  75.200 220.095 -0.17 -0.07    +0.208 A  
DOCKED: ATOM     27  H   UNL     1     141.892  76.185 221.931 -0.51 -0.13    +0.193 HD 
DOCKED: BRANCH  26  28
DOCKED: ATOM     28  N   UNL     1     142.303  76.043 219.182 -0.16 +0.09    -0.183 NA 
DOCKED: BRANCH  28  29
DOCKED: ATOM     29  C   UNL     1     142.185  77.420 219.501 -0.20 -0.16    +0.255 C  
DOCKED: ATOM     30  O   UNL     1     142.115  77.880 220.651 -0.23 +0.19    -0.272 OA 
DOCKED: BRANCH  29  31
DOCKED: ATOM     31  C   UNL     1     142.142  78.375 218.355 -0.24 -0.09    +0.123 C  
DOCKED: ATOM     32  C   UNL     1     140.937  78.188 217.486 -0.06 -0.12    +0.243 C  
DOCKED: ATOM     33  C   UNL     1     142.144  79.819 218.825 -0.29 -0.04    +0.056 C  
DOCKED: ATOM     34  O   UNL     1     141.081  79.066 216.384 -0.01 +0.29    -0.492 OA 
DOCKED: ATOM     35  C   UNL     1     142.449  80.634 217.604 -0.31 +0.00    -0.005 A  
DOCKED: ATOM     36  C   UNL     1     141.882  80.194 216.425 -0.13 -0.11    +0.122 A  
DOCKED: ATOM     37  C   UNL     1     143.239  81.740 217.664 -0.27 -0.01    +0.007 A  
DOCKED: ATOM     38  C   UNL     1     142.158  80.942 215.285 -0.11 -0.05    +0.047 A  
DOCKED: ATOM     39  C   UNL     1     143.514  82.486 216.529 -0.35 -0.00    +0.001 A  
DOCKED: ATOM     40  C   UNL     1     142.957  82.065 215.336 -0.18 -0.00    +0.004 A  
DOCKED: ENDBRANCH  29  31
DOCKED: ENDBRANCH  28  29
DOCKED: ENDBRANCH  26  28
DOCKED: ENDBRANCH  21  22
DOCKED: ENDBRANCH  20  21
DOCKED: ENDBRANCH  19  20
DOCKED: ENDBRANCH  18  19
DOCKED: ENDBRANCH   4  18
DOCKED: TORSDOF 14
DOCKED: TER
DOCKED: ENDMDL
________________________________________________________________________________


    FINAL DOCKED STATE:
    ________________________


Run:   5 / 20
Time taken for this run:   0.173s

DOCKED: MODEL        5
DOCKED: USER    Run = 5
DOCKED: USER
DOCKED: USER    Estimated Free Energy of Binding    =  -5.21 kcal/mol  [=(1)+(2)+(3)-(4)]
DOCKED: USER
DOCKED: USER    (1) Final Intermolecular Energy     =  -9.39 kcal/mol
DOCKED: USER        vdW + Hbond + desolv Energy     =  -9.22 kcal/mol
DOCKED: USER        Electrostatic Energy            =  -0.17 kcal/mol
DOCKED: USER        Moving Ligand-Fixed Receptor    =  -9.39 kcal/mol
DOCKED: USER        Moving Ligand-Moving Receptor   =  +0.00 kcal/mol
DOCKED: USER    (2) Final Total Internal Energy     =  -6.20 kcal/mol
DOCKED: USER    (3) Torsional Free Energy           =  +4.18 kcal/mol
DOCKED: USER    (4) Unbound System's Energy         =  -6.20 kcal/mol
DOCKED: USER
DOCKED: USER
DOCKED: REMARK SMILES C[C@@H](C(=O)/N=c1/[nH]nc(CCCCc2n[nH]/c(=N\C(=O)[C@H]3COc4ccccc4C3)s2)s1)C(C)(C)CO
DOCKED: REMARK SMILES IDX 6 1 7 2 8 3 9 4 32 5 5 7 3 8 4 9 2 10 1 11 33 12 34 13 35 14
DOCKED: REMARK SMILES IDX 36 15 37 16 10 18 11 19 12 20 13 21 14 22 15 23 31 24 16 25
DOCKED: REMARK SMILES IDX 17 26 18 28 19 29 20 30 21 31 22 32 30 33 23 34 29 35 24 36
DOCKED: REMARK SMILES IDX 28 37 25 38 27 39 26 40
DOCKED: REMARK H PARENT 7 6 37 17 16 27
DOCKED: USER                              x       y       z     vdW  Elec       q    Type
DOCKED: USER                           _______ _______ _______ _____ _____    ______ ____
DOCKED: ROOT
DOCKED: ATOM      1  C   UNL     1     139.230  75.631 222.425 -0.21 -0.04    +0.208 A  
DOCKED: ATOM      2  N   UNL     1     139.593  74.382 222.341 -0.12 +0.03    -0.251 N  
DOCKED: ATOM      3  N   UNL     1     140.697  74.145 221.693 -0.61 +0.01    -0.167 NA 
DOCKED: ATOM      4  C   UNL     1     141.428  74.852 221.168 -0.27 -0.03    +0.116 A  
DOCKED: ATOM      5  S   UNL     1     140.604  76.527 221.487 -0.39 +0.03    -0.080 S  
DOCKED: ATOM      6  H   UNL     1     139.026  73.585 222.776 -0.48 -0.07    +0.193 HD 
DOCKED: ENDROOT
DOCKED: BRANCH   1   7
DOCKED: ATOM      7  N   UNL     1     138.265  76.279 222.943 -0.21 +0.04    -0.184 NA 
DOCKED: BRANCH   7   8
DOCKED: ATOM      8  C   UNL     1     137.462  77.070 222.079 -0.14 -0.05    +0.251 C  
DOCKED: ATOM      9  O   UNL     1     137.102  78.197 222.469 -0.12 +0.04    -0.272 OA 
DOCKED: BRANCH   8  10
DOCKED: ATOM     10  C   UNL     1     137.111  76.485 220.760 -0.06 -0.02    +0.086 C  
DOCKED: ATOM     11  C   UNL     1     137.032  77.595 219.750 -0.02 -0.00    +0.019 C  
DOCKED: BRANCH  10  12
DOCKED: ATOM     12  C   UNL     1     135.898  75.613 220.777 -0.05 +0.00    -0.001 C  
DOCKED: ATOM     13  C   UNL     1     134.686  76.541 220.797 -0.03 -0.00    +0.014 C  
DOCKED: ATOM     14  C   UNL     1     135.846  74.794 219.524 -0.01 -0.00    +0.014 C  
DOCKED: BRANCH  12  15
DOCKED: ATOM     15  C   UNL     1     135.841  74.681 221.965 -0.09 -0.03    +0.163 C  
DOCKED: BRANCH  15  16
DOCKED: ATOM     16  O   UNL     1     136.967  73.914 222.140 -0.07 +0.12    -0.396 OA 
DOCKED: ATOM     17  H   UNL     1     137.495  74.144 222.955 -0.44 -0.12    +0.210 HD 
DOCKED: ENDBRANCH  15  16
DOCKED: ENDBRANCH  12  15
DOCKED: ENDBRANCH  10  12
DOCKED: ENDBRANCH   8  10
DOCKED: ENDBRANCH   7   8
DOCKED: ENDBRANCH   1   7
DOCKED: BRANCH   4  18
DOCKED: ATOM     18  C   UNL     1     142.705  75.028 220.369 -0.27 -0.03    +0.070 C  
DOCKED: BRANCH  18  19
DOCKED: ATOM     19  C   UNL     1     142.283  75.307 218.962 -0.20 -0.00    +0.008 C  
DOCKED: BRANCH  19  20
DOCKED: ATOM     20  C   UNL     1     142.153  74.024 218.213 -0.08 -0.00    +0.008 C  
DOCKED: BRANCH  20  21
DOCKED: ATOM     21  C   UNL     1     140.736  73.819 217.732 -0.02 -0.02    +0.070 C  
DOCKED: BRANCH  21  22
DOCKED: ATOM     22  C   UNL     1     139.965  73.216 218.847 -0.02 -0.02    +0.116 A  
DOCKED: ATOM     23  N   UNL     1     139.032  73.346 219.540 -0.02 +0.03    -0.167 NA 
DOCKED: ATOM     24  S   UNL     1     140.607  71.548 219.567 -0.09 +0.01    -0.080 S  
DOCKED: ATOM     25  N   UNL     1     138.586  72.585 220.496 -0.03 +0.05    -0.251 N  
DOCKED: ATOM     26  C   UNL     1     139.263  71.507 220.738 -0.06 -0.04    +0.208 A  
DOCKED: ATOM     27  H   UNL     1     137.700  72.856 221.042 +0.03 -0.04    +0.193 HD 
DOCKED: BRANCH  26  28
DOCKED: ATOM     28  N   UNL     1     139.090  70.518 221.635 -0.08 +0.03    -0.183 NA 
DOCKED: BRANCH  28  29
DOCKED: ATOM     29  C   UNL     1     138.581  70.931 222.893 -0.15 -0.05    +0.255 C  
DOCKED: ATOM     30  O   UNL     1     137.865  71.927 223.080 -0.14 +0.09    -0.272 OA 
DOCKED: BRANCH  29  31
DOCKED: ATOM     31  C   UNL     1     138.944  70.092 224.073 -0.27 -0.02    +0.123 C  
DOCKED: ATOM     32  C   UNL     1     138.941  68.626 223.769 -0.17 -0.04    +0.243 C  
DOCKED: ATOM     33  C   UNL     1     140.320  70.443 224.612 -0.39 -0.01    +0.056 C  
DOCKED: ATOM     34  O   UNL     1     139.182  67.949 224.988 -0.57 +0.02    -0.492 OA 
DOCKED: ATOM     35  C   UNL     1     140.396  69.793 225.960 -0.50 +0.00    -0.005 A  
DOCKED: ATOM     36  C   UNL     1     139.806  68.551 226.068 -0.46 -0.02    +0.122 A  
DOCKED: ATOM     37  C   UNL     1     141.013  70.400 227.010 -0.60 -0.00    +0.007 A  
DOCKED: ATOM     38  C   UNL     1     139.870  67.937 227.316 -0.57 -0.01    +0.047 A  
DOCKED: ATOM     39  C   UNL     1     141.079  69.790 228.252 -0.58 -0.00    +0.001 A  
DOCKED: ATOM     40  C   UNL     1     140.495  68.544 228.385 -0.66 -0.00    +0.004 A  
DOCKED: ENDBRANCH  29  31
DOCKED: ENDBRANCH  28  29
DOCKED: ENDBRANCH  26  28
DOCKED: ENDBRANCH  21  22
DOCKED: ENDBRANCH  20  21
DOCKED: ENDBRANCH  19  20
DOCKED: ENDBRANCH  18  19
DOCKED: ENDBRANCH   4  18
DOCKED: TORSDOF 14
DOCKED: TER
DOCKED: ENDMDL
________________________________________________________________________________


    FINAL DOCKED STATE:
    ________________________


Run:   6 / 20
Time taken for this run:   0.173s

DOCKED: MODEL        6
DOCKED: USER    Run = 6
DOCKED: USER
DOCKED: USER    Estimated Free Energy of Binding    =  -5.98 kcal/mol  [=(1)+(2)+(3)-(4)]
DOCKED: USER
DOCKED: USER    (1) Final Intermolecular Energy     = -10.15 kcal/mol
DOCKED: USER        vdW + Hbond + desolv Energy     =  -9.69 kcal/mol
DOCKED: USER        Electrostatic Energy            =  -0.47 kcal/mol
DOCKED: USER        Moving Ligand-Fixed Receptor    = -10.15 kcal/mol
DOCKED: USER        Moving Ligand-Moving Receptor   =  +0.00 kcal/mol
DOCKED: USER    (2) Final Total Internal Energy     =  -5.63 kcal/mol
DOCKED: USER    (3) Torsional Free Energy           =  +4.18 kcal/mol
DOCKED: USER    (4) Unbound System's Energy         =  -5.63 kcal/mol
DOCKED: USER
DOCKED: USER
DOCKED: REMARK SMILES C[C@@H](C(=O)/N=c1/[nH]nc(CCCCc2n[nH]/c(=N\C(=O)[C@H]3COc4ccccc4C3)s2)s1)C(C)(C)CO
DOCKED: REMARK SMILES IDX 6 1 7 2 8 3 9 4 32 5 5 7 3 8 4 9 2 10 1 11 33 12 34 13 35 14
DOCKED: REMARK SMILES IDX 36 15 37 16 10 18 11 19 12 20 13 21 14 22 15 23 31 24 16 25
DOCKED: REMARK SMILES IDX 17 26 18 28 19 29 20 30 21 31 22 32 30 33 23 34 29 35 24 36
DOCKED: REMARK SMILES IDX 28 37 25 38 27 39 26 40
DOCKED: REMARK H PARENT 7 6 37 17 16 27
DOCKED: USER                              x       y       z     vdW  Elec       q    Type
DOCKED: USER                           _______ _______ _______ _____ _____    ______ ____
DOCKED: ROOT
DOCKED: ATOM      1  C   UNL     1     140.383  76.145 221.904 -0.28 -0.05    +0.208 A  
DOCKED: ATOM      2  N   UNL     1     141.376  75.315 221.749 -0.19 +0.07    -0.251 N  
DOCKED: ATOM      3  N   UNL     1     141.083  74.048 221.807 -0.55 +0.01    -0.167 NA 
DOCKED: ATOM      4  C   UNL     1     140.085  73.514 221.976 -0.25 -0.01    +0.116 A  
DOCKED: ATOM      5  S   UNL     1     138.910  74.988 222.155 -0.22 +0.02    -0.080 S  
DOCKED: ATOM      6  H   UNL     1     142.381  75.642 221.582 -0.48 -0.13    +0.193 HD 
DOCKED: ENDROOT
DOCKED: BRANCH   1   7
DOCKED: ATOM      7  N   UNL     1     140.229  77.408 221.919 -0.22 +0.05    -0.184 NA 
DOCKED: BRANCH   7   8
DOCKED: ATOM      8  C   UNL     1     141.181  78.197 221.220 -0.21 -0.12    +0.251 C  
DOCKED: ATOM      9  O   UNL     1     142.118  77.618 220.636 -0.22 +0.19    -0.272 OA 
DOCKED: BRANCH   8  10
DOCKED: ATOM     10  C   UNL     1     140.982  79.668 221.236 -0.27 -0.03    +0.086 C  
DOCKED: ATOM     11  C   UNL     1     141.831  80.278 220.157 -0.32 -0.01    +0.019 C  
DOCKED: BRANCH  10  12
DOCKED: ATOM     12  C   UNL     1     141.182  80.300 222.575 -0.48 +0.00    -0.001 C  
DOCKED: ATOM     13  C   UNL     1     141.545  81.761 222.325 -0.43 -0.00    +0.014 C  
DOCKED: ATOM     14  C   UNL     1     139.902  80.257 223.352 -0.43 -0.00    +0.014 C  
DOCKED: BRANCH  12  15
DOCKED: ATOM     15  C   UNL     1     142.267  79.643 223.398 -0.51 -0.05    +0.163 C  
DOCKED: BRANCH  15  16
DOCKED: ATOM     16  O   UNL     1     143.442  79.429 222.720 -0.26 +0.22    -0.396 OA 
DOCKED: ATOM     17  H   UNL     1     143.368  78.770 221.974 -0.47 -0.22    +0.210 HD 
DOCKED: ENDBRANCH  15  16
DOCKED: ENDBRANCH  12  15
DOCKED: ENDBRANCH  10  12
DOCKED: ENDBRANCH   8  10
DOCKED: ENDBRANCH   7   8
DOCKED: ENDBRANCH   1   7
DOCKED: BRANCH   4  18
DOCKED: ATOM     18  C   UNL     1     139.327  72.207 222.110 -0.23 -0.01    +0.070 C  
DOCKED: BRANCH  18  19
DOCKED: ATOM     19  C   UNL     1     138.147  72.312 221.198 -0.11 -0.00    +0.008 C  
DOCKED: BRANCH  19  20
DOCKED: ATOM     20  C   UNL     1     138.539  71.892 219.821 -0.04 -0.00    +0.008 C  
DOCKED: BRANCH  20  21
DOCKED: ATOM     21  C   UNL     1     138.200  72.963 218.812 -0.01 -0.01    +0.070 C  
DOCKED: BRANCH  21  22
DOCKED: ATOM     22  C   UNL     1     139.299  73.960 218.827 -0.02 -0.02    +0.116 A  
DOCKED: ATOM     23  N   UNL     1     139.566  75.080 219.034 -0.02 +0.04    -0.167 NA 
DOCKED: ATOM     24  S   UNL     1     141.059  73.345 218.341 -0.04 +0.02    -0.080 S  
DOCKED: ATOM     25  N   UNL     1     140.709  75.696 218.954 -0.02 +0.08    -0.251 N  
DOCKED: ATOM     26  C   UNL     1     141.726  74.980 218.590 -0.05 -0.07    +0.208 A  
DOCKED: ATOM     27  H   UNL     1     140.782  76.744 219.184 +0.06 -0.07    +0.193 HD 
DOCKED: BRANCH  26  28
DOCKED: ATOM     28  N   UNL     1     143.024  75.288 218.409 -0.14 +0.08    -0.183 NA 
DOCKED: BRANCH  28  29
DOCKED: ATOM     29  C   UNL     1     143.894  74.854 219.443 -0.19 -0.12    +0.255 C  
DOCKED: ATOM     30  O   UNL     1     144.223  75.533 220.426 -0.24 +0.18    -0.272 OA 
DOCKED: BRANCH  29  31
DOCKED: ATOM     31  C   UNL     1     144.446  73.473 219.321 -0.27 -0.02    +0.123 C  
DOCKED: ATOM     32  C   UNL     1     145.902  73.396 219.661 -0.29 +0.05    +0.243 C  
DOCKED: ATOM     33  C   UNL     1     143.716  72.493 220.223 -0.29 -0.01    +0.056 C  
DOCKED: ATOM     34  O   UNL     1     146.321  72.071 219.392 -0.42 -0.59    -0.492 OA 
DOCKED: ATOM     35  C   UNL     1     144.128  71.132 219.747 -0.25 +0.00    -0.005 A  
DOCKED: ATOM     36  C   UNL     1     145.442  71.002 219.350 -0.24 +0.05    +0.122 A  
DOCKED: ATOM     37  C   UNL     1     143.249  70.094 219.713 -0.19 -0.00    +0.007 A  
DOCKED: ATOM     38  C   UNL     1     145.836  69.743 218.906 -0.33 +0.02    +0.047 A  
DOCKED: ATOM     39  C   UNL     1     143.640  68.840 219.271 -0.24 -0.00    +0.001 A  
DOCKED: ATOM     40  C   UNL     1     144.953  68.684 218.868 -0.32 +0.00    +0.004 A  
DOCKED: ENDBRANCH  29  31
DOCKED: ENDBRANCH  28  29
DOCKED: ENDBRANCH  26  28
DOCKED: ENDBRANCH  21  22
DOCKED: ENDBRANCH  20  21
DOCKED: ENDBRANCH  19  20
DOCKED: ENDBRANCH  18  19
DOCKED: ENDBRANCH   4  18
DOCKED: TORSDOF 14
DOCKED: TER
DOCKED: ENDMDL
________________________________________________________________________________


    FINAL DOCKED STATE:
    ________________________


Run:   7 / 20
Time taken for this run:   0.173s

DOCKED: MODEL        7
DOCKED: USER    Run = 7
DOCKED: USER
DOCKED: USER    Estimated Free Energy of Binding    =  -9.50 kcal/mol  [=(1)+(2)+(3)-(4)]
DOCKED: USER
DOCKED: USER    (1) Final Intermolecular Energy     = -13.68 kcal/mol
DOCKED: USER        vdW + Hbond + desolv Energy     = -13.44 kcal/mol
DOCKED: USER        Electrostatic Energy            =  -0.23 kcal/mol
DOCKED: USER        Moving Ligand-Fixed Receptor    = -13.68 kcal/mol
DOCKED: USER        Moving Ligand-Moving Receptor   =  +0.00 kcal/mol
DOCKED: USER    (2) Final Total Internal Energy     =  -1.71 kcal/mol
DOCKED: USER    (3) Torsional Free Energy           =  +4.18 kcal/mol
DOCKED: USER    (4) Unbound System's Energy         =  -1.71 kcal/mol
DOCKED: USER
DOCKED: USER
DOCKED: REMARK SMILES C[C@@H](C(=O)/N=c1/[nH]nc(CCCCc2n[nH]/c(=N\C(=O)[C@H]3COc4ccccc4C3)s2)s1)C(C)(C)CO
DOCKED: REMARK SMILES IDX 6 1 7 2 8 3 9 4 32 5 5 7 3 8 4 9 2 10 1 11 33 12 34 13 35 14
DOCKED: REMARK SMILES IDX 36 15 37 16 10 18 11 19 12 20 13 21 14 22 15 23 31 24 16 25
DOCKED: REMARK SMILES IDX 17 26 18 28 19 29 20 30 21 31 22 32 30 33 23 34 29 35 24 36
DOCKED: REMARK SMILES IDX 28 37 25 38 27 39 26 40
DOCKED: REMARK H PARENT 7 6 37 17 16 27
DOCKED: USER                              x       y       z     vdW  Elec       q    Type
DOCKED: USER                           _______ _______ _______ _____ _____    ______ ____
DOCKED: ROOT
DOCKED: ATOM      1  C   UNL     1     142.192  79.669 219.116 -0.20 -0.14    +0.208 A  
DOCKED: ATOM      2  N   UNL     1     142.927  79.515 218.051 -0.22 +0.27    -0.251 N  
DOCKED: ATOM      3  N   UNL     1     143.079  78.294 217.625 -0.19 +0.17    -0.167 NA 
DOCKED: ATOM      4  C   UNL     1     142.674  77.302 218.027 -0.26 -0.08    +0.116 A  
DOCKED: ATOM      5  S   UNL     1     141.684  77.896 219.528 -0.31 +0.04    -0.080 S  
DOCKED: ATOM      6  H   UNL     1     143.387  80.338 217.543 -0.42 -0.31    +0.193 HD 
DOCKED: ENDROOT
DOCKED: BRANCH   1   7
DOCKED: ATOM      7  N   UNL     1     141.802  80.642 219.836 -0.22 +0.08    -0.184 NA 
DOCKED: BRANCH   7   8
DOCKED: ATOM      8  C   UNL     1     140.821  80.377 220.829 -0.17 -0.08    +0.251 C  
DOCKED: ATOM      9  O   UNL     1     139.654  80.137 220.461 -0.05 +0.07    -0.272 OA 
DOCKED: BRANCH   8  10
DOCKED: ATOM     10  C   UNL     1     141.267  80.405 222.245 -0.40 -0.02    +0.086 C  
DOCKED: ATOM     11  C   UNL     1     142.768  80.470 222.272 -0.46 -0.01    +0.019 C  
DOCKED: BRANCH  10  12
DOCKED: ATOM     12  C   UNL     1     140.707  79.306 223.088 -0.49 +0.00    -0.001 C  
DOCKED: ATOM     13  C   UNL     1     141.761  78.976 224.141 -0.53 -0.00    +0.014 C  
DOCKED: ATOM     14  C   UNL     1     139.472  79.784 223.787 -0.43 -0.00    +0.014 C  
DOCKED: BRANCH  12  15
DOCKED: ATOM     15  C   UNL     1     140.366  78.058 222.305 -0.31 -0.05    +0.163 C  
DOCKED: BRANCH  15  16
DOCKED: ATOM     16  O   UNL     1     141.039  76.932 222.711 -0.26 +0.14    -0.396 OA 
DOCKED: ATOM     17  H   UNL     1     141.924  76.804 222.267 -0.46 -0.17    +0.210 HD 
DOCKED: ENDBRANCH  15  16
DOCKED: ENDBRANCH  12  15
DOCKED: ENDBRANCH  10  12
DOCKED: ENDBRANCH   8  10
DOCKED: ENDBRANCH   7   8
DOCKED: ENDBRANCH   1   7
DOCKED: BRANCH   4  18
DOCKED: ATOM     18  C   UNL     1     142.585  75.794 217.891 -0.17 -0.03    +0.070 C  
DOCKED: BRANCH  18  19
DOCKED: ATOM     19  C   UNL     1     142.250  75.270 219.250 -0.22 -0.00    +0.008 C  
DOCKED: BRANCH  19  20
DOCKED: ATOM     20  C   UNL     1     142.720  73.859 219.373 -0.20 -0.00    +0.008 C  
DOCKED: BRANCH  20  21
DOCKED: ATOM     21  C   UNL     1     142.885  73.469 220.822 -0.22 -0.01    +0.070 C  
DOCKED: BRANCH  21  22
DOCKED: ATOM     22  C   UNL     1     141.530  73.242 221.385 -0.19 -0.01    +0.116 A  
DOCKED: ATOM     23  N   UNL     1     140.650  73.735 221.977 -0.76 +0.01    -0.167 NA 
DOCKED: ATOM     24  S   UNL     1     140.746  71.500 221.132 -0.21 +0.01    -0.080 S  
DOCKED: ATOM     25  N   UNL     1     139.505  73.237 222.341 -0.17 +0.05    -0.251 N  
DOCKED: ATOM     26  C   UNL     1     139.278  72.007 222.008 -0.16 -0.04    +0.208 A  
DOCKED: ATOM     27  H   UNL     1     138.799  73.836 222.889 -0.54 -0.10    +0.193 HD 
DOCKED: BRANCH  26  28
DOCKED: ATOM     28  N   UNL     1     138.223  71.197 222.217 -0.09 +0.04    -0.183 NA 
DOCKED: BRANCH  28  29
DOCKED: ATOM     29  C   UNL     1     137.716  71.202 223.543 -0.14 -0.06    +0.255 C  
DOCKED: ATOM     30  O   UNL     1     136.782  71.911 223.944 -0.15 +0.08    -0.272 OA 
DOCKED: BRANCH  29  31
DOCKED: ATOM     31  C   UNL     1     138.369  70.278 224.515 -0.26 -0.02    +0.123 C  
DOCKED: ATOM     32  C   UNL     1     138.545  68.892 223.975 -0.21 -0.03    +0.243 C  
DOCKED: ATOM     33  C   UNL     1     139.739  70.779 224.937 -0.43 -0.01    +0.056 C  
DOCKED: ATOM     34  O   UNL     1     139.060  68.099 225.028 -0.51 +0.02    -0.492 OA 
DOCKED: ATOM     35  C   UNL     1     140.108  69.965 226.140 -0.51 +0.00    -0.005 A  
DOCKED: ATOM     36  C   UNL     1     139.735  68.637 226.110 -0.45 -0.02    +0.122 A  
DOCKED: ATOM     37  C   UNL     1     140.772  70.512 227.194 -0.62 -0.00    +0.007 A  
DOCKED: ATOM     38  C   UNL     1     140.071  67.871 227.223 -0.60 -0.01    +0.047 A  
DOCKED: ATOM     39  C   UNL     1     141.108  69.750 228.302 -0.57 -0.00    +0.001 A  
DOCKED: ATOM     40  C   UNL     1     140.744  68.416 228.296 -0.67 -0.00    +0.004 A  
DOCKED: ENDBRANCH  29  31
DOCKED: ENDBRANCH  28  29
DOCKED: ENDBRANCH  26  28
DOCKED: ENDBRANCH  21  22
DOCKED: ENDBRANCH  20  21
DOCKED: ENDBRANCH  19  20
DOCKED: ENDBRANCH  18  19
DOCKED: ENDBRANCH   4  18
DOCKED: TORSDOF 14
DOCKED: TER
DOCKED: ENDMDL
________________________________________________________________________________


    FINAL DOCKED STATE:
    ________________________


Run:   8 / 20
Time taken for this run:   0.173s

DOCKED: MODEL        8
DOCKED: USER    Run = 8
DOCKED: USER
DOCKED: USER    Estimated Free Energy of Binding    =  -7.34 kcal/mol  [=(1)+(2)+(3)-(4)]
DOCKED: USER
DOCKED: USER    (1) Final Intermolecular Energy     = -11.52 kcal/mol
DOCKED: USER        vdW + Hbond + desolv Energy     = -11.55 kcal/mol
DOCKED: USER        Electrostatic Energy            =  +0.03 kcal/mol
DOCKED: USER        Moving Ligand-Fixed Receptor    = -11.52 kcal/mol
DOCKED: USER        Moving Ligand-Moving Receptor   =  +0.00 kcal/mol
DOCKED: USER    (2) Final Total Internal Energy     =  -4.27 kcal/mol
DOCKED: USER    (3) Torsional Free Energy           =  +4.18 kcal/mol
DOCKED: USER    (4) Unbound System's Energy         =  -4.27 kcal/mol
DOCKED: USER
DOCKED: USER
DOCKED: REMARK SMILES C[C@@H](C(=O)/N=c1/[nH]nc(CCCCc2n[nH]/c(=N\C(=O)[C@H]3COc4ccccc4C3)s2)s1)C(C)(C)CO
DOCKED: REMARK SMILES IDX 6 1 7 2 8 3 9 4 32 5 5 7 3 8 4 9 2 10 1 11 33 12 34 13 35 14
DOCKED: REMARK SMILES IDX 36 15 37 16 10 18 11 19 12 20 13 21 14 22 15 23 31 24 16 25
DOCKED: REMARK SMILES IDX 17 26 18 28 19 29 20 30 21 31 22 32 30 33 23 34 29 35 24 36
DOCKED: REMARK SMILES IDX 28 37 25 38 27 39 26 40
DOCKED: REMARK H PARENT 7 6 37 17 16 27
DOCKED: USER                              x       y       z     vdW  Elec       q    Type
DOCKED: USER                           _______ _______ _______ _____ _____    ______ ____
DOCKED: ROOT
DOCKED: ATOM      1  C   UNL     1     141.939  76.789 219.187 -0.17 -0.11    +0.208 A  
DOCKED: ATOM      2  N   UNL     1     143.193  77.031 218.926 -0.23 +0.18    -0.251 N  
DOCKED: ATOM      3  N   UNL     1     143.833  76.110 218.265 -0.07 +0.11    -0.167 NA 
DOCKED: ATOM      4  C   UNL     1     143.486  75.097 217.860 -0.16 -0.05    +0.116 A  
DOCKED: ATOM      5  S   UNL     1     141.674  75.087 218.408 -0.12 +0.03    -0.080 S  
DOCKED: ATOM      6  H   UNL     1     143.683  77.932 219.232 -0.42 -0.21    +0.193 HD 
DOCKED: ENDROOT
DOCKED: BRANCH   1   7
DOCKED: ATOM      7  N   UNL     1     140.987  77.389 219.781 -0.11 +0.08    -0.184 NA 
DOCKED: BRANCH   7   8
DOCKED: ATOM      8  C   UNL     1     141.225  78.711 220.241 -0.16 -0.12    +0.251 C  
DOCKED: ATOM      9  O   UNL     1     142.167  79.354 219.737 -0.20 +0.18    -0.272 OA 
DOCKED: BRANCH   8  10
DOCKED: ATOM     10  C   UNL     1     140.322  79.233 221.298 -0.21 -0.03    +0.086 C  
DOCKED: ATOM     11  C   UNL     1     140.567  80.706 221.453 -0.29 -0.00    +0.019 C  
DOCKED: BRANCH  10  12
DOCKED: ATOM     12  C   UNL     1     140.389  78.482 222.588 -0.42 +0.00    -0.001 C  
DOCKED: ATOM     13  C   UNL     1     141.808  78.649 223.124 -0.55 -0.01    +0.014 C  
DOCKED: ATOM     14  C   UNL     1     139.437  79.086 223.575 -0.33 -0.00    +0.014 C  
DOCKED: BRANCH  12  15
DOCKED: ATOM     15  C   UNL     1     140.070  77.011 222.449 -0.26 -0.04    +0.163 C  
DOCKED: BRANCH  15  16
DOCKED: ATOM     16  O   UNL     1     141.165  76.210 222.240 -0.25 +0.14    -0.396 OA 
DOCKED: ATOM     17  H   UNL     1     141.845  76.602 221.622 -0.47 -0.14    +0.210 HD 
DOCKED: ENDBRANCH  15  16
DOCKED: ENDBRANCH  12  15
DOCKED: ENDBRANCH  10  12
DOCKED: ENDBRANCH   8  10
DOCKED: ENDBRANCH   7   8
DOCKED: ENDBRANCH   1   7
DOCKED: BRANCH   4  18
DOCKED: ATOM     18  C   UNL     1     143.825  73.822 217.111 -0.10 -0.02    +0.070 C  
DOCKED: BRANCH  18  19
DOCKED: ATOM     19  C   UNL     1     145.281  73.575 217.342 -0.15 +0.00    +0.008 C  
DOCKED: BRANCH  19  20
DOCKED: ATOM     20  C   UNL     1     145.451  72.483 218.344 -0.18 +0.00    +0.008 C  
DOCKED: BRANCH  20  21
DOCKED: ATOM     21  C   UNL     1     145.577  73.044 219.740 -0.43 +0.01    +0.070 C  
DOCKED: BRANCH  21  22
DOCKED: ATOM     22  C   UNL     1     144.209  73.150 220.307 -0.34 -0.02    +0.116 A  
DOCKED: ATOM     23  N   UNL     1     143.426  73.882 220.774 -0.23 +0.04    -0.167 NA 
DOCKED: ATOM     24  S   UNL     1     143.156  71.539 220.384 -0.29 +0.01    -0.080 S  
DOCKED: ATOM     25  N   UNL     1     142.220  73.654 221.204 -0.12 +0.04    -0.251 N  
DOCKED: ATOM     26  C   UNL     1     141.796  72.434 221.113 -0.17 -0.02    +0.208 A  
DOCKED: ATOM     27  H   UNL     1     141.625  74.453 221.610 +0.04 -0.03    +0.193 HD 
DOCKED: BRANCH  26  28
DOCKED: ATOM     28  N   UNL     1     140.628  71.859 221.454 -0.15 +0.02    -0.183 NA 
DOCKED: BRANCH  28  29
DOCKED: ATOM     29  C   UNL     1     139.986  72.429 222.584 -0.20 -0.04    +0.255 C  
DOCKED: ATOM     30  O   UNL     1     139.582  73.599 222.657 -0.65 +0.05    -0.272 OA 
DOCKED: BRANCH  29  31
DOCKED: ATOM     31  C   UNL     1     139.789  71.539 223.766 -0.31 -0.03    +0.123 C  
DOCKED: ATOM     32  C   UNL     1     139.483  70.124 223.386 -0.16 -0.04    +0.243 C  
DOCKED: ATOM     33  C   UNL     1     141.015  71.514 224.662 -0.22 -0.01    +0.056 C  
DOCKED: ATOM     34  O   UNL     1     139.205  69.423 224.584 -0.09 +0.08    -0.492 OA 
DOCKED: ATOM     35  C   UNL     1     140.557  70.886 225.944 -0.59 +0.00    -0.005 A  
DOCKED: ATOM     36  C   UNL     1     139.654  69.849 225.821 -0.38 -0.02    +0.122 A  
DOCKED: ATOM     37  C   UNL     1     141.010  71.318 227.151 -0.73 -0.00    +0.007 A  
DOCKED: ATOM     38  C   UNL     1     139.222  69.258 227.005 -0.45 -0.01    +0.047 A  
DOCKED: ATOM     39  C   UNL     1     140.581  70.730 228.330 -0.61 -0.00    +0.001 A  
DOCKED: ATOM     40  C   UNL     1     139.676  69.689 228.234 -0.62 -0.00    +0.004 A  
DOCKED: ENDBRANCH  29  31
DOCKED: ENDBRANCH  28  29
DOCKED: ENDBRANCH  26  28
DOCKED: ENDBRANCH  21  22
DOCKED: ENDBRANCH  20  21
DOCKED: ENDBRANCH  19  20
DOCKED: ENDBRANCH  18  19
DOCKED: ENDBRANCH   4  18
DOCKED: TORSDOF 14
DOCKED: TER
DOCKED: ENDMDL
________________________________________________________________________________


    FINAL DOCKED STATE:
    ________________________


Run:   9 / 20
Time taken for this run:   0.173s

DOCKED: MODEL        9
DOCKED: USER    Run = 9
DOCKED: USER
DOCKED: USER    Estimated Free Energy of Binding    =  -6.33 kcal/mol  [=(1)+(2)+(3)-(4)]
DOCKED: USER
DOCKED: USER    (1) Final Intermolecular Energy     = -10.51 kcal/mol
DOCKED: USER        vdW + Hbond + desolv Energy     = -10.47 kcal/mol
DOCKED: USER        Electrostatic Energy            =  -0.03 kcal/mol
DOCKED: USER        Moving Ligand-Fixed Receptor    = -10.51 kcal/mol
DOCKED: USER        Moving Ligand-Moving Receptor   =  +0.00 kcal/mol
DOCKED: USER    (2) Final Total Internal Energy     =  -4.66 kcal/mol
DOCKED: USER    (3) Torsional Free Energy           =  +4.18 kcal/mol
DOCKED: USER    (4) Unbound System's Energy         =  -4.66 kcal/mol
DOCKED: USER
DOCKED: USER
DOCKED: REMARK SMILES C[C@@H](C(=O)/N=c1/[nH]nc(CCCCc2n[nH]/c(=N\C(=O)[C@H]3COc4ccccc4C3)s2)s1)C(C)(C)CO
DOCKED: REMARK SMILES IDX 6 1 7 2 8 3 9 4 32 5 5 7 3 8 4 9 2 10 1 11 33 12 34 13 35 14
DOCKED: REMARK SMILES IDX 36 15 37 16 10 18 11 19 12 20 13 21 14 22 15 23 31 24 16 25
DOCKED: REMARK SMILES IDX 17 26 18 28 19 29 20 30 21 31 22 32 30 33 23 34 29 35 24 36
DOCKED: REMARK SMILES IDX 28 37 25 38 27 39 26 40
DOCKED: REMARK H PARENT 7 6 37 17 16 27
DOCKED: USER                              x       y       z     vdW  Elec       q    Type
DOCKED: USER                           _______ _______ _______ _____ _____    ______ ____
DOCKED: ROOT
DOCKED: ATOM      1  C   UNL     1     142.470  76.901 219.724 -0.25 -0.13    +0.208 A  
DOCKED: ATOM      2  N   UNL     1     141.838  77.107 220.846 -0.14 +0.16    -0.251 N  
DOCKED: ATOM      3  N   UNL     1     140.999  78.102 220.861 -0.17 +0.07    -0.167 NA 
DOCKED: ATOM      4  C   UNL     1     140.706  78.851 220.048 -0.15 -0.05    +0.116 A  
DOCKED: ATOM      5  S   UNL     1     141.787  78.265 218.608 -0.28 +0.05    -0.080 S  
DOCKED: ATOM      6  H   UNL     1     141.990  76.499 221.713 -0.49 -0.15    +0.193 HD 
DOCKED: ENDROOT
DOCKED: BRANCH   1   7
DOCKED: ATOM      7  N   UNL     1     143.337  76.078 219.290 -0.27 +0.11    -0.184 NA 
DOCKED: BRANCH   7   8
DOCKED: ATOM      8  C   UNL     1     143.407  74.803 219.914 -0.25 -0.11    +0.251 C  
DOCKED: ATOM      9  O   UNL     1     142.732  74.608 220.943 -0.21 +0.10    -0.272 OA 
DOCKED: BRANCH   8  10
DOCKED: ATOM     10  C   UNL     1     144.290  73.790 219.283 -0.28 -0.02    +0.086 C  
DOCKED: ATOM     11  C   UNL     1     143.660  73.343 217.994 -0.12 -0.00    +0.019 C  
DOCKED: BRANCH  10  12
DOCKED: ATOM     12  C   UNL     1     144.665  72.657 220.182 -0.43 +0.00    -0.001 C  
DOCKED: ATOM     13  C   UNL     1     145.419  71.644 219.326 -0.31 +0.01    +0.014 C  
DOCKED: ATOM     14  C   UNL     1     145.587  73.147 221.256 -0.62 -0.00    +0.014 C  
DOCKED: BRANCH  12  15
DOCKED: ATOM     15  C   UNL     1     143.479  71.984 220.834 -0.21 -0.02    +0.163 C  
DOCKED: BRANCH  15  16
DOCKED: ATOM     16  O   UNL     1     142.288  72.173 220.178 -0.07 +0.06    -0.396 OA 
DOCKED: ATOM     17  H   UNL     1     141.632  72.735 220.677 +0.07 -0.03    +0.210 HD 
DOCKED: ENDBRANCH  15  16
DOCKED: ENDBRANCH  12  15
DOCKED: ENDBRANCH  10  12
DOCKED: ENDBRANCH   8  10
DOCKED: ENDBRANCH   7   8
DOCKED: ENDBRANCH   1   7
DOCKED: BRANCH   4  18
DOCKED: ATOM     18  C   UNL     1     139.871  80.049 219.636 -0.09 -0.02    +0.070 C  
DOCKED: BRANCH  18  19
DOCKED: ATOM     19  C   UNL     1     138.485  79.536 219.414 -0.04 -0.00    +0.008 C  
DOCKED: BRANCH  19  20
DOCKED: ATOM     20  C   UNL     1     138.539  78.101 219.012 -0.03 -0.00    +0.008 C  
DOCKED: BRANCH  20  21
DOCKED: ATOM     21  C   UNL     1     137.459  77.304 219.704 -0.02 -0.01    +0.070 C  
DOCKED: BRANCH  21  22
DOCKED: ATOM     22  C   UNL     1     138.106  76.498 220.770 -0.08 -0.02    +0.116 A  
DOCKED: ATOM     23  N   UNL     1     138.187  76.336 221.925 -0.17 +0.04    -0.167 NA 
DOCKED: ATOM     24  S   UNL     1     139.331  75.118 220.215 -0.12 +0.02    -0.080 S  
DOCKED: ATOM     25  N   UNL     1     138.895  75.481 222.603 -0.14 +0.06    -0.251 N  
DOCKED: ATOM     26  C   UNL     1     139.633  74.669 221.915 -0.21 -0.03    +0.208 A  
DOCKED: ATOM     27  H   UNL     1     138.852  75.467 223.677 -0.38 -0.07    +0.193 HD 
DOCKED: BRANCH  26  28
DOCKED: ATOM     28  N   UNL     1     140.470  73.682 222.283 -0.75 -0.00    -0.183 NA 
DOCKED: BRANCH  28  29
DOCKED: ATOM     29  C   UNL     1     139.956  72.369 222.126 -0.20 -0.04    +0.255 C  
DOCKED: ATOM     30  O   UNL     1     139.661  71.845 221.042 -0.07 +0.05    -0.272 OA 
DOCKED: BRANCH  29  31
DOCKED: ATOM     31  C   UNL     1     139.760  71.570 223.372 -0.30 -0.02    +0.123 C  
DOCKED: ATOM     32  C   UNL     1     139.396  70.144 223.099 -0.15 -0.04    +0.243 C  
DOCKED: ATOM     33  C   UNL     1     141.008  71.563 224.238 -0.01 -0.00    +0.056 C  
DOCKED: ATOM     34  O   UNL     1     139.126  69.538 224.349 -0.08 +0.08    -0.492 OA 
DOCKED: ATOM     35  C   UNL     1     140.563  71.041 225.571 -0.57 +0.00    -0.005 A  
DOCKED: ATOM     36  C   UNL     1     139.622  70.032 225.543 -0.37 -0.02    +0.122 A  
DOCKED: ATOM     37  C   UNL     1     141.062  71.539 226.734 -0.73 -0.00    +0.007 A  
DOCKED: ATOM     38  C   UNL     1     139.201  69.539 226.775 -0.42 -0.01    +0.047 A  
DOCKED: ATOM     39  C   UNL     1     140.644  71.049 227.961 -0.74 -0.00    +0.001 A  
DOCKED: ATOM     40  C   UNL     1     139.703  70.037 227.959 -0.61 -0.00    +0.004 A  
DOCKED: ENDBRANCH  29  31
DOCKED: ENDBRANCH  28  29
DOCKED: ENDBRANCH  26  28
DOCKED: ENDBRANCH  21  22
DOCKED: ENDBRANCH  20  21
DOCKED: ENDBRANCH  19  20
DOCKED: ENDBRANCH  18  19
DOCKED: ENDBRANCH   4  18
DOCKED: TORSDOF 14
DOCKED: TER
DOCKED: ENDMDL
________________________________________________________________________________


    FINAL DOCKED STATE:
    ________________________


Run:   10 / 20
Time taken for this run:   0.173s

DOCKED: MODEL        10
DOCKED: USER    Run = 10
DOCKED: USER
DOCKED: USER    Estimated Free Energy of Binding    =  -5.58 kcal/mol  [=(1)+(2)+(3)-(4)]
DOCKED: USER
DOCKED: USER    (1) Final Intermolecular Energy     =  -9.76 kcal/mol
DOCKED: USER        vdW + Hbond + desolv Energy     =  -9.91 kcal/mol
DOCKED: USER        Electrostatic Energy            =  +0.15 kcal/mol
DOCKED: USER        Moving Ligand-Fixed Receptor    =  -9.76 kcal/mol
DOCKED: USER        Moving Ligand-Moving Receptor   =  +0.00 kcal/mol
DOCKED: USER    (2) Final Total Internal Energy     =  -6.42 kcal/mol
DOCKED: USER    (3) Torsional Free Energy           =  +4.18 kcal/mol
DOCKED: USER    (4) Unbound System's Energy         =  -6.42 kcal/mol
DOCKED: USER
DOCKED: USER
DOCKED: REMARK SMILES C[C@@H](C(=O)/N=c1/[nH]nc(CCCCc2n[nH]/c(=N\C(=O)[C@H]3COc4ccccc4C3)s2)s1)C(C)(C)CO
DOCKED: REMARK SMILES IDX 6 1 7 2 8 3 9 4 32 5 5 7 3 8 4 9 2 10 1 11 33 12 34 13 35 14
DOCKED: REMARK SMILES IDX 36 15 37 16 10 18 11 19 12 20 13 21 14 22 15 23 31 24 16 25
DOCKED: REMARK SMILES IDX 17 26 18 28 19 29 20 30 21 31 22 32 30 33 23 34 29 35 24 36
DOCKED: REMARK SMILES IDX 28 37 25 38 27 39 26 40
DOCKED: REMARK H PARENT 7 6 37 17 16 27
DOCKED: USER                              x       y       z     vdW  Elec       q    Type
DOCKED: USER                           _______ _______ _______ _____ _____    ______ ____
DOCKED: ROOT
DOCKED: ATOM      1  C   UNL     1     142.287  76.242 218.641 -0.16 -0.10    +0.208 A  
DOCKED: ATOM      2  N   UNL     1     141.306  76.308 219.496 -0.08 +0.10    -0.251 N  
DOCKED: ATOM      3  N   UNL     1     140.935  77.503 219.856 -0.11 +0.07    -0.167 NA 
DOCKED: ATOM      4  C   UNL     1     141.323  78.535 219.552 -0.19 -0.06    +0.116 A  
DOCKED: ATOM      5  S   UNL     1     142.699  78.062 218.340 -0.34 +0.06    -0.080 S  
DOCKED: ATOM      6  H   UNL     1     140.822  75.438 219.888 +0.06 -0.06    +0.193 HD 
DOCKED: ENDROOT
DOCKED: BRANCH   1   7
DOCKED: ATOM      7  N   UNL     1     142.935  75.322 218.048 -0.12 +0.08    -0.184 NA 
DOCKED: BRANCH   7   8
DOCKED: ATOM      8  C   UNL     1     142.649  73.977 218.407 -0.05 -0.07    +0.251 C  
DOCKED: ATOM      9  O   UNL     1     141.464  73.661 218.629 -0.02 +0.06    -0.272 OA 
DOCKED: BRANCH   8  10
DOCKED: ATOM     10  C   UNL     1     143.798  73.041 218.489 -0.13 -0.01    +0.086 C  
DOCKED: ATOM     11  C   UNL     1     143.358  71.697 217.982 -0.07 -0.00    +0.019 C  
DOCKED: BRANCH  10  12
DOCKED: ATOM     12  C   UNL     1     144.449  72.982 219.833 -0.38 +0.00    -0.001 C  
DOCKED: ATOM     13  C   UNL     1     143.617  72.030 220.686 -0.30 -0.00    +0.014 C  
DOCKED: ATOM     14  C   UNL     1     145.830  72.416 219.702 -0.39 +0.01    +0.014 C  
DOCKED: BRANCH  12  15
DOCKED: ATOM     15  C   UNL     1     144.542  74.326 220.518 -0.35 -0.06    +0.163 C  
DOCKED: BRANCH  15  16
DOCKED: ATOM     16  O   UNL     1     143.333  74.851 220.904 -0.06 +0.20    -0.396 OA 
DOCKED: ATOM     17  H   UNL     1     142.614  74.766 220.217 +0.07 -0.08    +0.210 HD 
DOCKED: ENDBRANCH  15  16
DOCKED: ENDBRANCH  12  15
DOCKED: ENDBRANCH  10  12
DOCKED: ENDBRANCH   8  10
DOCKED: ENDBRANCH   7   8
DOCKED: ENDBRANCH   1   7
DOCKED: BRANCH   4  18
DOCKED: ATOM     18  C   UNL     1     141.224  80.043 219.686 -0.23 -0.03    +0.070 C  
DOCKED: BRANCH  18  19
DOCKED: ATOM     19  C   UNL     1     141.763  80.379 221.039 -0.38 -0.00    +0.008 C  
DOCKED: BRANCH  19  20
DOCKED: ATOM     20  C   UNL     1     140.644  80.798 221.933 -0.35 -0.00    +0.008 C  
DOCKED: BRANCH  20  21
DOCKED: ATOM     21  C   UNL     1     140.674  80.029 223.233 -0.44 -0.01    +0.070 C  
DOCKED: BRANCH  21  22
DOCKED: ATOM     22  C   UNL     1     140.697  78.582 222.899 -0.39 -0.03    +0.116 A  
DOCKED: ATOM     23  N   UNL     1     141.391  77.665 222.687 -0.29 +0.08    -0.167 NA 
DOCKED: ATOM     24  S   UNL     1     138.999  77.693 222.697 -0.33 +0.01    -0.080 S  
DOCKED: ATOM     25  N   UNL     1     141.085  76.432 222.405 -0.24 +0.09    -0.251 N  
DOCKED: ATOM     26  C   UNL     1     139.822  76.151 222.342 -0.27 -0.04    +0.208 A  
DOCKED: ATOM     27  H   UNL     1     141.857  75.703 222.237 -0.46 -0.09    +0.193 HD 
DOCKED: BRANCH  26  28
DOCKED: ATOM     28  N   UNL     1     139.168  75.005 222.080 -0.40 +0.04    -0.183 NA 
DOCKED: BRANCH  28  29
DOCKED: ATOM     29  C   UNL     1     139.992  73.855 221.968 -0.16 -0.03    +0.255 C  
DOCKED: ATOM     30  O   UNL     1     141.044  73.795 221.316 -0.30 +0.04    -0.272 OA 
DOCKED: BRANCH  29  31
DOCKED: ATOM     31  C   UNL     1     139.542  72.632 222.697 -0.15 -0.03    +0.123 C  
DOCKED: ATOM     32  C   UNL     1     138.818  71.661 221.816 -0.11 -0.05    +0.243 C  
DOCKED: ATOM     33  C   UNL     1     140.708  71.892 223.328 -0.26 -0.00    +0.056 C  
DOCKED: ATOM     34  O   UNL     1     138.349  70.617 222.647 -0.03 +0.10    -0.492 OA 
DOCKED: ATOM     35  C   UNL     1     140.090  70.922 224.289 -0.43 +0.00    -0.005 A  
DOCKED: ATOM     36  C   UNL     1     138.915  70.327 223.877 -0.26 -0.02    +0.122 A  
DOCKED: ATOM     37  C   UNL     1     140.661  70.650 225.493 -0.55 -0.00    +0.007 A  
DOCKED: ATOM     38  C   UNL     1     138.331  69.425 224.761 -0.32 -0.01    +0.047 A  
DOCKED: ATOM     39  C   UNL     1     140.081  69.751 226.374 -0.52 -0.00    +0.001 A  
DOCKED: ATOM     40  C   UNL     1     138.903  69.142 225.984 -0.44 -0.00    +0.004 A  
DOCKED: ENDBRANCH  29  31
DOCKED: ENDBRANCH  28  29
DOCKED: ENDBRANCH  26  28
DOCKED: ENDBRANCH  21  22
DOCKED: ENDBRANCH  20  21
DOCKED: ENDBRANCH  19  20
DOCKED: ENDBRANCH  18  19
DOCKED: ENDBRANCH   4  18
DOCKED: TORSDOF 14
DOCKED: TER
DOCKED: ENDMDL
________________________________________________________________________________


    FINAL DOCKED STATE:
    ________________________


Run:   11 / 20
Time taken for this run:   0.173s

DOCKED: MODEL        11
DOCKED: USER    Run = 11
DOCKED: USER
DOCKED: USER    Estimated Free Energy of Binding    =  -7.18 kcal/mol  [=(1)+(2)+(3)-(4)]
DOCKED: USER
DOCKED: USER    (1) Final Intermolecular Energy     = -11.35 kcal/mol
DOCKED: USER        vdW + Hbond + desolv Energy     = -10.84 kcal/mol
DOCKED: USER        Electrostatic Energy            =  -0.51 kcal/mol
DOCKED: USER        Moving Ligand-Fixed Receptor    = -11.35 kcal/mol
DOCKED: USER        Moving Ligand-Moving Receptor   =  +0.00 kcal/mol
DOCKED: USER    (2) Final Total Internal Energy     =  -2.99 kcal/mol
DOCKED: USER    (3) Torsional Free Energy           =  +4.18 kcal/mol
DOCKED: USER    (4) Unbound System's Energy         =  -2.99 kcal/mol
DOCKED: USER
DOCKED: USER
DOCKED: REMARK SMILES C[C@@H](C(=O)/N=c1/[nH]nc(CCCCc2n[nH]/c(=N\C(=O)[C@H]3COc4ccccc4C3)s2)s1)C(C)(C)CO
DOCKED: REMARK SMILES IDX 6 1 7 2 8 3 9 4 32 5 5 7 3 8 4 9 2 10 1 11 33 12 34 13 35 14
DOCKED: REMARK SMILES IDX 36 15 37 16 10 18 11 19 12 20 13 21 14 22 15 23 31 24 16 25
DOCKED: REMARK SMILES IDX 17 26 18 28 19 29 20 30 21 31 22 32 30 33 23 34 29 35 24 36
DOCKED: REMARK SMILES IDX 28 37 25 38 27 39 26 40
DOCKED: REMARK H PARENT 7 6 37 17 16 27
DOCKED: USER                              x       y       z     vdW  Elec       q    Type
DOCKED: USER                           _______ _______ _______ _____ _____    ______ ____
DOCKED: ROOT
DOCKED: ATOM      1  C   UNL     1     145.424  71.644 218.753 -0.15 +0.12    +0.208 A  
DOCKED: ATOM      2  N   UNL     1     145.823  71.945 219.956 -0.21 -0.09    -0.251 N  
DOCKED: ATOM      3  N   UNL     1     145.403  73.081 220.436 -0.41 +0.01    -0.167 NA 
DOCKED: ATOM      4  C   UNL     1     144.730  73.886 219.981 -0.39 -0.03    +0.116 A  
DOCKED: ATOM      5  S   UNL     1     144.356  73.131 218.285 -0.22 +0.00    -0.080 S  
DOCKED: ATOM      6  H   UNL     1     146.460  71.305 220.531 -0.40 +0.03    +0.193 HD 
DOCKED: ENDROOT
DOCKED: BRANCH   1   7
DOCKED: ATOM      7  N   UNL     1     145.588  70.679 217.940 -0.17 -0.11    -0.184 NA 
DOCKED: BRANCH   7   8
DOCKED: ATOM      8  C   UNL     1     146.236  69.511 218.425 -0.18 +0.14    +0.251 C  
DOCKED: ATOM      9  O   UNL     1     147.077  69.634 219.337 -0.41 -0.27    -0.272 OA 
DOCKED: BRANCH   8  10
DOCKED: ATOM     10  C   UNL     1     145.855  68.218 217.801 -0.27 -0.00    +0.086 C  
DOCKED: ATOM     11  C   UNL     1     145.409  68.481 216.391 -0.14 -0.00    +0.019 C  
DOCKED: BRANCH  10  12
DOCKED: ATOM     12  C   UNL     1     144.873  67.419 218.594 -0.39 +0.00    -0.001 C  
DOCKED: ATOM     13  C   UNL     1     143.625  67.267 217.730 -0.18 -0.01    +0.014 C  
DOCKED: ATOM     14  C   UNL     1     145.432  66.055 218.863 -0.41 -0.01    +0.014 C  
DOCKED: BRANCH  12  15
DOCKED: ATOM     15  C   UNL     1     144.501  68.056 219.913 -0.23 +0.01    +0.163 C  
DOCKED: BRANCH  15  16
DOCKED: ATOM     16  O   UNL     1     145.515  68.079 220.839 -0.50 -0.21    -0.396 OA 
DOCKED: ATOM     17  H   UNL     1     146.419  67.890 220.458 -0.00 +0.06    +0.210 HD 
DOCKED: ENDBRANCH  15  16
DOCKED: ENDBRANCH  12  15
DOCKED: ENDBRANCH  10  12
DOCKED: ENDBRANCH   8  10
DOCKED: ENDBRANCH   7   8
DOCKED: ENDBRANCH   1   7
DOCKED: BRANCH   4  18
DOCKED: ATOM     18  C   UNL     1     144.037  75.227 220.133 -0.29 -0.04    +0.070 C  
DOCKED: BRANCH  18  19
DOCKED: ATOM     19  C   UNL     1     142.599  74.927 220.404 -0.31 -0.00    +0.008 C  
DOCKED: BRANCH  19  20
DOCKED: ATOM     20  C   UNL     1     141.736  75.824 219.582 -0.22 -0.00    +0.008 C  
DOCKED: BRANCH  20  21
DOCKED: ATOM     21  C   UNL     1     142.350  76.071 218.225 -0.18 -0.03    +0.070 C  
DOCKED: BRANCH  21  22
DOCKED: ATOM     22  C   UNL     1     142.337  77.536 217.984 -0.23 -0.08    +0.116 A  
DOCKED: ATOM     23  N   UNL     1     142.983  78.452 217.652 -0.23 +0.17    -0.167 NA 
DOCKED: ATOM     24  S   UNL     1     140.677  78.467 218.285 -0.12 +0.03    -0.080 S  
DOCKED: ATOM     25  N   UNL     1     142.657  79.706 217.531 -0.17 +0.28    -0.251 N  
DOCKED: ATOM     26  C   UNL     1     141.432  80.014 217.817 -0.14 -0.13    +0.208 A  
DOCKED: ATOM     27  H   UNL     1     143.383  80.430 217.208 -0.48 -0.37    +0.193 HD 
DOCKED: BRANCH  26  28
DOCKED: ATOM     28  N   UNL     1     140.772  81.186 217.802 -0.06 +0.08    -0.183 NA 
DOCKED: BRANCH  28  29
DOCKED: ATOM     29  C   UNL     1     141.169  82.112 218.801 -0.13 -0.09    +0.255 C  
DOCKED: ATOM     30  O   UNL     1     141.345  83.326 218.617 -0.12 +0.09    -0.272 OA 
DOCKED: BRANCH  29  31
DOCKED: ATOM     31  C   UNL     1     141.387  81.568 220.173 -0.25 -0.04    +0.123 C  
DOCKED: ATOM     32  C   UNL     1     141.419  82.633 221.225 -0.17 -0.05    +0.243 C  
DOCKED: ATOM     33  C   UNL     1     140.306  80.575 220.564 -0.18 -0.02    +0.056 C  
DOCKED: ATOM     34  O   UNL     1     141.748  81.999 222.447 -0.16 +0.07    -0.492 OA 
DOCKED: ATOM     35  C   UNL     1     140.834  79.870 221.777 -0.33 +0.00    -0.005 A  
DOCKED: ATOM     36  C   UNL     1     141.542  80.649 222.669 -0.43 -0.03    +0.122 A  
DOCKED: ATOM     37  C   UNL     1     140.621  78.542 221.978 -0.34 -0.00    +0.007 A  
DOCKED: ATOM     38  C   UNL     1     142.037  80.005 223.800 -0.59 -0.01    +0.047 A  
DOCKED: ATOM     39  C   UNL     1     141.113  77.900 223.104 -0.46 -0.00    +0.001 A  
DOCKED: ATOM     40  C   UNL     1     141.826  78.659 224.013 -0.58 -0.00    +0.004 A  
DOCKED: ENDBRANCH  29  31
DOCKED: ENDBRANCH  28  29
DOCKED: ENDBRANCH  26  28
DOCKED: ENDBRANCH  21  22
DOCKED: ENDBRANCH  20  21
DOCKED: ENDBRANCH  19  20
DOCKED: ENDBRANCH  18  19
DOCKED: ENDBRANCH   4  18
DOCKED: TORSDOF 14
DOCKED: TER
DOCKED: ENDMDL
________________________________________________________________________________


    FINAL DOCKED STATE:
    ________________________


Run:   12 / 20
Time taken for this run:   0.173s

DOCKED: MODEL        12
DOCKED: USER    Run = 12
DOCKED: USER
DOCKED: USER    Estimated Free Energy of Binding    =  -3.24 kcal/mol  [=(1)+(2)+(3)-(4)]
DOCKED: USER
DOCKED: USER    (1) Final Intermolecular Energy     =  -7.41 kcal/mol
DOCKED: USER        vdW + Hbond + desolv Energy     =  -7.32 kcal/mol
DOCKED: USER        Electrostatic Energy            =  -0.09 kcal/mol
DOCKED: USER        Moving Ligand-Fixed Receptor    =  -7.41 kcal/mol
DOCKED: USER        Moving Ligand-Moving Receptor   =  +0.00 kcal/mol
DOCKED: USER    (2) Final Total Internal Energy     =  -7.22 kcal/mol
DOCKED: USER    (3) Torsional Free Energy           =  +4.18 kcal/mol
DOCKED: USER    (4) Unbound System's Energy         =  -7.22 kcal/mol
DOCKED: USER
DOCKED: USER
DOCKED: REMARK SMILES C[C@@H](C(=O)/N=c1/[nH]nc(CCCCc2n[nH]/c(=N\C(=O)[C@H]3COc4ccccc4C3)s2)s1)C(C)(C)CO
DOCKED: REMARK SMILES IDX 6 1 7 2 8 3 9 4 32 5 5 7 3 8 4 9 2 10 1 11 33 12 34 13 35 14
DOCKED: REMARK SMILES IDX 36 15 37 16 10 18 11 19 12 20 13 21 14 22 15 23 31 24 16 25
DOCKED: REMARK SMILES IDX 17 26 18 28 19 29 20 30 21 31 22 32 30 33 23 34 29 35 24 36
DOCKED: REMARK SMILES IDX 28 37 25 38 27 39 26 40
DOCKED: REMARK H PARENT 7 6 37 17 16 27
DOCKED: USER                              x       y       z     vdW  Elec       q    Type
DOCKED: USER                           _______ _______ _______ _____ _____    ______ ____
DOCKED: ROOT
DOCKED: ATOM      1  C   UNL     1     142.179  80.065 218.885 -0.24 -0.14    +0.208 A  
DOCKED: ATOM      2  N   UNL     1     142.884  80.333 217.822 -0.22 +0.28    -0.251 N  
DOCKED: ATOM      3  N   UNL     1     142.913  81.579 217.448 -0.27 +0.16    -0.167 NA 
DOCKED: ATOM      4  C   UNL     1     142.418  82.510 217.893 -0.22 -0.06    +0.116 A  
DOCKED: ATOM      5  S   UNL     1     141.506  81.761 219.375 -0.29 +0.03    -0.080 S  
DOCKED: ATOM      6  H   UNL     1     143.416  79.580 217.278 -0.52 -0.37    +0.193 HD 
DOCKED: ENDROOT
DOCKED: BRANCH   1   7
DOCKED: ATOM      7  N   UNL     1     141.891  79.029 219.566 -0.19 +0.11    -0.184 NA 
DOCKED: BRANCH   7   8
DOCKED: ATOM      8  C   UNL     1     142.237  77.764 219.020 -0.20 -0.16    +0.251 C  
DOCKED: ATOM      9  O   UNL     1     142.375  77.668 217.785 -0.18 +0.19    -0.272 OA 
DOCKED: BRANCH   8  10
DOCKED: ATOM     10  C   UNL     1     142.410  76.640 219.976 -0.27 -0.05    +0.086 C  
DOCKED: ATOM     11  C   UNL     1     143.723  75.969 219.692 -0.37 -0.01    +0.019 C  
DOCKED: BRANCH  10  12
DOCKED: ATOM     12  C   UNL     1     141.257  75.690 220.023 -0.21 +0.00    -0.001 C  
DOCKED: ATOM     13  C   UNL     1     141.796  74.367 220.559 -0.27 -0.00    +0.014 C  
DOCKED: ATOM     14  C   UNL     1     140.220  76.200 220.976 -0.25 -0.00    +0.014 C  
DOCKED: BRANCH  12  15
DOCKED: ATOM     15  C   UNL     1     140.606  75.463 218.678 -0.04 -0.05    +0.163 C  
DOCKED: BRANCH  15  16
DOCKED: ATOM     16  O   UNL     1     139.894  76.538 218.203 +0.01 +0.12    -0.396 OA 
DOCKED: ATOM     17  H   UNL     1     140.257  77.424 218.486 +0.04 -0.08    +0.210 HD 
DOCKED: ENDBRANCH  15  16
DOCKED: ENDBRANCH  12  15
DOCKED: ENDBRANCH  10  12
DOCKED: ENDBRANCH   8  10
DOCKED: ENDBRANCH   7   8
DOCKED: ENDBRANCH   1   7
DOCKED: BRANCH   4  18
DOCKED: ATOM     18  C   UNL     1     142.183  84.007 217.822 -0.13 -0.03    +0.070 C  
DOCKED: BRANCH  18  19
DOCKED: ATOM     19  C   UNL     1     141.374  84.245 216.589 -0.10 -0.00    +0.008 C  
DOCKED: BRANCH  19  20
DOCKED: ATOM     20  C   UNL     1     140.013  83.656 216.760 -0.05 -0.00    +0.008 C  
DOCKED: BRANCH  20  21
DOCKED: ATOM     21  C   UNL     1     139.735  82.619 215.699 -0.02 -0.02    +0.070 C  
DOCKED: BRANCH  21  22
DOCKED: ATOM     22  C   UNL     1     139.677  81.295 216.367 -0.02 -0.04    +0.116 A  
DOCKED: ATOM     23  N   UNL     1     140.182  80.243 216.444 -0.02 +0.07    -0.167 NA 
DOCKED: ATOM     24  S   UNL     1     138.274  81.017 217.659 -0.02 +0.02    -0.080 S  
DOCKED: ATOM     25  N   UNL     1     139.874  79.218 217.182 -0.01 +0.10    -0.251 N  
DOCKED: ATOM     26  C   UNL     1     138.850  79.357 217.964 -0.01 -0.06    +0.208 A  
DOCKED: ATOM     27  H   UNL     1     140.452  78.313 217.129 +0.03 -0.08    +0.193 HD 
DOCKED: BRANCH  26  28
DOCKED: ATOM     28  N   UNL     1     138.267  78.519 218.841 -0.01 +0.04    -0.183 NA 
DOCKED: BRANCH  28  29
DOCKED: ATOM     29  C   UNL     1     137.838  79.121 220.052 -0.02 -0.05    +0.255 C  
DOCKED: ATOM     30  O   UNL     1     136.674  79.107 220.480 -0.01 +0.05    -0.272 OA 
DOCKED: BRANCH  29  31
DOCKED: ATOM     31  C   UNL     1     138.879  79.821 220.860 -0.08 -0.03    +0.123 C  
DOCKED: ATOM     32  C   UNL     1     138.419  81.149 221.379 -0.08 -0.04    +0.243 C  
DOCKED: ATOM     33  C   UNL     1     139.315  78.992 222.056 -0.23 -0.01    +0.056 C  
DOCKED: ATOM     34  O   UNL     1     139.529  81.751 222.019 -0.05 +0.07    -0.492 OA 
DOCKED: ATOM     35  C   UNL     1     140.572  79.643 222.552 -0.38 +0.00    -0.005 A  
DOCKED: ATOM     36  C   UNL     1     140.601  81.021 222.502 -0.32 -0.02    +0.122 A  
DOCKED: ATOM     37  C   UNL     1     141.616  78.908 223.023 -0.56 -0.00    +0.007 A  
DOCKED: ATOM     38  C   UNL     1     141.763  81.636 222.960 -0.48 -0.01    +0.047 A  
DOCKED: ATOM     39  C   UNL     1     142.773  79.519 223.480 -0.47 -0.00    +0.001 A  
DOCKED: ATOM     40  C   UNL     1     142.826  80.900 223.440 -0.61 -0.00    +0.004 A  
DOCKED: ENDBRANCH  29  31
DOCKED: ENDBRANCH  28  29
DOCKED: ENDBRANCH  26  28
DOCKED: ENDBRANCH  21  22
DOCKED: ENDBRANCH  20  21
DOCKED: ENDBRANCH  19  20
DOCKED: ENDBRANCH  18  19
DOCKED: ENDBRANCH   4  18
DOCKED: TORSDOF 14
DOCKED: TER
DOCKED: ENDMDL
________________________________________________________________________________


    FINAL DOCKED STATE:
    ________________________


Run:   13 / 20
Time taken for this run:   0.173s

DOCKED: MODEL        13
DOCKED: USER    Run = 13
DOCKED: USER
DOCKED: USER    Estimated Free Energy of Binding    =  -4.54 kcal/mol  [=(1)+(2)+(3)-(4)]
DOCKED: USER
DOCKED: USER    (1) Final Intermolecular Energy     =  -8.72 kcal/mol
DOCKED: USER        vdW + Hbond + desolv Energy     =  -8.65 kcal/mol
DOCKED: USER        Electrostatic Energy            =  -0.07 kcal/mol
DOCKED: USER        Moving Ligand-Fixed Receptor    =  -8.72 kcal/mol
DOCKED: USER        Moving Ligand-Moving Receptor   =  +0.00 kcal/mol
DOCKED: USER    (2) Final Total Internal Energy     =  -7.59 kcal/mol
DOCKED: USER    (3) Torsional Free Energy           =  +4.18 kcal/mol
DOCKED: USER    (4) Unbound System's Energy         =  -7.59 kcal/mol
DOCKED: USER
DOCKED: USER
DOCKED: REMARK SMILES C[C@@H](C(=O)/N=c1/[nH]nc(CCCCc2n[nH]/c(=N\C(=O)[C@H]3COc4ccccc4C3)s2)s1)C(C)(C)CO
DOCKED: REMARK SMILES IDX 6 1 7 2 8 3 9 4 32 5 5 7 3 8 4 9 2 10 1 11 33 12 34 13 35 14
DOCKED: REMARK SMILES IDX 36 15 37 16 10 18 11 19 12 20 13 21 14 22 15 23 31 24 16 25
DOCKED: REMARK SMILES IDX 17 26 18 28 19 29 20 30 21 31 22 32 30 33 23 34 29 35 24 36
DOCKED: REMARK SMILES IDX 28 37 25 38 27 39 26 40
DOCKED: REMARK H PARENT 7 6 37 17 16 27
DOCKED: USER                              x       y       z     vdW  Elec       q    Type
DOCKED: USER                           _______ _______ _______ _____ _____    ______ ____
DOCKED: ROOT
DOCKED: ATOM      1  C   UNL     1     143.217  76.509 219.285 -0.28 -0.14    +0.208 A  
DOCKED: ATOM      2  N   UNL     1     142.561  77.328 220.059 -0.18 +0.19    -0.251 N  
DOCKED: ATOM      3  N   UNL     1     142.193  78.456 219.524 -0.20 +0.12    -0.167 NA 
DOCKED: ATOM      4  C   UNL     1     142.345  78.874 218.470 -0.26 -0.09    +0.116 A  
DOCKED: ATOM      5  S   UNL     1     143.303  77.459 217.654 -0.13 +0.07    -0.080 S  
DOCKED: ATOM      6  H   UNL     1     142.330  77.099 221.078 -0.40 -0.17    +0.193 HD 
DOCKED: ENDROOT
DOCKED: BRANCH   1   7
DOCKED: ATOM      7  N   UNL     1     143.739  75.354 219.395 -0.26 +0.10    -0.184 NA 
DOCKED: BRANCH   7   8
DOCKED: ATOM      8  C   UNL     1     143.216  74.485 220.389 -0.22 -0.09    +0.251 C  
DOCKED: ATOM      9  O   UNL     1     142.273  74.890 221.096 -0.23 +0.10    -0.272 OA 
DOCKED: BRANCH   8  10
DOCKED: ATOM     10  C   UNL     1     143.841  73.143 220.510 -0.33 -0.02    +0.086 C  
DOCKED: ATOM     11  C   UNL     1     145.279  73.245 220.088 -0.52 -0.00    +0.019 C  
DOCKED: BRANCH  10  12
DOCKED: ATOM     12  C   UNL     1     143.095  72.052 219.814 -0.21 +0.00    -0.001 C  
DOCKED: ATOM     13  C   UNL     1     143.182  72.342 218.318 -0.09 -0.00    +0.014 C  
DOCKED: ATOM     14  C   UNL     1     143.757  70.736 220.081 -0.23 -0.00    +0.014 C  
DOCKED: BRANCH  12  15
DOCKED: ATOM     15  C   UNL     1     141.644  71.954 220.226 -0.12 -0.02    +0.163 C  
DOCKED: BRANCH  15  16
DOCKED: ATOM     16  O   UNL     1     140.846  72.960 219.738 -0.01 +0.07    -0.396 OA 
DOCKED: ATOM     17  H   UNL     1     140.621  73.664 220.410 +0.06 -0.04    +0.210 HD 
DOCKED: ENDBRANCH  15  16
DOCKED: ENDBRANCH  12  15
DOCKED: ENDBRANCH  10  12
DOCKED: ENDBRANCH   8  10
DOCKED: ENDBRANCH   7   8
DOCKED: ENDBRANCH   1   7
DOCKED: BRANCH   4  18
DOCKED: ATOM     18  C   UNL     1     142.125  80.007 217.486 -0.25 -0.06    +0.070 C  
DOCKED: BRANCH  18  19
DOCKED: ATOM     19  C   UNL     1     140.787  79.768 216.864 -0.09 -0.00    +0.008 C  
DOCKED: BRANCH  19  20
DOCKED: ATOM     20  C   UNL     1     140.905  78.718 215.810 -0.07 -0.00    +0.008 C  
DOCKED: BRANCH  20  21
DOCKED: ATOM     21  C   UNL     1     139.732  77.768 215.859 -0.02 -0.02    +0.070 C  
DOCKED: BRANCH  21  22
DOCKED: ATOM     22  C   UNL     1     139.916  76.885 217.038 -0.02 -0.04    +0.116 A  
DOCKED: ATOM     23  N   UNL     1     140.685  76.226 217.623 -0.02 +0.06    -0.167 NA 
DOCKED: ATOM     24  S   UNL     1     138.387  76.593 218.174 -0.01 +0.02    -0.080 S  
DOCKED: ATOM     25  N   UNL     1     140.531  75.523 218.707 -0.01 +0.07    -0.251 N  
DOCKED: ATOM     26  C   UNL     1     139.350  75.536 219.240 -0.02 -0.05    +0.208 A  
DOCKED: ATOM     27  H   UNL     1     141.354  74.967 219.119 +0.05 -0.06    +0.193 HD 
DOCKED: BRANCH  26  28
DOCKED: ATOM     28  N   UNL     1     138.851  74.936 220.336 -0.05 +0.04    -0.183 NA 
DOCKED: BRANCH  28  29
DOCKED: ATOM     29  C   UNL     1     139.523  75.244 221.548 -0.20 -0.05    +0.255 C  
DOCKED: ATOM     30  O   UNL     1     140.006  74.408 222.326 -0.81 +0.01    -0.272 OA 
DOCKED: BRANCH  29  31
DOCKED: ATOM     31  C   UNL     1     139.648  76.689 221.898 -0.28 -0.03    +0.123 C  
DOCKED: ATOM     32  C   UNL     1     138.467  77.210 222.657 -0.19 -0.04    +0.243 C  
DOCKED: ATOM     33  C   UNL     1     140.884  76.960 222.739 -0.26 -0.02    +0.056 C  
DOCKED: ATOM     34  O   UNL     1     138.659  78.603 222.819 -0.08 +0.08    -0.492 OA 
DOCKED: ATOM     35  C   UNL     1     141.064  78.448 222.714 -0.49 +0.00    -0.005 A  
DOCKED: ATOM     36  C   UNL     1     139.907  79.199 222.757 -0.30 -0.03    +0.122 A  
DOCKED: ATOM     37  C   UNL     1     142.299  79.015 222.652 -0.52 -0.00    +0.007 A  
DOCKED: ATOM     38  C   UNL     1     140.062  80.582 222.733 -0.34 -0.01    +0.047 A  
DOCKED: ATOM     39  C   UNL     1     142.454  80.392 222.629 -0.60 -0.00    +0.001 A  
DOCKED: ATOM     40  C   UNL     1     141.309  81.166 222.672 -0.48 -0.00    +0.004 A  
DOCKED: ENDBRANCH  29  31
DOCKED: ENDBRANCH  28  29
DOCKED: ENDBRANCH  26  28
DOCKED: ENDBRANCH  21  22
DOCKED: ENDBRANCH  20  21
DOCKED: ENDBRANCH  19  20
DOCKED: ENDBRANCH  18  19
DOCKED: ENDBRANCH   4  18
DOCKED: TORSDOF 14
DOCKED: TER
DOCKED: ENDMDL
________________________________________________________________________________


    FINAL DOCKED STATE:
    ________________________


Run:   14 / 20
Time taken for this run:   0.173s

DOCKED: MODEL        14
DOCKED: USER    Run = 14
DOCKED: USER
DOCKED: USER    Estimated Free Energy of Binding    =  -5.56 kcal/mol  [=(1)+(2)+(3)-(4)]
DOCKED: USER
DOCKED: USER    (1) Final Intermolecular Energy     =  -9.74 kcal/mol
DOCKED: USER        vdW + Hbond + desolv Energy     =  -9.60 kcal/mol
DOCKED: USER        Electrostatic Energy            =  -0.13 kcal/mol
DOCKED: USER        Moving Ligand-Fixed Receptor    =  -9.74 kcal/mol
DOCKED: USER        Moving Ligand-Moving Receptor   =  +0.00 kcal/mol
DOCKED: USER    (2) Final Total Internal Energy     =  -6.29 kcal/mol
DOCKED: USER    (3) Torsional Free Energy           =  +4.18 kcal/mol
DOCKED: USER    (4) Unbound System's Energy         =  -6.29 kcal/mol
DOCKED: USER
DOCKED: USER
DOCKED: REMARK SMILES C[C@@H](C(=O)/N=c1/[nH]nc(CCCCc2n[nH]/c(=N\C(=O)[C@H]3COc4ccccc4C3)s2)s1)C(C)(C)CO
DOCKED: REMARK SMILES IDX 6 1 7 2 8 3 9 4 32 5 5 7 3 8 4 9 2 10 1 11 33 12 34 13 35 14
DOCKED: REMARK SMILES IDX 36 15 37 16 10 18 11 19 12 20 13 21 14 22 15 23 31 24 16 25
DOCKED: REMARK SMILES IDX 17 26 18 28 19 29 20 30 21 31 22 32 30 33 23 34 29 35 24 36
DOCKED: REMARK SMILES IDX 28 37 25 38 27 39 26 40
DOCKED: REMARK H PARENT 7 6 37 17 16 27
DOCKED: USER                              x       y       z     vdW  Elec       q    Type
DOCKED: USER                           _______ _______ _______ _____ _____    ______ ____
DOCKED: ROOT
DOCKED: ATOM      1  C   UNL     1     139.623  76.599 221.950 -0.25 -0.05    +0.208 A  
DOCKED: ATOM      2  N   UNL     1     138.859  75.991 222.813 -0.16 +0.05    -0.251 N  
DOCKED: ATOM      3  N   UNL     1     137.714  76.555 223.067 -0.22 +0.03    -0.167 NA 
DOCKED: ATOM      4  C   UNL     1     137.241  77.515 222.660 -0.19 -0.02    +0.116 A  
DOCKED: ATOM      5  S   UNL     1     138.592  78.110 221.474 -0.19 +0.02    -0.080 S  
DOCKED: ATOM      6  H   UNL     1     139.143  75.078 223.293 -0.48 -0.06    +0.193 HD 
DOCKED: ENDROOT
DOCKED: BRANCH   1   7
DOCKED: ATOM      7  N   UNL     1     140.770  76.405 221.434 -0.23 +0.06    -0.184 NA 
DOCKED: BRANCH   7   8
DOCKED: ATOM      8  C   UNL     1     141.237  75.066 221.348 -0.20 -0.06    +0.251 C  
DOCKED: ATOM      9  O   UNL     1     140.700  74.203 222.069 -0.75 -0.00    -0.272 OA 
DOCKED: BRANCH   8  10
DOCKED: ATOM     10  C   UNL     1     142.341  74.795 220.393 -0.27 -0.03    +0.086 C  
DOCKED: ATOM     11  C   UNL     1     142.387  75.909 219.387 -0.28 -0.01    +0.019 C  
DOCKED: BRANCH  10  12
DOCKED: ATOM     12  C   UNL     1     142.297  73.437 219.772 -0.19 +0.00    -0.001 C  
DOCKED: ATOM     13  C   UNL     1     143.243  73.468 218.575 -0.14 -0.00    +0.014 C  
DOCKED: ATOM     14  C   UNL     1     142.802  72.418 220.747 -0.26 -0.00    +0.014 C  
DOCKED: BRANCH  12  15
DOCKED: ATOM     15  C   UNL     1     140.917  73.026 219.316 -0.05 -0.03    +0.163 C  
DOCKED: BRANCH  15  16
DOCKED: ATOM     16  O   UNL     1     140.304  72.100 220.124 -0.02 +0.07    -0.396 OA 
DOCKED: ATOM     17  H   UNL     1     140.337  72.322 221.097 +0.06 -0.03    +0.210 HD 
DOCKED: ENDBRANCH  15  16
DOCKED: ENDBRANCH  12  15
DOCKED: ENDBRANCH  10  12
DOCKED: ENDBRANCH   8  10
DOCKED: ENDBRANCH   7   8
DOCKED: ENDBRANCH   1   7
DOCKED: BRANCH   4  18
DOCKED: ATOM     18  C   UNL     1     136.065  78.473 222.654 -0.14 -0.01    +0.070 C  
DOCKED: BRANCH  18  19
DOCKED: ATOM     19  C   UNL     1     135.225  78.096 221.477 -0.05 -0.00    +0.008 C  
DOCKED: BRANCH  19  20
DOCKED: ATOM     20  C   UNL     1     134.867  76.650 221.559 -0.05 -0.00    +0.008 C  
DOCKED: BRANCH  20  21
DOCKED: ATOM     21  C   UNL     1     135.373  75.898 220.351 -0.02 -0.01    +0.070 C  
DOCKED: BRANCH  21  22
DOCKED: ATOM     22  C   UNL     1     136.308  74.850 220.831 -0.04 -0.02    +0.116 A  
DOCKED: ATOM     23  N   UNL     1     137.415  74.475 220.802 -0.05 +0.04    -0.167 NA 
DOCKED: ATOM     24  S   UNL     1     135.586  73.477 221.974 -0.10 +0.02    -0.080 S  
DOCKED: ATOM     25  N   UNL     1     137.966  73.445 221.373 -0.07 +0.06    -0.251 N  
DOCKED: ATOM     26  C   UNL     1     137.188  72.701 222.094 -0.09 -0.06    +0.208 A  
DOCKED: ATOM     27  H   UNL     1     139.013  73.242 221.240 +0.04 -0.04    +0.193 HD 
DOCKED: BRANCH  26  28
DOCKED: ATOM     28  N   UNL     1     137.419  71.585 222.809 -0.11 +0.05    -0.183 NA 
DOCKED: BRANCH  28  29
DOCKED: ATOM     29  C   UNL     1     138.770  71.390 223.197 -0.17 -0.06    +0.255 C  
DOCKED: ATOM     30  O   UNL     1     139.742  71.994 222.720 -0.26 +0.05    -0.272 OA 
DOCKED: BRANCH  29  31
DOCKED: ATOM     31  C   UNL     1     139.024  70.376 224.262 -0.30 -0.02    +0.123 C  
DOCKED: ATOM     32  C   UNL     1     138.913  68.968 223.765 -0.18 -0.04    +0.243 C  
DOCKED: ATOM     33  C   UNL     1     140.404  70.535 224.875 -0.44 -0.01    +0.056 C  
DOCKED: ATOM     34  O   UNL     1     139.057  68.119 224.889 -0.48 +0.02    -0.492 OA 
DOCKED: ATOM     35  C   UNL     1     140.382  69.709 226.126 -0.51 +0.00    -0.005 A  
DOCKED: ATOM     36  C   UNL     1     139.690  68.518 226.053 -0.46 -0.02    +0.122 A  
DOCKED: ATOM     37  C   UNL     1     141.010  70.119 227.261 -0.58 -0.00    +0.007 A  
DOCKED: ATOM     38  C   UNL     1     139.662  67.743 227.209 -0.54 -0.01    +0.047 A  
DOCKED: ATOM     39  C   UNL     1     140.983  69.348 228.412 -0.57 -0.00    +0.001 A  
DOCKED: ATOM     40  C   UNL     1     140.296  68.149 228.364 -0.57 -0.00    +0.004 A  
DOCKED: ENDBRANCH  29  31
DOCKED: ENDBRANCH  28  29
DOCKED: ENDBRANCH  26  28
DOCKED: ENDBRANCH  21  22
DOCKED: ENDBRANCH  20  21
DOCKED: ENDBRANCH  19  20
DOCKED: ENDBRANCH  18  19
DOCKED: ENDBRANCH   4  18
DOCKED: TORSDOF 14
DOCKED: TER
DOCKED: ENDMDL
________________________________________________________________________________


    FINAL DOCKED STATE:
    ________________________


Run:   15 / 20
Time taken for this run:   0.173s

DOCKED: MODEL        15
DOCKED: USER    Run = 15
DOCKED: USER
DOCKED: USER    Estimated Free Energy of Binding    =  -4.00 kcal/mol  [=(1)+(2)+(3)-(4)]
DOCKED: USER
DOCKED: USER    (1) Final Intermolecular Energy     =  -8.18 kcal/mol
DOCKED: USER        vdW + Hbond + desolv Energy     =  -8.05 kcal/mol
DOCKED: USER        Electrostatic Energy            =  -0.13 kcal/mol
DOCKED: USER        Moving Ligand-Fixed Receptor    =  -8.18 kcal/mol
DOCKED: USER        Moving Ligand-Moving Receptor   =  +0.00 kcal/mol
DOCKED: USER    (2) Final Total Internal Energy     =  -7.86 kcal/mol
DOCKED: USER    (3) Torsional Free Energy           =  +4.18 kcal/mol
DOCKED: USER    (4) Unbound System's Energy         =  -7.86 kcal/mol
DOCKED: USER
DOCKED: USER
DOCKED: REMARK SMILES C[C@@H](C(=O)/N=c1/[nH]nc(CCCCc2n[nH]/c(=N\C(=O)[C@H]3COc4ccccc4C3)s2)s1)C(C)(C)CO
DOCKED: REMARK SMILES IDX 6 1 7 2 8 3 9 4 32 5 5 7 3 8 4 9 2 10 1 11 33 12 34 13 35 14
DOCKED: REMARK SMILES IDX 36 15 37 16 10 18 11 19 12 20 13 21 14 22 15 23 31 24 16 25
DOCKED: REMARK SMILES IDX 17 26 18 28 19 29 20 30 21 31 22 32 30 33 23 34 29 35 24 36
DOCKED: REMARK SMILES IDX 28 37 25 38 27 39 26 40
DOCKED: REMARK H PARENT 7 6 37 17 16 27
DOCKED: USER                              x       y       z     vdW  Elec       q    Type
DOCKED: USER                           _______ _______ _______ _____ _____    ______ ____
DOCKED: ROOT
DOCKED: ATOM      1  C   UNL     1     141.650  79.362 218.847 -0.18 -0.12    +0.208 A  
DOCKED: ATOM      2  N   UNL     1     140.431  79.274 219.298 -0.05 +0.10    -0.251 N  
DOCKED: ATOM      3  N   UNL     1     139.782  80.394 219.431 -0.05 +0.05    -0.167 NA 
DOCKED: ATOM      4  C   UNL     1     140.095  81.474 219.220 -0.09 -0.03    +0.116 A  
DOCKED: ATOM      5  S   UNL     1     141.867  81.223 218.599 -0.33 +0.04    -0.080 S  
DOCKED: ATOM      6  H   UNL     1     139.974  78.338 219.548 +0.05 -0.06    +0.193 HD 
DOCKED: ENDROOT
DOCKED: BRANCH   1   7
DOCKED: ATOM      7  N   UNL     1     142.596  78.555 218.577 -0.24 +0.15    -0.184 NA 
DOCKED: BRANCH   7   8
DOCKED: ATOM      8  C   UNL     1     142.471  77.216 219.034 -0.22 -0.16    +0.251 C  
DOCKED: ATOM      9  O   UNL     1     141.658  76.973 219.946 -0.16 +0.14    -0.272 OA 
DOCKED: BRANCH   8  10
DOCKED: ATOM     10  C   UNL     1     143.330  76.196 218.380 -0.27 -0.05    +0.086 C  
DOCKED: ATOM     11  C   UNL     1     143.099  76.257 216.897 -0.21 -0.01    +0.019 C  
DOCKED: BRANCH  10  12
DOCKED: ATOM     12  C   UNL     1     143.189  74.820 218.945 -0.27 +0.00    -0.001 C  
DOCKED: ATOM     13  C   UNL     1     141.759  74.369 218.661 -0.09 -0.00    +0.014 C  
DOCKED: ATOM     14  C   UNL     1     144.128  73.887 218.244 -0.19 -0.00    +0.014 C  
DOCKED: BRANCH  12  15
DOCKED: ATOM     15  C   UNL     1     143.456  74.747 220.431 -0.24 -0.07    +0.163 C  
DOCKED: BRANCH  15  16
DOCKED: ATOM     16  O   UNL     1     142.327  74.761 221.212 -0.14 +0.14    -0.396 OA 
DOCKED: ATOM     17  H   UNL     1     142.122  75.651 221.616 -0.44 -0.12    +0.210 HD 
DOCKED: ENDBRANCH  15  16
DOCKED: ENDBRANCH  12  15
DOCKED: ENDBRANCH  10  12
DOCKED: ENDBRANCH   8  10
DOCKED: ENDBRANCH   7   8
DOCKED: ENDBRANCH   1   7
DOCKED: BRANCH   4  18
DOCKED: ATOM     18  C   UNL     1     139.732  82.947 219.217 -0.10 -0.02    +0.070 C  
DOCKED: BRANCH  18  19
DOCKED: ATOM     19  C   UNL     1     140.358  83.535 220.440 -0.24 -0.00    +0.008 C  
DOCKED: BRANCH  19  20
DOCKED: ATOM     20  C   UNL     1     140.113  82.639 221.608 -0.27 -0.00    +0.008 C  
DOCKED: BRANCH  20  21
DOCKED: ATOM     21  C   UNL     1     141.399  82.342 222.342 -0.20 -0.01    +0.070 C  
DOCKED: BRANCH  21  22
DOCKED: ATOM     22  C   UNL     1     141.657  80.885 222.226 -0.41 -0.03    +0.116 A  
DOCKED: ATOM     23  N   UNL     1     142.288  80.071 221.672 -0.32 +0.08    -0.167 NA 
DOCKED: ATOM     24  S   UNL     1     140.643  79.713 223.371 -0.56 +0.02    -0.080 S  
DOCKED: ATOM     25  N   UNL     1     142.286  78.777 221.806 -0.18 +0.17    -0.251 N  
DOCKED: ATOM     26  C   UNL     1     141.467  78.289 222.683 -0.35 -0.09    +0.208 A  
DOCKED: ATOM     27  H   UNL     1     142.939  78.166 221.209 -0.43 -0.22    +0.193 HD 
DOCKED: BRANCH  26  28
DOCKED: ATOM     28  N   UNL     1     141.212  77.025 223.070 -0.17 +0.07    -0.183 NA 
DOCKED: BRANCH  28  29
DOCKED: ATOM     29  C   UNL     1     140.191  76.367 222.336 -0.24 -0.06    +0.255 C  
DOCKED: ATOM     30  O   UNL     1     140.024  75.139 222.295 -0.65 +0.02    -0.272 OA 
DOCKED: BRANCH  29  31
DOCKED: ATOM     31  C   UNL     1     139.257  77.233 221.558 -0.20 -0.03    +0.123 C  
DOCKED: ATOM     32  C   UNL     1     138.697  76.549 220.350 -0.05 -0.06    +0.243 C  
DOCKED: ATOM     33  C   UNL     1     138.083  77.696 222.404 -0.24 -0.01    +0.056 C  
DOCKED: ATOM     34  O   UNL     1     137.931  77.510 219.647 +0.01 +0.11    -0.492 OA 
DOCKED: ATOM     35  C   UNL     1     137.444  78.805 221.623 -0.12 +0.00    -0.005 A  
DOCKED: ATOM     36  C   UNL     1     137.407  78.638 220.254 -0.03 -0.02    +0.122 A  
DOCKED: ATOM     37  C   UNL     1     136.935  79.907 222.237 -0.13 -0.00    +0.007 A  
DOCKED: ATOM     38  C   UNL     1     136.816  79.662 219.518 -0.01 -0.01    +0.047 A  
DOCKED: ATOM     39  C   UNL     1     136.346  80.926 221.505 -0.06 -0.00    +0.001 A  
DOCKED: ATOM     40  C   UNL     1     136.296  80.782 220.131 -0.02 -0.00    +0.004 A  
DOCKED: ENDBRANCH  29  31
DOCKED: ENDBRANCH  28  29
DOCKED: ENDBRANCH  26  28
DOCKED: ENDBRANCH  21  22
DOCKED: ENDBRANCH  20  21
DOCKED: ENDBRANCH  19  20
DOCKED: ENDBRANCH  18  19
DOCKED: ENDBRANCH   4  18
DOCKED: TORSDOF 14
DOCKED: TER
DOCKED: ENDMDL
________________________________________________________________________________


    FINAL DOCKED STATE:
    ________________________


Run:   16 / 20
Time taken for this run:   0.173s

DOCKED: MODEL        16
DOCKED: USER    Run = 16
DOCKED: USER
DOCKED: USER    Estimated Free Energy of Binding    =  -5.86 kcal/mol  [=(1)+(2)+(3)-(4)]
DOCKED: USER
DOCKED: USER    (1) Final Intermolecular Energy     = -10.04 kcal/mol
DOCKED: USER        vdW + Hbond + desolv Energy     = -10.07 kcal/mol
DOCKED: USER        Electrostatic Energy            =  +0.03 kcal/mol
DOCKED: USER        Moving Ligand-Fixed Receptor    = -10.04 kcal/mol
DOCKED: USER        Moving Ligand-Moving Receptor   =  +0.00 kcal/mol
DOCKED: USER    (2) Final Total Internal Energy     =  -5.68 kcal/mol
DOCKED: USER    (3) Torsional Free Energy           =  +4.18 kcal/mol
DOCKED: USER    (4) Unbound System's Energy         =  -5.68 kcal/mol
DOCKED: USER
DOCKED: USER
DOCKED: REMARK SMILES C[C@@H](C(=O)/N=c1/[nH]nc(CCCCc2n[nH]/c(=N\C(=O)[C@H]3COc4ccccc4C3)s2)s1)C(C)(C)CO
DOCKED: REMARK SMILES IDX 6 1 7 2 8 3 9 4 32 5 5 7 3 8 4 9 2 10 1 11 33 12 34 13 35 14
DOCKED: REMARK SMILES IDX 36 15 37 16 10 18 11 19 12 20 13 21 14 22 15 23 31 24 16 25
DOCKED: REMARK SMILES IDX 17 26 18 28 19 29 20 30 21 31 22 32 30 33 23 34 29 35 24 36
DOCKED: REMARK SMILES IDX 28 37 25 38 27 39 26 40
DOCKED: REMARK H PARENT 7 6 37 17 16 27
DOCKED: USER                              x       y       z     vdW  Elec       q    Type
DOCKED: USER                           _______ _______ _______ _____ _____    ______ ____
DOCKED: ROOT
DOCKED: ATOM      1  C   UNL     1     140.778  75.850 218.971 -0.05 -0.07    +0.208 A  
DOCKED: ATOM      2  N   UNL     1     140.449  74.589 218.954 -0.01 +0.06    -0.251 N  
DOCKED: ATOM      3  N   UNL     1     141.145  73.822 218.166 -0.01 +0.04    -0.167 NA 
DOCKED: ATOM      4  C   UNL     1     142.019  74.059 217.465 -0.03 -0.03    +0.116 A  
DOCKED: ATOM      5  S   UNL     1     142.214  75.922 217.744 -0.17 +0.03    -0.080 S  
DOCKED: ATOM      6  H   UNL     1     139.653  74.192 219.549 +0.03 -0.04    +0.193 HD 
DOCKED: ENDROOT
DOCKED: BRANCH   1   7
DOCKED: ATOM      7  N   UNL     1     140.380  76.901 219.569 -0.05 +0.06    -0.184 NA 
DOCKED: BRANCH   7   8
DOCKED: ATOM      8  C   UNL     1     141.364  77.732 220.167 -0.17 -0.13    +0.251 C  
DOCKED: ATOM      9  O   UNL     1     142.561  77.400 220.070 -0.25 +0.21    -0.272 OA 
DOCKED: BRANCH   8  10
DOCKED: ATOM     10  C   UNL     1     140.883  78.949 220.870 -0.24 -0.03    +0.086 C  
DOCKED: ATOM     11  C   UNL     1     141.576  80.146 220.282 -0.31 -0.01    +0.019 C  
DOCKED: BRANCH  10  12
DOCKED: ATOM     12  C   UNL     1     140.984  78.879 222.359 -0.44 +0.00    -0.001 C  
DOCKED: ATOM     13  C   UNL     1     142.199  79.710 222.760 -0.60 -0.01    +0.014 C  
DOCKED: ATOM     14  C   UNL     1     139.766  79.494 222.977 -0.38 -0.00    +0.014 C  
DOCKED: BRANCH  12  15
DOCKED: ATOM     15  C   UNL     1     141.135  77.472 222.889 -0.20 -0.06    +0.163 C  
DOCKED: BRANCH  15  16
DOCKED: ATOM     16  O   UNL     1     140.202  76.583 222.414 -0.25 +0.09    -0.396 OA 
DOCKED: ATOM     17  H   UNL     1     140.483  76.102 221.586 +0.07 -0.06    +0.210 HD 
DOCKED: ENDBRANCH  15  16
DOCKED: ENDBRANCH  12  15
DOCKED: ENDBRANCH  10  12
DOCKED: ENDBRANCH   8  10
DOCKED: ENDBRANCH   7   8
DOCKED: ENDBRANCH   1   7
DOCKED: BRANCH   4  18
DOCKED: ATOM     18  C   UNL     1     143.040  73.559 216.461 -0.03 -0.02    +0.070 C  
DOCKED: BRANCH  18  19
DOCKED: ATOM     19  C   UNL     1     144.337  73.463 217.196 -0.13 -0.00    +0.008 C  
DOCKED: BRANCH  19  20
DOCKED: ATOM     20  C   UNL     1     144.276  72.341 218.177 -0.15 +0.00    +0.008 C  
DOCKED: BRANCH  20  21
DOCKED: ATOM     21  C   UNL     1     144.814  72.768 219.522 -0.33 +0.00    +0.070 C  
DOCKED: BRANCH  21  22
DOCKED: ATOM     22  C   UNL     1     143.734  73.508 220.224 -0.30 -0.03    +0.116 A  
DOCKED: ATOM     23  N   UNL     1     143.387  74.561 220.594 -0.25 +0.07    -0.167 NA 
DOCKED: ATOM     24  S   UNL     1     142.219  72.489 220.840 -0.29 +0.01    -0.080 S  
DOCKED: ATOM     25  N   UNL     1     142.305  74.911 221.226 -0.07 +0.09    -0.251 N  
DOCKED: ATOM     26  C   UNL     1     141.465  73.964 221.500 -0.12 -0.02    +0.208 A  
DOCKED: ATOM     27  H   UNL     1     142.139  75.938 221.496 -0.46 -0.13    +0.193 HD 
DOCKED: BRANCH  26  28
DOCKED: ATOM     28  N   UNL     1     140.274  73.971 222.127 -0.80 +0.00    -0.183 NA 
DOCKED: BRANCH  28  29
DOCKED: ATOM     29  C   UNL     1     139.469  72.825 221.899 -0.17 -0.05    +0.255 C  
DOCKED: ATOM     30  O   UNL     1     138.827  72.602 220.862 -0.05 +0.05    -0.272 OA 
DOCKED: BRANCH  29  31
DOCKED: ATOM     31  C   UNL     1     139.398  71.823 223.003 -0.25 -0.03    +0.123 C  
DOCKED: ATOM     32  C   UNL     1     139.145  70.431 222.511 -0.13 -0.04    +0.243 C  
DOCKED: ATOM     33  C   UNL     1     140.679  71.792 223.818 -0.26 -0.01    +0.056 C  
DOCKED: ATOM     34  O   UNL     1     138.984  69.611 223.653 -0.06 +0.08    -0.492 OA 
DOCKED: ATOM     35  C   UNL     1     140.340  71.024 225.061 -0.52 +0.00    -0.005 A  
DOCKED: ATOM     36  C   UNL     1     139.489  69.951 224.897 -0.32 -0.02    +0.122 A  
DOCKED: ATOM     37  C   UNL     1     140.846  71.374 226.274 -0.66 -0.00    +0.007 A  
DOCKED: ATOM     38  C   UNL     1     139.167  69.231 226.043 -0.43 -0.01    +0.047 A  
DOCKED: ATOM     39  C   UNL     1     140.527  70.657 227.417 -0.66 -0.00    +0.001 A  
DOCKED: ATOM     40  C   UNL     1     139.676  69.577 227.278 -0.56 -0.00    +0.004 A  
DOCKED: ENDBRANCH  29  31
DOCKED: ENDBRANCH  28  29
DOCKED: ENDBRANCH  26  28
DOCKED: ENDBRANCH  21  22
DOCKED: ENDBRANCH  20  21
DOCKED: ENDBRANCH  19  20
DOCKED: ENDBRANCH  18  19
DOCKED: ENDBRANCH   4  18
DOCKED: TORSDOF 14
DOCKED: TER
DOCKED: ENDMDL
________________________________________________________________________________


    FINAL DOCKED STATE:
    ________________________


Run:   17 / 20
Time taken for this run:   0.173s

DOCKED: MODEL        17
DOCKED: USER    Run = 17
DOCKED: USER
DOCKED: USER    Estimated Free Energy of Binding    =  -7.48 kcal/mol  [=(1)+(2)+(3)-(4)]
DOCKED: USER
DOCKED: USER    (1) Final Intermolecular Energy     = -11.65 kcal/mol
DOCKED: USER        vdW + Hbond + desolv Energy     = -11.46 kcal/mol
DOCKED: USER        Electrostatic Energy            =  -0.20 kcal/mol
DOCKED: USER        Moving Ligand-Fixed Receptor    = -11.65 kcal/mol
DOCKED: USER        Moving Ligand-Moving Receptor   =  +0.00 kcal/mol
DOCKED: USER    (2) Final Total Internal Energy     =  -4.54 kcal/mol
DOCKED: USER    (3) Torsional Free Energy           =  +4.18 kcal/mol
DOCKED: USER    (4) Unbound System's Energy         =  -4.54 kcal/mol
DOCKED: USER
DOCKED: USER
DOCKED: REMARK SMILES C[C@@H](C(=O)/N=c1/[nH]nc(CCCCc2n[nH]/c(=N\C(=O)[C@H]3COc4ccccc4C3)s2)s1)C(C)(C)CO
DOCKED: REMARK SMILES IDX 6 1 7 2 8 3 9 4 32 5 5 7 3 8 4 9 2 10 1 11 33 12 34 13 35 14
DOCKED: REMARK SMILES IDX 36 15 37 16 10 18 11 19 12 20 13 21 14 22 15 23 31 24 16 25
DOCKED: REMARK SMILES IDX 17 26 18 28 19 29 20 30 21 31 22 32 30 33 23 34 29 35 24 36
DOCKED: REMARK SMILES IDX 28 37 25 38 27 39 26 40
DOCKED: REMARK H PARENT 7 6 37 17 16 27
DOCKED: USER                              x       y       z     vdW  Elec       q    Type
DOCKED: USER                           _______ _______ _______ _____ _____    ______ ____
DOCKED: ROOT
DOCKED: ATOM      1  C   UNL     1     135.579  75.685 224.289 -0.22 -0.04    +0.208 A  
DOCKED: ATOM      2  N   UNL     1     135.720  74.553 224.919 -0.15 +0.05    -0.251 N  
DOCKED: ATOM      3  N   UNL     1     134.787  74.249 225.775 -0.35 -0.01    -0.167 NA 
DOCKED: ATOM      4  C   UNL     1     133.839  74.811 226.085 -0.32 +0.00    +0.116 A  
DOCKED: ATOM      5  S   UNL     1     133.963  76.358 225.000 -0.27 +0.01    -0.080 S  
DOCKED: ATOM      6  H   UNL     1     136.550  73.898 224.752 -0.46 -0.11    +0.193 HD 
DOCKED: ENDROOT
DOCKED: BRANCH   1   7
DOCKED: ATOM      7  N   UNL     1     136.225  76.338 223.409 -0.19 +0.04    -0.184 NA 
DOCKED: BRANCH   7   8
DOCKED: ATOM      8  C   UNL     1     137.229  75.648 222.679 -0.14 -0.07    +0.251 C  
DOCKED: ATOM      9  O   UNL     1     136.930  74.567 222.135 -0.11 +0.08    -0.272 OA 
DOCKED: BRANCH   8  10
DOCKED: ATOM     10  C   UNL     1     138.574  76.276 222.619 -0.25 -0.02    +0.086 C  
DOCKED: ATOM     11  C   UNL     1     138.411  77.766 222.718 -0.28 -0.00    +0.019 C  
DOCKED: BRANCH  10  12
DOCKED: ATOM     12  C   UNL     1     139.401  75.847 221.450 -0.27 +0.00    -0.001 C  
DOCKED: ATOM     13  C   UNL     1     138.644  76.268 220.194 -0.08 -0.00    +0.014 C  
DOCKED: ATOM     14  C   UNL     1     140.716  76.563 221.472 -0.35 -0.00    +0.014 C  
DOCKED: BRANCH  12  15
DOCKED: ATOM     15  C   UNL     1     139.662  74.359 221.409 -0.21 -0.03    +0.163 C  
DOCKED: BRANCH  15  16
DOCKED: ATOM     16  O   UNL     1     139.576  73.733 222.628 -0.61 +0.06    -0.396 OA 
DOCKED: ATOM     17  H   UNL     1     138.646  73.495 222.900 -0.50 -0.12    +0.210 HD 
DOCKED: ENDBRANCH  15  16
DOCKED: ENDBRANCH  12  15
DOCKED: ENDBRANCH  10  12
DOCKED: ENDBRANCH   8  10
DOCKED: ENDBRANCH   7   8
DOCKED: ENDBRANCH   1   7
DOCKED: BRANCH   4  18
DOCKED: ATOM     18  C   UNL     1     132.588  74.857 226.941 -0.35 -0.00    +0.070 C  
DOCKED: BRANCH  18  19
DOCKED: ATOM     19  C   UNL     1     132.048  73.463 226.967 -0.39 -0.00    +0.008 C  
DOCKED: BRANCH  19  20
DOCKED: ATOM     20  C   UNL     1     131.576  73.083 225.604 -0.17 -0.00    +0.008 C  
DOCKED: BRANCH  20  21
DOCKED: ATOM     21  C   UNL     1     132.177  71.767 225.171 -0.12 -0.01    +0.070 C  
DOCKED: BRANCH  21  22
DOCKED: ATOM     22  C   UNL     1     133.387  72.068 224.365 -0.09 -0.01    +0.116 A  
DOCKED: ATOM     23  N   UNL     1     133.787  72.632 223.422 -0.04 +0.02    -0.167 NA 
DOCKED: ATOM     24  S   UNL     1     135.057  71.316 224.962 -0.18 +0.01    -0.080 S  
DOCKED: ATOM     25  N   UNL     1     134.994  72.712 222.944 -0.05 +0.04    -0.251 N  
DOCKED: ATOM     26  C   UNL     1     135.915  72.076 223.595 -0.13 -0.04    +0.208 A  
DOCKED: ATOM     27  H   UNL     1     135.192  73.281 222.054 +0.03 -0.04    +0.193 HD 
DOCKED: BRANCH  26  28
DOCKED: ATOM     28  N   UNL     1     137.239  71.947 223.386 -0.11 +0.06    -0.183 NA 
DOCKED: BRANCH  28  29
DOCKED: ATOM     29  C   UNL     1     137.682  70.621 223.144 -0.13 -0.05    +0.255 C  
DOCKED: ATOM     30  O   UNL     1     137.540  70.007 222.076 -0.05 +0.05    -0.272 OA 
DOCKED: BRANCH  29  31
DOCKED: ATOM     31  C   UNL     1     138.369  69.925 224.272 -0.27 -0.02    +0.123 C  
DOCKED: ATOM     32  C   UNL     1     138.674  68.490 223.973 -0.20 -0.02    +0.243 C  
DOCKED: ATOM     33  C   UNL     1     139.679  70.602 224.636 -0.40 -0.01    +0.056 C  
DOCKED: ATOM     34  O   UNL     1     139.210  67.925 225.154 -0.59 +0.02    -0.492 OA 
DOCKED: ATOM     35  C   UNL     1     140.066  70.029 225.967 -0.50 +0.00    -0.005 A  
DOCKED: ATOM     36  C   UNL     1     139.800  68.687 226.148 -0.45 -0.02    +0.122 A  
DOCKED: ATOM     37  C   UNL     1     140.644  70.794 226.931 -0.64 -0.00    +0.007 A  
DOCKED: ATOM     38  C   UNL     1     140.154  68.144 227.380 -0.63 -0.01    +0.047 A  
DOCKED: ATOM     39  C   UNL     1     140.998  70.254 228.157 -0.59 -0.00    +0.001 A  
DOCKED: ATOM     40  C   UNL     1     140.742  68.911 228.363 -0.64 -0.00    +0.004 A  
DOCKED: ENDBRANCH  29  31
DOCKED: ENDBRANCH  28  29
DOCKED: ENDBRANCH  26  28
DOCKED: ENDBRANCH  21  22
DOCKED: ENDBRANCH  20  21
DOCKED: ENDBRANCH  19  20
DOCKED: ENDBRANCH  18  19
DOCKED: ENDBRANCH   4  18
DOCKED: TORSDOF 14
DOCKED: TER
DOCKED: ENDMDL
________________________________________________________________________________


    FINAL DOCKED STATE:
    ________________________


Run:   18 / 20
Time taken for this run:   0.173s

DOCKED: MODEL        18
DOCKED: USER    Run = 18
DOCKED: USER
DOCKED: USER    Estimated Free Energy of Binding    =  -5.44 kcal/mol  [=(1)+(2)+(3)-(4)]
DOCKED: USER
DOCKED: USER    (1) Final Intermolecular Energy     =  -9.61 kcal/mol
DOCKED: USER        vdW + Hbond + desolv Energy     =  -9.47 kcal/mol
DOCKED: USER        Electrostatic Energy            =  -0.14 kcal/mol
DOCKED: USER        Moving Ligand-Fixed Receptor    =  -9.61 kcal/mol
DOCKED: USER        Moving Ligand-Moving Receptor   =  +0.00 kcal/mol
DOCKED: USER    (2) Final Total Internal Energy     =  -6.69 kcal/mol
DOCKED: USER    (3) Torsional Free Energy           =  +4.18 kcal/mol
DOCKED: USER    (4) Unbound System's Energy         =  -6.69 kcal/mol
DOCKED: USER
DOCKED: USER
DOCKED: REMARK SMILES C[C@@H](C(=O)/N=c1/[nH]nc(CCCCc2n[nH]/c(=N\C(=O)[C@H]3COc4ccccc4C3)s2)s1)C(C)(C)CO
DOCKED: REMARK SMILES IDX 6 1 7 2 8 3 9 4 32 5 5 7 3 8 4 9 2 10 1 11 33 12 34 13 35 14
DOCKED: REMARK SMILES IDX 36 15 37 16 10 18 11 19 12 20 13 21 14 22 15 23 31 24 16 25
DOCKED: REMARK SMILES IDX 17 26 18 28 19 29 20 30 21 31 22 32 30 33 23 34 29 35 24 36
DOCKED: REMARK SMILES IDX 28 37 25 38 27 39 26 40
DOCKED: REMARK H PARENT 7 6 37 17 16 27
DOCKED: USER                              x       y       z     vdW  Elec       q    Type
DOCKED: USER                           _______ _______ _______ _____ _____    ______ ____
DOCKED: ROOT
DOCKED: ATOM      1  C   UNL     1     138.924  76.844 222.125 -0.22 -0.04    +0.208 A  
DOCKED: ATOM      2  N   UNL     1     138.440  75.799 222.736 -0.16 +0.07    -0.251 N  
DOCKED: ATOM      3  N   UNL     1     137.143  75.733 222.825 -0.19 +0.05    -0.167 NA 
DOCKED: ATOM      4  C   UNL     1     136.326  76.444 222.456 -0.16 -0.02    +0.116 A  
DOCKED: ATOM      5  S   UNL     1     137.368  77.802 221.644 -0.16 +0.01    -0.080 S  
DOCKED: ATOM      6  H   UNL     1     139.062  75.031 223.147 -0.49 -0.06    +0.193 HD 
DOCKED: ENDROOT
DOCKED: BRANCH   1   7
DOCKED: ATOM      7  N   UNL     1     140.079  77.287 221.827 -0.20 +0.05    -0.184 NA 
DOCKED: BRANCH   7   8
DOCKED: ATOM      8  C   UNL     1     141.072  76.342 221.454 -0.22 -0.10    +0.251 C  
DOCKED: ATOM      9  O   UNL     1     141.060  75.221 221.999 -0.55 +0.04    -0.272 OA 
DOCKED: BRANCH   8  10
DOCKED: ATOM     10  C   UNL     1     142.058  76.768 220.428 -0.18 -0.05    +0.086 C  
DOCKED: ATOM     11  C   UNL     1     141.526  77.986 219.730 -0.26 -0.01    +0.019 C  
DOCKED: BRANCH  10  12
DOCKED: ATOM     12  C   UNL     1     142.477  75.683 219.490 -0.30 +0.00    -0.001 C  
DOCKED: ATOM     13  C   UNL     1     143.005  76.365 218.232 -0.29 -0.01    +0.014 C  
DOCKED: ATOM     14  C   UNL     1     143.591  74.889 220.101 -0.40 -0.01    +0.014 C  
DOCKED: BRANCH  12  15
DOCKED: ATOM     15  C   UNL     1     141.358  74.737 219.121 -0.07 -0.05    +0.163 C  
DOCKED: BRANCH  15  16
DOCKED: ATOM     16  O   UNL     1     141.249  73.639 219.939 -0.04 +0.08    -0.396 OA 
DOCKED: ATOM     17  H   UNL     1     141.084  73.860 220.898 +0.07 -0.04    +0.210 HD 
DOCKED: ENDBRANCH  15  16
DOCKED: ENDBRANCH  12  15
DOCKED: ENDBRANCH  10  12
DOCKED: ENDBRANCH   8  10
DOCKED: ENDBRANCH   7   8
DOCKED: ENDBRANCH   1   7
DOCKED: BRANCH   4  18
DOCKED: ATOM     18  C   UNL     1     134.848  76.760 222.335 -0.08 -0.01    +0.070 C  
DOCKED: BRANCH  18  19
DOCKED: ATOM     19  C   UNL     1     134.600  77.054 220.890 -0.03 -0.00    +0.008 C  
DOCKED: BRANCH  19  20
DOCKED: ATOM     20  C   UNL     1     134.328  75.782 220.159 -0.01 -0.00    +0.008 C  
DOCKED: BRANCH  20  21
DOCKED: ATOM     21  C   UNL     1     135.383  75.527 219.108 -0.00 -0.01    +0.070 C  
DOCKED: BRANCH  21  22
DOCKED: ATOM     22  C   UNL     1     136.515  74.830 219.767 -0.02 -0.02    +0.116 A  
DOCKED: ATOM     23  N   UNL     1     137.650  74.904 220.041 -0.02 +0.03    -0.167 NA 
DOCKED: ATOM     24  S   UNL     1     136.162  73.099 220.537 -0.04 +0.01    -0.080 S  
DOCKED: ATOM     25  N   UNL     1     138.415  74.063 220.673 -0.05 +0.05    -0.251 N  
DOCKED: ATOM     26  C   UNL     1     137.858  72.963 221.071 -0.06 -0.05    +0.208 A  
DOCKED: ATOM     27  H   UNL     1     139.452  74.291 220.844 +0.05 -0.04    +0.193 HD 
DOCKED: BRANCH  26  28
DOCKED: ATOM     28  N   UNL     1     138.343  71.899 221.737 -0.08 +0.04    -0.183 NA 
DOCKED: BRANCH  28  29
DOCKED: ATOM     29  C   UNL     1     139.326  72.200 222.715 -0.16 -0.06    +0.255 C  
DOCKED: ATOM     30  O   UNL     1     140.090  73.176 222.679 -0.71 +0.02    -0.272 OA 
DOCKED: BRANCH  29  31
DOCKED: ATOM     31  C   UNL     1     139.437  71.259 223.868 -0.31 -0.03    +0.123 C  
DOCKED: ATOM     32  C   UNL     1     139.379  69.821 223.455 -0.15 -0.04    +0.243 C  
DOCKED: ATOM     33  C   UNL     1     140.732  71.460 224.636 -0.41 -0.01    +0.056 C  
DOCKED: ATOM     34  O   UNL     1     139.375  69.048 224.641 -0.10 +0.08    -0.492 OA 
DOCKED: ATOM     35  C   UNL     1     140.548  70.719 225.927 -0.58 +0.00    -0.005 A  
DOCKED: ATOM     36  C   UNL     1     139.861  69.525 225.846 -0.39 -0.02    +0.122 A  
DOCKED: ATOM     37  C   UNL     1     141.033  71.203 227.101 -0.71 -0.00    +0.007 A  
DOCKED: ATOM     38  C   UNL     1     139.684  68.828 227.039 -0.54 -0.01    +0.047 A  
DOCKED: ATOM     39  C   UNL     1     140.858  70.510 228.289 -0.59 -0.00    +0.001 A  
DOCKED: ATOM     40  C   UNL     1     140.173  69.311 228.234 -0.64 -0.00    +0.004 A  
DOCKED: ENDBRANCH  29  31
DOCKED: ENDBRANCH  28  29
DOCKED: ENDBRANCH  26  28
DOCKED: ENDBRANCH  21  22
DOCKED: ENDBRANCH  20  21
DOCKED: ENDBRANCH  19  20
DOCKED: ENDBRANCH  18  19
DOCKED: ENDBRANCH   4  18
DOCKED: TORSDOF 14
DOCKED: TER
DOCKED: ENDMDL
________________________________________________________________________________


    FINAL DOCKED STATE:
    ________________________


Run:   19 / 20
Time taken for this run:   0.173s

DOCKED: MODEL        19
DOCKED: USER    Run = 19
DOCKED: USER
DOCKED: USER    Estimated Free Energy of Binding    =  -7.79 kcal/mol  [=(1)+(2)+(3)-(4)]
DOCKED: USER
DOCKED: USER    (1) Final Intermolecular Energy     = -11.97 kcal/mol
DOCKED: USER        vdW + Hbond + desolv Energy     = -11.60 kcal/mol
DOCKED: USER        Electrostatic Energy            =  -0.36 kcal/mol
DOCKED: USER        Moving Ligand-Fixed Receptor    = -11.97 kcal/mol
DOCKED: USER        Moving Ligand-Moving Receptor   =  +0.00 kcal/mol
DOCKED: USER    (2) Final Total Internal Energy     =  -2.79 kcal/mol
DOCKED: USER    (3) Torsional Free Energy           =  +4.18 kcal/mol
DOCKED: USER    (4) Unbound System's Energy         =  -2.79 kcal/mol
DOCKED: USER
DOCKED: USER
DOCKED: REMARK SMILES C[C@@H](C(=O)/N=c1/[nH]nc(CCCCc2n[nH]/c(=N\C(=O)[C@H]3COc4ccccc4C3)s2)s1)C(C)(C)CO
DOCKED: REMARK SMILES IDX 6 1 7 2 8 3 9 4 32 5 5 7 3 8 4 9 2 10 1 11 33 12 34 13 35 14
DOCKED: REMARK SMILES IDX 36 15 37 16 10 18 11 19 12 20 13 21 14 22 15 23 31 24 16 25
DOCKED: REMARK SMILES IDX 17 26 18 28 19 29 20 30 21 31 22 32 30 33 23 34 29 35 24 36
DOCKED: REMARK SMILES IDX 28 37 25 38 27 39 26 40
DOCKED: REMARK H PARENT 7 6 37 17 16 27
DOCKED: USER                              x       y       z     vdW  Elec       q    Type
DOCKED: USER                           _______ _______ _______ _____ _____    ______ ____
DOCKED: ROOT
DOCKED: ATOM      1  C   UNL     1     142.420  77.153 217.675 -0.18 -0.13    +0.208 A  
DOCKED: ATOM      2  N   UNL     1     142.988  78.326 217.654 -0.19 +0.25    -0.251 N  
DOCKED: ATOM      3  N   UNL     1     142.622  79.161 218.584 -0.23 +0.14    -0.167 NA 
DOCKED: ATOM      4  C   UNL     1     141.871  79.051 219.440 -0.23 -0.07    +0.116 A  
DOCKED: ATOM      5  S   UNL     1     141.263  77.278 219.165 -0.21 +0.04    -0.080 S  
DOCKED: ATOM      6  H   UNL     1     143.716  78.602 216.920 -0.45 -0.36    +0.193 HD 
DOCKED: ENDROOT
DOCKED: BRANCH   1   7
DOCKED: ATOM      7  N   UNL     1     142.480  76.085 216.986 -0.09 +0.09    -0.184 NA 
DOCKED: BRANCH   7   8
DOCKED: ATOM      8  C   UNL     1     143.556  75.194 217.243 -0.10 -0.11    +0.251 C  
DOCKED: ATOM      9  O   UNL     1     144.665  75.438 216.729 -0.12 +0.15    -0.272 OA 
DOCKED: BRANCH   8  10
DOCKED: ATOM     10  C   UNL     1     143.273  74.028 218.118 -0.12 -0.02    +0.086 C  
DOCKED: ATOM     11  C   UNL     1     141.788  73.807 218.155 -0.05 -0.00    +0.019 C  
DOCKED: BRANCH  10  12
DOCKED: ATOM     12  C   UNL     1     143.894  74.111 219.474 -0.34 +0.00    -0.001 C  
DOCKED: ATOM     13  C   UNL     1     144.069  75.594 219.790 -0.24 -0.01    +0.014 C  
DOCKED: ATOM     14  C   UNL     1     142.969  73.517 220.491 -0.30 -0.00    +0.014 C  
DOCKED: BRANCH  12  15
DOCKED: ATOM     15  C   UNL     1     145.230  73.412 219.571 -0.33 -0.00    +0.163 C  
DOCKED: BRANCH  15  16
DOCKED: ATOM     16  O   UNL     1     145.947  73.393 218.400 -0.68 -0.19    -0.396 OA 
DOCKED: ATOM     17  H   UNL     1     145.944  74.261 217.906 -0.46 -0.07    +0.210 HD 
DOCKED: ENDBRANCH  15  16
DOCKED: ENDBRANCH  12  15
DOCKED: ENDBRANCH  10  12
DOCKED: ENDBRANCH   8  10
DOCKED: ENDBRANCH   7   8
DOCKED: ENDBRANCH   1   7
DOCKED: BRANCH   4  18
DOCKED: ATOM     18  C   UNL     1     141.183  79.671 220.642 -0.27 -0.03    +0.070 C  
DOCKED: BRANCH  18  19
DOCKED: ATOM     19  C   UNL     1     141.838  79.080 221.849 -0.46 -0.00    +0.008 C  
DOCKED: BRANCH  19  20
DOCKED: ATOM     20  C   UNL     1     141.012  77.950 222.365 -0.46 -0.00    +0.008 C  
DOCKED: BRANCH  20  21
DOCKED: ATOM     21  C   UNL     1     139.587  78.053 221.873 -0.25 -0.02    +0.070 C  
DOCKED: BRANCH  21  22
DOCKED: ATOM     22  C   UNL     1     138.937  76.738 222.099 -0.26 -0.02    +0.116 A  
DOCKED: ATOM     23  N   UNL     1     138.031  76.198 222.604 -0.23 +0.04    -0.167 NA 
DOCKED: ATOM     24  S   UNL     1     139.778  75.189 221.321 -0.31 +0.02    -0.080 S  
DOCKED: ATOM     25  N   UNL     1     137.712  74.937 222.621 +0.10 +0.10    -0.251 N  
DOCKED: ATOM     26  C   UNL     1     138.505  74.132 221.987 -0.11 -0.06    +0.208 A  
DOCKED: ATOM     27  H   UNL     1     136.832  74.603 223.141 -0.26 -0.08    +0.193 HD 
DOCKED: BRANCH  26  28
DOCKED: ATOM     28  N   UNL     1     138.477  72.799 221.804 -0.12 +0.05    -0.183 NA 
DOCKED: BRANCH  28  29
DOCKED: ATOM     29  C   UNL     1     139.644  72.111 222.225 -0.19 -0.05    +0.255 C  
DOCKED: ATOM     30  O   UNL     1     140.710  72.067 221.594 -0.17 +0.03    -0.272 OA 
DOCKED: BRANCH  29  31
DOCKED: ATOM     31  C   UNL     1     139.566  71.389 223.529 -0.30 -0.03    +0.123 C  
DOCKED: ATOM     32  C   UNL     1     139.241  69.936 223.372 -0.16 -0.04    +0.243 C  
DOCKED: ATOM     33  C   UNL     1     140.868  71.483 224.304 -0.23 -0.01    +0.056 C  
DOCKED: ATOM     34  O   UNL     1     139.081  69.404 224.674 -0.10 +0.07    -0.492 OA 
DOCKED: ATOM     35  C   UNL     1     140.536  71.034 225.695 -0.58 +0.00    -0.005 A  
DOCKED: ATOM     36  C   UNL     1     139.638  69.992 225.796 -0.38 -0.02    +0.122 A  
DOCKED: ATOM     37  C   UNL     1     141.093  71.624 226.787 -0.74 -0.00    +0.007 A  
DOCKED: ATOM     38  C   UNL     1     139.321  69.566 227.083 -0.45 -0.01    +0.047 A  
DOCKED: ATOM     39  C   UNL     1     140.779  71.201 228.068 -0.74 -0.00    +0.001 A  
DOCKED: ATOM     40  C   UNL     1     139.881  70.158 228.196 -0.62 -0.00    +0.004 A  
DOCKED: ENDBRANCH  29  31
DOCKED: ENDBRANCH  28  29
DOCKED: ENDBRANCH  26  28
DOCKED: ENDBRANCH  21  22
DOCKED: ENDBRANCH  20  21
DOCKED: ENDBRANCH  19  20
DOCKED: ENDBRANCH  18  19
DOCKED: ENDBRANCH   4  18
DOCKED: TORSDOF 14
DOCKED: TER
DOCKED: ENDMDL
________________________________________________________________________________


    FINAL DOCKED STATE:
    ________________________


Run:   20 / 20
Time taken for this run:   0.173s

DOCKED: MODEL        20
DOCKED: USER    Run = 20
DOCKED: USER
DOCKED: USER    Estimated Free Energy of Binding    =  -4.56 kcal/mol  [=(1)+(2)+(3)-(4)]
DOCKED: USER
DOCKED: USER    (1) Final Intermolecular Energy     =  -8.74 kcal/mol
DOCKED: USER        vdW + Hbond + desolv Energy     =  -8.67 kcal/mol
DOCKED: USER        Electrostatic Energy            =  -0.07 kcal/mol
DOCKED: USER        Moving Ligand-Fixed Receptor    =  -8.74 kcal/mol
DOCKED: USER        Moving Ligand-Moving Receptor   =  +0.00 kcal/mol
DOCKED: USER    (2) Final Total Internal Energy     =  -7.52 kcal/mol
DOCKED: USER    (3) Torsional Free Energy           =  +4.18 kcal/mol
DOCKED: USER    (4) Unbound System's Energy         =  -7.52 kcal/mol
DOCKED: USER
DOCKED: USER
DOCKED: REMARK SMILES C[C@@H](C(=O)/N=c1/[nH]nc(CCCCc2n[nH]/c(=N\C(=O)[C@H]3COc4ccccc4C3)s2)s1)C(C)(C)CO
DOCKED: REMARK SMILES IDX 6 1 7 2 8 3 9 4 32 5 5 7 3 8 4 9 2 10 1 11 33 12 34 13 35 14
DOCKED: REMARK SMILES IDX 36 15 37 16 10 18 11 19 12 20 13 21 14 22 15 23 31 24 16 25
DOCKED: REMARK SMILES IDX 17 26 18 28 19 29 20 30 21 31 22 32 30 33 23 34 29 35 24 36
DOCKED: REMARK SMILES IDX 28 37 25 38 27 39 26 40
DOCKED: REMARK H PARENT 7 6 37 17 16 27
DOCKED: USER                              x       y       z     vdW  Elec       q    Type
DOCKED: USER                           _______ _______ _______ _____ _____    ______ ____
DOCKED: ROOT
DOCKED: ATOM      1  C   UNL     1     143.238  76.481 219.329 -0.29 -0.14    +0.208 A  
DOCKED: ATOM      2  N   UNL     1     142.576  77.304 220.093 -0.18 +0.19    -0.251 N  
DOCKED: ATOM      3  N   UNL     1     142.170  78.408 219.536 -0.20 +0.12    -0.167 NA 
DOCKED: ATOM      4  C   UNL     1     142.292  78.801 218.469 -0.26 -0.09    +0.116 A  
DOCKED: ATOM      5  S   UNL     1     143.270  77.389 217.672 -0.17 +0.06    -0.080 S  
DOCKED: ATOM      6  H   UNL     1     142.370  77.096 221.123 -0.42 -0.17    +0.193 HD 
DOCKED: ENDROOT
DOCKED: BRANCH   1   7
DOCKED: ATOM      7  N   UNL     1     143.792  75.343 219.458 -0.26 +0.10    -0.184 NA 
DOCKED: BRANCH   7   8
DOCKED: ATOM      8  C   UNL     1     143.259  74.457 220.433 -0.22 -0.09    +0.251 C  
DOCKED: ATOM      9  O   UNL     1     142.317  74.856 221.146 -0.21 +0.10    -0.272 OA 
DOCKED: BRANCH   8  10
DOCKED: ATOM     10  C   UNL     1     143.872  73.108 220.527 -0.33 -0.02    +0.086 C  
DOCKED: ATOM     11  C   UNL     1     145.306  73.202 220.091 -0.52 -0.00    +0.019 C  
DOCKED: BRANCH  10  12
DOCKED: ATOM     12  C   UNL     1     143.108  72.035 219.822 -0.22 +0.00    -0.001 C  
DOCKED: ATOM     13  C   UNL     1     143.209  72.329 218.328 -0.09 -0.00    +0.014 C  
DOCKED: ATOM     14  C   UNL     1     143.742  70.704 220.087 -0.23 -0.00    +0.014 C  
DOCKED: BRANCH  12  15
DOCKED: ATOM     15  C   UNL     1     141.653  71.965 220.226 -0.12 -0.02    +0.163 C  
DOCKED: BRANCH  15  16
DOCKED: ATOM     16  O   UNL     1     140.873  72.974 219.717 -0.01 +0.07    -0.396 OA 
DOCKED: ATOM     17  H   UNL     1     140.651  73.689 220.376 +0.06 -0.04    +0.210 HD 
DOCKED: ENDBRANCH  15  16
DOCKED: ENDBRANCH  12  15
DOCKED: ENDBRANCH  10  12
DOCKED: ENDBRANCH   8  10
DOCKED: ENDBRANCH   7   8
DOCKED: ENDBRANCH   1   7
DOCKED: BRANCH   4  18
DOCKED: ATOM     18  C   UNL     1     142.024  79.902 217.460 -0.24 -0.06    +0.070 C  
DOCKED: BRANCH  18  19
DOCKED: ATOM     19  C   UNL     1     140.679  79.616 216.875 -0.08 -0.00    +0.008 C  
DOCKED: BRANCH  19  20
DOCKED: ATOM     20  C   UNL     1     140.817  78.641 215.754 -0.06 -0.00    +0.008 C  
DOCKED: BRANCH  20  21
DOCKED: ATOM     21  C   UNL     1     139.710  77.614 215.792 -0.01 -0.02    +0.070 C  
DOCKED: BRANCH  21  22
DOCKED: ATOM     22  C   UNL     1     139.903  76.788 217.010 -0.01 -0.04    +0.116 A  
DOCKED: ATOM     23  N   UNL     1     140.683  76.182 217.636 -0.02 +0.06    -0.167 NA 
DOCKED: ATOM     24  S   UNL     1     138.364  76.491 218.131 -0.01 +0.02    -0.080 S  
DOCKED: ATOM     25  N   UNL     1     140.533  75.520 218.746 -0.01 +0.07    -0.251 N  
DOCKED: ATOM     26  C   UNL     1     139.343  75.515 219.258 -0.02 -0.05    +0.208 A  
DOCKED: ATOM     27  H   UNL     1     141.367  75.012 219.195 +0.06 -0.06    +0.193 HD 
DOCKED: BRANCH  26  28
DOCKED: ATOM     28  N   UNL     1     138.845  74.945 220.370 -0.05 +0.04    -0.183 NA 
DOCKED: BRANCH  28  29
DOCKED: ATOM     29  C   UNL     1     139.542  75.253 221.567 -0.20 -0.05    +0.255 C  
DOCKED: ATOM     30  O   UNL     1     140.049  74.417 222.330 -0.81 +0.00    -0.272 OA 
DOCKED: BRANCH  29  31
DOCKED: ATOM     31  C   UNL     1     139.665  76.697 221.921 -0.29 -0.03    +0.123 C  
DOCKED: ATOM     32  C   UNL     1     138.483  77.214 222.681 -0.19 -0.04    +0.243 C  
DOCKED: ATOM     33  C   UNL     1     140.900  76.969 222.761 -0.23 -0.02    +0.056 C  
DOCKED: ATOM     34  O   UNL     1     138.672  78.607 222.846 -0.09 +0.08    -0.492 OA 
DOCKED: ATOM     35  C   UNL     1     141.077  78.457 222.738 -0.49 +0.00    -0.005 A  
DOCKED: ATOM     36  C   UNL     1     139.919  79.206 222.784 -0.30 -0.03    +0.122 A  
DOCKED: ATOM     37  C   UNL     1     142.311  79.027 222.676 -0.52 -0.00    +0.007 A  
DOCKED: ATOM     38  C   UNL     1     140.071  80.589 222.763 -0.34 -0.01    +0.047 A  
DOCKED: ATOM     39  C   UNL     1     142.463  80.405 222.656 -0.60 -0.00    +0.001 A  
DOCKED: ATOM     40  C   UNL     1     141.317  81.176 222.701 -0.48 -0.00    +0.004 A  
DOCKED: ENDBRANCH  29  31
DOCKED: ENDBRANCH  28  29
DOCKED: ENDBRANCH  26  28
DOCKED: ENDBRANCH  21  22
DOCKED: ENDBRANCH  20  21
DOCKED: ENDBRANCH  19  20
DOCKED: ENDBRANCH  18  19
DOCKED: ENDBRANCH   4  18
DOCKED: TORSDOF 14
DOCKED: TER
DOCKED: ENDMDL
________________________________________________________________________________


    CLUSTERING HISTOGRAM
    ____________________


________________________________________________________________________________
     |           |     |           |     |
Clus | Lowest    | Run | Mean      | Num | Histogram
-ter | Binding   |     | Binding   | in  |
Rank | Energy    |     | Energy    | Clus|    5    10   15   20   25   30   35
_____|___________|_____|___________|_____|____:____|____:____|____:____|____:___
   1 |     -9.50 |   7 |     -9.50 |   1 |#
   2 |     -7.79 |  19 |     -7.79 |   1 |#
   3 |     -7.48 |  17 |     -7.48 |   1 |#
   4 |     -7.34 |   8 |     -6.60 |   2 |##
   5 |     -7.18 |  11 |     -7.18 |   1 |#
   6 |     -6.33 |   9 |     -5.96 |   2 |##
   7 |     -5.98 |   6 |     -5.98 |   1 |#
   8 |     -5.56 |  14 |     -5.31 |   3 |###
   9 |     -5.21 |   5 |     -5.21 |   1 |#
  10 |     -4.86 |   4 |     -4.86 |   1 |#
  11 |     -4.56 |  20 |     -4.55 |   2 |##
  12 |     -4.29 |   1 |     -4.14 |   2 |##
  13 |     -3.29 |   2 |     -3.29 |   1 |#
  14 |     -3.24 |  12 |     -3.24 |   1 |#
_____|___________|_____|___________|_____|______________________________________


    RMSD TABLE
    __________


_______________________________________________________________________
     |      |      |           |         |                 |
Rank | Sub- | Run  | Binding   | Cluster | Reference       | Grep
     | Rank |      | Energy    | RMSD    | RMSD            | Pattern
_____|______|______|___________|_________|_________________|___________
   1      1      7       -9.50      0.00    269.88           RANKING
   2      1     19       -7.79      0.00    269.26           RANKING
   3      1     17       -7.48      0.00    269.10           RANKING
   4      1      8       -7.34      0.00    269.77           RANKING
   4      2     16       -5.86      1.43    269.21           RANKING
   5      1     11       -7.18      0.00    269.13           RANKING
   6      1      9       -6.33      0.00    269.33           RANKING
   6      2     10       -5.58      1.73    269.32           RANKING
   7      1      6       -5.98      0.00    269.01           RANKING
   8      1     14       -5.56      0.00    268.91           RANKING
   8      2     18       -5.44      1.19    268.82           RANKING
   8      3      3       -4.92      1.71    268.22           RANKING
   9      1      5       -5.21      0.00    268.53           RANKING
  10      1      4       -4.86      0.00    269.24           RANKING
  11      1     20       -4.56      0.00    268.75           RANKING
  11      2     13       -4.54      0.07    268.74           RANKING
  12      1      1       -4.29      0.00    269.76           RANKING
  12      2     15       -4.00      1.99    269.32           RANKING
  13      1      2       -3.29      0.00    268.98           RANKING
  14      1     12       -3.24      0.00    268.81           RANKING

Run time 3.381 sec
Idle time 0.000 sec
