AutoDock-GPU version: v1.6

**********************************************************
**    AutoDock-GPU AUTODOCKTOOLS-COMPATIBLE DLG FILE    **
**********************************************************


    DOCKING PARAMETERS
    ________________________


Ligand file:                               /home/a/REINVENT4/ReinventStudies/pleaseWork/justRnve/graph-dock-w0wspr/graph-DockGPU/node-autodockgpu/inputs/GHRBDJAYIWVDBG-PWTMYUQDNA-N.pdbqt
Grid fld file:                             /home/a/REINVENT4/ReinventStudies/mols/Rad51/maps/rad51_receptor.maps.fld

Random seed:                               42
Number of runs:                            20
Number of energy evaluations:              5210753
Number of generations:                     42000
Size of population:                        150
Rate of crossover:                         80.000000%
Tournament selection probability limit:    60.000000%
Rate of mutation:                          2.000000%
Maximal allowed delta movement:            +/- 6.000000A
Maximal allowed delta angle:               +/- 90.000000

Rate of local search:                      100.000000%
Maximal number of local search iterations: 300
Rho lower bound:                           0.010000
Spread of local search delta movement:     2.000000A
Spread of local search delta angle:        74.999999
Limit of consecutive successes/failures:   4

Handle symmetry during clustering:         YES
RMSD tolerance:                            2.000000A

Program call in command line was:          /home/a/REINVENT4/ReinventStudies/adgpu-v1.6_linux_x64_cuda12_128wi --filelist batch.txt --heuristics 1 --nrun 20 --psize 150 --lsit 300 --seed 42 --heurmax 12000000 


    GRID PARAMETERS
    ________________________


Receptor name:                             rad51_receptor
Number of grid points (x, y, z):           53, 53, 53
Grid center (x, y, z):                     139.950000, 75.640000, 221.970000A
Grid size (x, y, z):                       19.500000, 19.500000, 19.500000A
Grid spacing:                              0.375000A


    LIGAND PARAMETERS
    ________________________


Ligand name:                               /home/a/REINVENT4/ReinventStudies/pleaseWork/justRnve/graph-dock-w0wspr/graph-DockGPU/node-autodockgpu/inputs/GHRBDJAYIWVDBG-PWTMYUQDNA-N
Number of atoms:                           40
Number of rotatable bonds:                 14
Number of atom types:                      7


    DUMMY DATA (only for ADT-compatibility)
    ________________________


DPF> outlev 1
DPF> ga_run 20
DPF> fld /home/a/REINVENT4/ReinventStudies/mols/Rad51/maps/rad51_receptor.maps.fld
DPF> move /home/a/REINVENT4/ReinventStudies/pleaseWork/justRnve/graph-dock-w0wspr/graph-DockGPU/node-autodockgpu/inputs/GHRBDJAYIWVDBG-PWTMYUQDNA-N.pdbqt


    COUNTER STATES
    ________________________


Number of energy evaluations performed:    1148620
Number of generations used:                85


    INPUT LIGAND PDBQT FILE:
    ________________________


INPUT-LIGAND-PDBQT: REMARK SMILES C[C@@H](C(=O)/N=c1/[nH]nc(CCCCc2n[nH]/c(=N\C(=O)[C@@H]3COc4ccccc4C3)s2)s1)C(C)(C)CO
INPUT-LIGAND-PDBQT: REMARK SMILES IDX 6 1 7 2 8 3 9 4 32 5 5 7 3 8 4 9 2 10 1 11 33 12 34 13 35 14
INPUT-LIGAND-PDBQT: REMARK SMILES IDX 36 15 37 16 10 18 11 19 12 20 13 21 14 22 15 23 31 24 16 25
INPUT-LIGAND-PDBQT: REMARK SMILES IDX 17 26 18 28 19 29 20 30 21 31 22 32 30 33 23 34 29 35 24 36
INPUT-LIGAND-PDBQT: REMARK SMILES IDX 28 37 25 38 27 39 26 40
INPUT-LIGAND-PDBQT: REMARK H PARENT 7 6 37 17 16 27
INPUT-LIGAND-PDBQT: ROOT
INPUT-LIGAND-PDBQT: ATOM      1  C   UNL     1      -2.823   0.519  -1.216  1.00  0.00     0.208 A 
INPUT-LIGAND-PDBQT: ATOM      2  N   UNL     1      -2.597   1.441  -2.123  1.00  0.00    -0.251 N 
INPUT-LIGAND-PDBQT: ATOM      3  N   UNL     1      -1.899   1.085  -3.140  1.00  0.00    -0.167 NA
INPUT-LIGAND-PDBQT: ATOM      4  C   UNL     1      -1.409   0.087  -3.435  1.00  0.00     0.116 A 
INPUT-LIGAND-PDBQT: ATOM      5  S   UNL     1      -1.964  -0.947  -1.893  1.00  0.00    -0.080 S 
INPUT-LIGAND-PDBQT: ATOM      6  H   UNL     1      -2.979   2.440  -2.016  1.00  0.00     0.193 HD
INPUT-LIGAND-PDBQT: ENDROOT
INPUT-LIGAND-PDBQT: BRANCH   1   7
INPUT-LIGAND-PDBQT: ATOM      7  N   UNL     1      -3.462   0.509  -0.099  1.00  0.00    -0.184 NA
INPUT-LIGAND-PDBQT: BRANCH   7   8
INPUT-LIGAND-PDBQT: ATOM      8  C   UNL     1      -3.540  -0.667   0.693  1.00  0.00     0.251 C 
INPUT-LIGAND-PDBQT: ATOM      9  O   UNL     1      -2.421  -1.113   1.123  1.00  0.00    -0.272 OA
INPUT-LIGAND-PDBQT: BRANCH   8  10
INPUT-LIGAND-PDBQT: ATOM     10  C   UNL     1      -4.791  -1.368   1.029  1.00  0.00     0.086 C 
INPUT-LIGAND-PDBQT: ATOM     11  C   UNL     1      -5.577  -1.828  -0.183  1.00  0.00     0.019 C 
INPUT-LIGAND-PDBQT: BRANCH  10  12
INPUT-LIGAND-PDBQT: ATOM     12  C   UNL     1      -5.710  -0.544   1.891  1.00  0.00    -0.001 C 
INPUT-LIGAND-PDBQT: ATOM     13  C   UNL     1      -6.861  -1.455   2.284  1.00  0.00     0.014 C 
INPUT-LIGAND-PDBQT: ATOM     14  C   UNL     1      -4.948  -0.056   3.080  1.00  0.00     0.014 C 
INPUT-LIGAND-PDBQT: BRANCH  12  15
INPUT-LIGAND-PDBQT: ATOM     15  C   UNL     1      -6.259   0.595   1.068  1.00  0.00     0.163 C 
INPUT-LIGAND-PDBQT: BRANCH  15  16
INPUT-LIGAND-PDBQT: ATOM     16  O   UNL     1      -7.108   1.314   1.938  1.00  0.00    -0.396 OA
INPUT-LIGAND-PDBQT: ATOM     17  H   UNL     1      -7.946   1.560   1.484  1.00  0.00     0.210 HD
INPUT-LIGAND-PDBQT: ENDBRANCH  15  16
INPUT-LIGAND-PDBQT: ENDBRANCH  12  15
INPUT-LIGAND-PDBQT: ENDBRANCH  10  12
INPUT-LIGAND-PDBQT: ENDBRANCH   8  10
INPUT-LIGAND-PDBQT: ENDBRANCH   7   8
INPUT-LIGAND-PDBQT: ENDBRANCH   1   7
INPUT-LIGAND-PDBQT: BRANCH   4  18
INPUT-LIGAND-PDBQT: ATOM     18  C   UNL     1      -0.631  -0.735  -4.401  1.00  0.00     0.070 C 
INPUT-LIGAND-PDBQT: BRANCH  18  19
INPUT-LIGAND-PDBQT: ATOM     19  C   UNL     1       0.834  -0.747  -4.317  1.00  0.00     0.008 C 
INPUT-LIGAND-PDBQT: BRANCH  19  20
INPUT-LIGAND-PDBQT: ATOM     20  C   UNL     1       1.546   0.499  -4.578  1.00  0.00     0.008 C 
INPUT-LIGAND-PDBQT: BRANCH  20  21
INPUT-LIGAND-PDBQT: ATOM     21  C   UNL     1       1.413   1.679  -3.699  1.00  0.00     0.070 C 
INPUT-LIGAND-PDBQT: BRANCH  21  22
INPUT-LIGAND-PDBQT: ATOM     22  C   UNL     1       1.868   1.534  -2.322  1.00  0.00     0.116 A 
INPUT-LIGAND-PDBQT: ATOM     23  N   UNL     1       2.903   1.688  -1.725  1.00  0.00    -0.167 NA
INPUT-LIGAND-PDBQT: ATOM     24  S   UNL     1       0.763   1.021  -0.906  1.00  0.00    -0.080 S 
INPUT-LIGAND-PDBQT: ATOM     25  N   UNL     1       3.165   1.541  -0.476  1.00  0.00    -0.251 N 
INPUT-LIGAND-PDBQT: ATOM     26  C   UNL     1       2.183   1.164   0.320  1.00  0.00     0.208 A 
INPUT-LIGAND-PDBQT: ATOM     27  H   UNL     1       4.150   1.716  -0.076  1.00  0.00     0.193 HD
INPUT-LIGAND-PDBQT: BRANCH  26  28
INPUT-LIGAND-PDBQT: ATOM     28  N   UNL     1       2.034   0.922   1.535  1.00  0.00    -0.183 NA
INPUT-LIGAND-PDBQT: BRANCH  28  29
INPUT-LIGAND-PDBQT: ATOM     29  C   UNL     1       3.178   1.062   2.387  1.00  0.00     0.255 C 
INPUT-LIGAND-PDBQT: ATOM     30  O   UNL     1       3.683   2.186   2.637  1.00  0.00    -0.272 OA
INPUT-LIGAND-PDBQT: BRANCH  29  31
INPUT-LIGAND-PDBQT: ATOM     31  C   UNL     1       3.755  -0.171   2.974  1.00  0.00     0.123 C 
INPUT-LIGAND-PDBQT: ATOM     32  C   UNL     1       4.941   0.164   3.857  1.00  0.00     0.243 C 
INPUT-LIGAND-PDBQT: ATOM     33  C   UNL     1       4.206  -1.088   1.861  1.00  0.00     0.056 C 
INPUT-LIGAND-PDBQT: ATOM     34  O   UNL     1       5.831   0.945   3.063  1.00  0.00    -0.492 OA
INPUT-LIGAND-PDBQT: ATOM     35  C   UNL     1       5.426  -0.527   1.244  1.00  0.00    -0.005 A 
INPUT-LIGAND-PDBQT: ATOM     36  C   UNL     1       6.209   0.448   1.818  1.00  0.00     0.122 A 
INPUT-LIGAND-PDBQT: ATOM     37  C   UNL     1       5.821  -1.013  -0.003  1.00  0.00     0.007 A 
INPUT-LIGAND-PDBQT: ATOM     38  C   UNL     1       7.346   0.961   1.230  1.00  0.00     0.047 A 
INPUT-LIGAND-PDBQT: ATOM     39  C   UNL     1       6.962  -0.526  -0.637  1.00  0.00     0.001 A 
INPUT-LIGAND-PDBQT: ATOM     40  C   UNL     1       7.709   0.465   0.005  1.00  0.00     0.004 A 
INPUT-LIGAND-PDBQT: ENDBRANCH  29  31
INPUT-LIGAND-PDBQT: ENDBRANCH  28  29
INPUT-LIGAND-PDBQT: ENDBRANCH  26  28
INPUT-LIGAND-PDBQT: ENDBRANCH  21  22
INPUT-LIGAND-PDBQT: ENDBRANCH  20  21
INPUT-LIGAND-PDBQT: ENDBRANCH  19  20
INPUT-LIGAND-PDBQT: ENDBRANCH  18  19
INPUT-LIGAND-PDBQT: ENDBRANCH   4  18
INPUT-LIGAND-PDBQT: TORSDOF 14


    FINAL DOCKED STATE:
    ________________________


Run:   1 / 20
Time taken for this run:   0.086s

DOCKED: MODEL        1
DOCKED: USER    Run = 1
DOCKED: USER
DOCKED: USER    Estimated Free Energy of Binding    =  -5.41 kcal/mol  [=(1)+(2)+(3)-(4)]
DOCKED: USER
DOCKED: USER    (1) Final Intermolecular Energy     =  -9.58 kcal/mol
DOCKED: USER        vdW + Hbond + desolv Energy     =  -9.22 kcal/mol
DOCKED: USER        Electrostatic Energy            =  -0.37 kcal/mol
DOCKED: USER        Moving Ligand-Fixed Receptor    =  -9.58 kcal/mol
DOCKED: USER        Moving Ligand-Moving Receptor   =  +0.00 kcal/mol
DOCKED: USER    (2) Final Total Internal Energy     =  -6.07 kcal/mol
DOCKED: USER    (3) Torsional Free Energy           =  +4.18 kcal/mol
DOCKED: USER    (4) Unbound System's Energy         =  -6.07 kcal/mol
DOCKED: USER
DOCKED: USER
DOCKED: REMARK SMILES C[C@@H](C(=O)/N=c1/[nH]nc(CCCCc2n[nH]/c(=N\C(=O)[C@@H]3COc4ccccc4C3)s2)s1)C(C)(C)CO
DOCKED: REMARK SMILES IDX 6 1 7 2 8 3 9 4 32 5 5 7 3 8 4 9 2 10 1 11 33 12 34 13 35 14
DOCKED: REMARK SMILES IDX 36 15 37 16 10 18 11 19 12 20 13 21 14 22 15 23 31 24 16 25
DOCKED: REMARK SMILES IDX 17 26 18 28 19 29 20 30 21 31 22 32 30 33 23 34 29 35 24 36
DOCKED: REMARK SMILES IDX 28 37 25 38 27 39 26 40
DOCKED: REMARK H PARENT 7 6 37 17 16 27
DOCKED: USER                              x       y       z     vdW  Elec       q    Type
DOCKED: USER                           _______ _______ _______ _____ _____    ______ ____
DOCKED: ROOT
DOCKED: ATOM      1  C   UNL     1     142.164  77.793 219.223 -0.21 -0.13    +0.208 A  
DOCKED: ATOM      2  N   UNL     1     141.050  77.761 219.918 -0.10 +0.11    -0.251 N  
DOCKED: ATOM      3  N   UNL     1     140.520  78.896 220.202 -0.10 +0.06    -0.167 NA 
DOCKED: ATOM      4  C   UNL     1     140.828  79.978 219.965 -0.17 -0.04    +0.116 A  
DOCKED: ATOM      5  S   UNL     1     142.446  79.583 218.974 -0.14 +0.06    -0.080 S  
DOCKED: ATOM      6  H   UNL     1     140.609  76.832 220.231 +0.07 -0.07    +0.193 HD 
DOCKED: ENDROOT
DOCKED: BRANCH   1   7
DOCKED: ATOM      7  N   UNL     1     142.954  76.884 218.769 -0.25 +0.12    -0.184 NA 
DOCKED: BRANCH   7   8
DOCKED: ATOM      8  C   UNL     1     142.978  75.581 219.333 -0.22 -0.12    +0.251 C  
DOCKED: ATOM      9  O   UNL     1     142.423  75.471 220.481 -0.22 +0.13    -0.272 OA 
DOCKED: BRANCH   8  10
DOCKED: ATOM     10  C   UNL     1     143.583  74.402 218.691 -0.20 -0.03    +0.086 C  
DOCKED: ATOM     11  C   UNL     1     142.621  73.625 217.814 -0.07 -0.00    +0.019 C  
DOCKED: BRANCH  10  12
DOCKED: ATOM     12  C   UNL     1     144.186  73.442 219.680 -0.35 +0.00    -0.001 C  
DOCKED: ATOM     13  C   UNL     1     145.094  74.265 220.579 -0.49 -0.00    +0.014 C  
DOCKED: ATOM     14  C   UNL     1     143.085  72.783 220.446 -0.29 -0.00    +0.014 C  
DOCKED: BRANCH  12  15
DOCKED: ATOM     15  C   UNL     1     145.031  72.439 218.934 -0.22 +0.04    +0.163 C  
DOCKED: BRANCH  15  16
DOCKED: ATOM     16  O   UNL     1     146.317  73.017 218.852 -0.69 -0.44    -0.396 OA 
DOCKED: ATOM     17  H   UNL     1     146.260  73.959 218.573 -0.46 +0.01    +0.210 HD 
DOCKED: ENDBRANCH  15  16
DOCKED: ENDBRANCH  12  15
DOCKED: ENDBRANCH  10  12
DOCKED: ENDBRANCH   8  10
DOCKED: ENDBRANCH   7   8
DOCKED: ENDBRANCH   1   7
DOCKED: BRANCH   4  18
DOCKED: ATOM     18  C   UNL     1     140.563  81.441 220.030 -0.19 -0.02    +0.070 C  
DOCKED: BRANCH  18  19
DOCKED: ATOM     19  C   UNL     1     140.715  82.142 221.310 -0.32 -0.00    +0.008 C  
DOCKED: BRANCH  19  20
DOCKED: ATOM     20  C   UNL     1     141.799  81.729 222.194 -0.41 -0.00    +0.008 C  
DOCKED: BRANCH  20  21
DOCKED: ATOM     21  C   UNL     1     141.571  80.850 223.359 -0.53 -0.01    +0.070 C  
DOCKED: BRANCH  21  22
DOCKED: ATOM     22  C   UNL     1     141.163  79.478 223.084 -0.43 -0.03    +0.116 A  
DOCKED: ATOM     23  N   UNL     1     141.715  78.442 222.813 -0.35 +0.08    -0.167 NA 
DOCKED: ATOM     24  S   UNL     1     139.391  78.887 223.124 -0.40 +0.01    -0.080 S  
DOCKED: ATOM     25  N   UNL     1     141.223  77.272 222.612 -0.22 +0.11    -0.251 N  
DOCKED: ATOM     26  C   UNL     1     139.915  77.129 222.704 -0.18 -0.04    +0.208 A  
DOCKED: ATOM     27  H   UNL     1     141.845  76.425 222.374 -0.49 -0.13    +0.193 HD 
DOCKED: BRANCH  26  28
DOCKED: ATOM     28  N   UNL     1     139.087  76.203 222.586 -0.27 +0.04    -0.183 NA 
DOCKED: BRANCH  28  29
DOCKED: ATOM     29  C   UNL     1     139.530  74.989 221.967 -0.20 -0.04    +0.255 C  
DOCKED: ATOM     30  O   UNL     1     140.713  74.581 222.083 -0.70 +0.00    -0.272 OA 
DOCKED: BRANCH  29  31
DOCKED: ATOM     31  C   UNL     1     138.540  74.217 221.178 -0.14 -0.03    +0.123 C  
DOCKED: ATOM     32  C   UNL     1     139.000  74.073 219.741 -0.03 -0.05    +0.243 C  
DOCKED: ATOM     33  C   UNL     1     137.211  74.937 221.206 -0.11 -0.01    +0.056 C  
DOCKED: ATOM     34  O   UNL     1     139.275  75.390 219.268 +0.01 +0.12    -0.492 OA 
DOCKED: ATOM     35  C   UNL     1     137.303  76.142 220.356 -0.06 +0.00    -0.005 A  
DOCKED: ATOM     36  C   UNL     1     138.291  76.363 219.424 -0.02 -0.03    +0.122 A  
DOCKED: ATOM     37  C   UNL     1     136.325  77.128 220.497 -0.04 -0.00    +0.007 A  
DOCKED: ATOM     38  C   UNL     1     138.362  77.493 218.637 -0.01 -0.01    +0.047 A  
DOCKED: ATOM     39  C   UNL     1     136.355  78.287 219.725 -0.02 -0.00    +0.001 A  
DOCKED: ATOM     40  C   UNL     1     137.389  78.444 218.799 -0.01 -0.00    +0.004 A  
DOCKED: ENDBRANCH  29  31
DOCKED: ENDBRANCH  28  29
DOCKED: ENDBRANCH  26  28
DOCKED: ENDBRANCH  21  22
DOCKED: ENDBRANCH  20  21
DOCKED: ENDBRANCH  19  20
DOCKED: ENDBRANCH  18  19
DOCKED: ENDBRANCH   4  18
DOCKED: TORSDOF 14
DOCKED: TER
DOCKED: ENDMDL
________________________________________________________________________________


    FINAL DOCKED STATE:
    ________________________


Run:   2 / 20
Time taken for this run:   0.086s

DOCKED: MODEL        2
DOCKED: USER    Run = 2
DOCKED: USER
DOCKED: USER    Estimated Free Energy of Binding    =  -3.57 kcal/mol  [=(1)+(2)+(3)-(4)]
DOCKED: USER
DOCKED: USER    (1) Final Intermolecular Energy     =  -7.75 kcal/mol
DOCKED: USER        vdW + Hbond + desolv Energy     =  -7.77 kcal/mol
DOCKED: USER        Electrostatic Energy            =  +0.02 kcal/mol
DOCKED: USER        Moving Ligand-Fixed Receptor    =  -7.75 kcal/mol
DOCKED: USER        Moving Ligand-Moving Receptor   =  +0.00 kcal/mol
DOCKED: USER    (2) Final Total Internal Energy     =  -7.04 kcal/mol
DOCKED: USER    (3) Torsional Free Energy           =  +4.18 kcal/mol
DOCKED: USER    (4) Unbound System's Energy         =  -7.04 kcal/mol
DOCKED: USER
DOCKED: USER
DOCKED: REMARK SMILES C[C@@H](C(=O)/N=c1/[nH]nc(CCCCc2n[nH]/c(=N\C(=O)[C@@H]3COc4ccccc4C3)s2)s1)C(C)(C)CO
DOCKED: REMARK SMILES IDX 6 1 7 2 8 3 9 4 32 5 5 7 3 8 4 9 2 10 1 11 33 12 34 13 35 14
DOCKED: REMARK SMILES IDX 36 15 37 16 10 18 11 19 12 20 13 21 14 22 15 23 31 24 16 25
DOCKED: REMARK SMILES IDX 17 26 18 28 19 29 20 30 21 31 22 32 30 33 23 34 29 35 24 36
DOCKED: REMARK SMILES IDX 28 37 25 38 27 39 26 40
DOCKED: REMARK H PARENT 7 6 37 17 16 27
DOCKED: USER                              x       y       z     vdW  Elec       q    Type
DOCKED: USER                           _______ _______ _______ _____ _____    ______ ____
DOCKED: ROOT
DOCKED: ATOM      1  C   UNL     1     136.315  76.757 222.834 -0.16 -0.04    +0.208 A  
DOCKED: ATOM      2  N   UNL     1     136.923  76.269 221.778 -0.08 +0.05    -0.251 N  
DOCKED: ATOM      3  N   UNL     1     136.996  74.989 221.700 -0.10 +0.04    -0.167 NA 
DOCKED: ATOM      4  C   UNL     1     136.627  74.146 222.390 -0.13 -0.03    +0.116 A  
DOCKED: ATOM      5  S   UNL     1     135.827  75.258 223.761 -0.33 +0.02    -0.080 S  
DOCKED: ATOM      6  H   UNL     1     137.335  76.910 221.020 +0.04 -0.04    +0.193 HD 
DOCKED: ENDROOT
DOCKED: BRANCH   1   7
DOCKED: ATOM      7  N   UNL     1     136.059  77.952 223.239 -0.10 +0.03    -0.184 NA 
DOCKED: BRANCH   7   8
DOCKED: ATOM      8  C   UNL     1     136.403  79.084 222.454 -0.09 -0.04    +0.251 C  
DOCKED: ATOM      9  O   UNL     1     136.616  78.847 221.215 -0.03 +0.05    -0.272 OA 
DOCKED: BRANCH   8  10
DOCKED: ATOM     10  C   UNL     1     136.522  80.457 222.973 -0.14 -0.01    +0.086 C  
DOCKED: ATOM     11  C   UNL     1     136.267  81.527 221.930 -0.07 -0.00    +0.019 C  
DOCKED: BRANCH  10  12
DOCKED: ATOM     12  C   UNL     1     137.864  80.731 223.599 -0.33 +0.00    -0.001 C  
DOCKED: ATOM     13  C   UNL     1     138.660  81.525 222.577 -0.23 -0.00    +0.014 C  
DOCKED: ATOM     14  C   UNL     1     137.657  81.495 224.867 -0.35 -0.00    +0.014 C  
DOCKED: BRANCH  12  15
DOCKED: ATOM     15  C   UNL     1     138.566  79.418 223.841 -0.11 -0.02    +0.163 C  
DOCKED: BRANCH  15  16
DOCKED: ATOM     16  O   UNL     1     139.273  79.143 222.649 -0.12 +0.07    -0.396 OA 
DOCKED: ATOM     17  H   UNL     1     138.651  78.926 221.917 +0.08 -0.04    +0.210 HD 
DOCKED: ENDBRANCH  15  16
DOCKED: ENDBRANCH  12  15
DOCKED: ENDBRANCH  10  12
DOCKED: ENDBRANCH   8  10
DOCKED: ENDBRANCH   7   8
DOCKED: ENDBRANCH   1   7
DOCKED: BRANCH   4  18
DOCKED: ATOM     18  C   UNL     1     136.456  72.698 222.684 -0.14 -0.02    +0.070 C  
DOCKED: BRANCH  18  19
DOCKED: ATOM     19  C   UNL     1     137.620  71.908 223.103 -0.13 -0.00    +0.008 C  
DOCKED: BRANCH  19  20
DOCKED: ATOM     20  C   UNL     1     138.756  71.824 222.191 -0.20 -0.00    +0.008 C  
DOCKED: BRANCH  20  21
DOCKED: ATOM     21  C   UNL     1     139.939  72.698 222.329 -0.28 -0.01    +0.070 C  
DOCKED: BRANCH  21  22
DOCKED: ATOM     22  C   UNL     1     139.834  74.046 221.785 -0.24 -0.02    +0.116 A  
DOCKED: ATOM     23  N   UNL     1     140.008  75.166 222.193 -0.62 +0.02    -0.167 NA 
DOCKED: ATOM     24  S   UNL     1     139.356  74.426 220.020 -0.10 +0.02    -0.080 S  
DOCKED: ATOM     25  N   UNL     1     139.896  76.292 221.584 -0.18 +0.06    -0.251 N  
DOCKED: ATOM     26  C   UNL     1     139.538  76.275 220.315 -0.07 -0.05    +0.208 A  
DOCKED: ATOM     27  H   UNL     1     140.086  77.230 222.081 +0.08 -0.05    +0.193 HD 
DOCKED: BRANCH  26  28
DOCKED: ATOM     28  N   UNL     1     139.329  77.112 219.413 -0.02 +0.05    -0.183 NA 
DOCKED: BRANCH  28  29
DOCKED: ATOM     29  C   UNL     1     139.817  78.444 219.616 -0.04 -0.08    +0.255 C  
DOCKED: ATOM     30  O   UNL     1     139.113  79.331 220.162 -0.03 +0.07    -0.272 OA 
DOCKED: BRANCH  29  31
DOCKED: ATOM     31  C   UNL     1     141.194  78.751 219.159 -0.17 -0.06    +0.123 C  
DOCKED: ATOM     32  C   UNL     1     142.182  77.759 219.741 -0.17 -0.16    +0.243 C  
DOCKED: ATOM     33  C   UNL     1     141.567  80.146 219.604 -0.27 -0.03    +0.056 C  
DOCKED: ATOM     34  O   UNL     1     141.983  77.770 221.153 -0.05 +0.35    -0.492 OA 
DOCKED: ATOM     35  C   UNL     1     141.799  80.136 221.063 -0.38 +0.00    -0.005 A  
DOCKED: ATOM     36  C   UNL     1     142.000  78.998 221.810 -0.35 -0.07    +0.122 A  
DOCKED: ATOM     37  C   UNL     1     141.821  81.356 221.739 -0.44 -0.00    +0.007 A  
DOCKED: ATOM     38  C   UNL     1     142.217  79.005 223.172 -0.54 -0.02    +0.047 A  
DOCKED: ATOM     39  C   UNL     1     142.036  81.415 223.114 -0.54 -0.00    +0.001 A  
DOCKED: ATOM     40  C   UNL     1     142.232  80.218 223.808 -0.65 -0.00    +0.004 A  
DOCKED: ENDBRANCH  29  31
DOCKED: ENDBRANCH  28  29
DOCKED: ENDBRANCH  26  28
DOCKED: ENDBRANCH  21  22
DOCKED: ENDBRANCH  20  21
DOCKED: ENDBRANCH  19  20
DOCKED: ENDBRANCH  18  19
DOCKED: ENDBRANCH   4  18
DOCKED: TORSDOF 14
DOCKED: TER
DOCKED: ENDMDL
________________________________________________________________________________


    FINAL DOCKED STATE:
    ________________________


Run:   3 / 20
Time taken for this run:   0.086s

DOCKED: MODEL        3
DOCKED: USER    Run = 3
DOCKED: USER
DOCKED: USER    Estimated Free Energy of Binding    =  -3.55 kcal/mol  [=(1)+(2)+(3)-(4)]
DOCKED: USER
DOCKED: USER    (1) Final Intermolecular Energy     =  -7.72 kcal/mol
DOCKED: USER        vdW + Hbond + desolv Energy     =  -7.64 kcal/mol
DOCKED: USER        Electrostatic Energy            =  -0.08 kcal/mol
DOCKED: USER        Moving Ligand-Fixed Receptor    =  -7.72 kcal/mol
DOCKED: USER        Moving Ligand-Moving Receptor   =  +0.00 kcal/mol
DOCKED: USER    (2) Final Total Internal Energy     =  -8.32 kcal/mol
DOCKED: USER    (3) Torsional Free Energy           =  +4.18 kcal/mol
DOCKED: USER    (4) Unbound System's Energy         =  -8.32 kcal/mol
DOCKED: USER
DOCKED: USER
DOCKED: REMARK SMILES C[C@@H](C(=O)/N=c1/[nH]nc(CCCCc2n[nH]/c(=N\C(=O)[C@@H]3COc4ccccc4C3)s2)s1)C(C)(C)CO
DOCKED: REMARK SMILES IDX 6 1 7 2 8 3 9 4 32 5 5 7 3 8 4 9 2 10 1 11 33 12 34 13 35 14
DOCKED: REMARK SMILES IDX 36 15 37 16 10 18 11 19 12 20 13 21 14 22 15 23 31 24 16 25
DOCKED: REMARK SMILES IDX 17 26 18 28 19 29 20 30 21 31 22 32 30 33 23 34 29 35 24 36
DOCKED: REMARK SMILES IDX 28 37 25 38 27 39 26 40
DOCKED: REMARK H PARENT 7 6 37 17 16 27
DOCKED: USER                              x       y       z     vdW  Elec       q    Type
DOCKED: USER                           _______ _______ _______ _____ _____    ______ ____
DOCKED: ROOT
DOCKED: ATOM      1  C   UNL     1     138.779  77.882 221.912 -0.15 -0.04    +0.208 A  
DOCKED: ATOM      2  N   UNL     1     139.377  77.151 220.999 -0.07 +0.06    -0.251 N  
DOCKED: ATOM      3  N   UNL     1     138.874  75.992 220.773 -0.08 +0.04    -0.167 NA 
DOCKED: ATOM      4  C   UNL     1     137.972  75.436 221.221 -0.12 -0.03    +0.116 A  
DOCKED: ATOM      5  S   UNL     1     137.406  76.808 222.467 -0.29 +0.02    -0.080 S  
DOCKED: ATOM      6  H   UNL     1     140.242  77.510 220.471 +0.07 -0.07    +0.193 HD 
DOCKED: ENDROOT
DOCKED: BRANCH   1   7
DOCKED: ATOM      7  N   UNL     1     138.993  79.057 222.390 -0.16 +0.03    -0.184 NA 
DOCKED: BRANCH   7   8
DOCKED: ATOM      8  C   UNL     1     140.012  79.892 221.860 -0.16 -0.06    +0.251 C  
DOCKED: ATOM      9  O   UNL     1     140.332  79.661 220.643 -0.08 +0.09    -0.272 OA 
DOCKED: BRANCH   8  10
DOCKED: ATOM     10  C   UNL     1     140.688  80.966 222.608 -0.37 -0.02    +0.086 C  
DOCKED: ATOM     11  C   UNL     1     141.136  82.126 221.741 -0.37 -0.00    +0.019 C  
DOCKED: BRANCH  10  12
DOCKED: ATOM     12  C   UNL     1     141.884  80.476 223.380 -0.63 +0.00    -0.001 C  
DOCKED: ATOM     13  C   UNL     1     142.939  80.109 222.350 -0.47 -0.01    +0.014 C  
DOCKED: ATOM     14  C   UNL     1     142.347  81.563 224.295 -0.46 -0.00    +0.014 C  
DOCKED: BRANCH  12  15
DOCKED: ATOM     15  C   UNL     1     141.499  79.230 224.138 -0.37 -0.04    +0.163 C  
DOCKED: BRANCH  15  16
DOCKED: ATOM     16  O   UNL     1     141.658  78.167 223.221 -0.29 +0.17    -0.396 OA 
DOCKED: ATOM     17  H   UNL     1     141.084  78.297 222.432 +0.11 -0.08    +0.210 HD 
DOCKED: ENDBRANCH  15  16
DOCKED: ENDBRANCH  12  15
DOCKED: ENDBRANCH  10  12
DOCKED: ENDBRANCH   8  10
DOCKED: ENDBRANCH   7   8
DOCKED: ENDBRANCH   1   7
DOCKED: BRANCH   4  18
DOCKED: ATOM     18  C   UNL     1     137.077  74.248 221.262 -0.10 -0.02    +0.070 C  
DOCKED: BRANCH  18  19
DOCKED: ATOM     19  C   UNL     1     137.296  73.219 222.284 -0.11 -0.00    +0.008 C  
DOCKED: BRANCH  19  20
DOCKED: ATOM     20  C   UNL     1     138.190  72.112 221.962 -0.16 -0.00    +0.008 C  
DOCKED: BRANCH  20  21
DOCKED: ATOM     21  C   UNL     1     139.622  72.128 222.328 -0.26 -0.01    +0.070 C  
DOCKED: BRANCH  21  22
DOCKED: ATOM     22  C   UNL     1     140.408  73.271 221.880 -0.26 -0.01    +0.116 A  
DOCKED: ATOM     23  N   UNL     1     140.696  74.355 222.317 -0.57 -0.02    -0.167 NA 
DOCKED: ATOM     24  S   UNL     1     141.342  73.326 220.263 -0.21 +0.01    -0.080 S  
DOCKED: ATOM     25  N   UNL     1     141.434  75.279 221.813 -0.17 +0.06    -0.251 N  
DOCKED: ATOM     26  C   UNL     1     141.985  75.054 220.636 -0.21 -0.08    +0.208 A  
DOCKED: ATOM     27  H   UNL     1     141.607  76.212 222.323 -0.36 -0.10    +0.193 HD 
DOCKED: BRANCH  26  28
DOCKED: ATOM     28  N   UNL     1     142.731  75.667 219.845 -0.23 +0.09    -0.183 NA 
DOCKED: BRANCH  28  29
DOCKED: ATOM     29  C   UNL     1     142.556  77.084 219.726 -0.21 -0.17    +0.255 C  
DOCKED: ATOM     30  O   UNL     1     142.285  77.803 220.721 -0.19 +0.21    -0.272 OA 
DOCKED: BRANCH  29  31
DOCKED: ATOM     31  C   UNL     1     142.706  77.686 218.380 -0.26 -0.09    +0.123 C  
DOCKED: ATOM     32  C   UNL     1     141.671  78.773 218.164 -0.16 -0.15    +0.243 C  
DOCKED: ATOM     33  C   UNL     1     142.526  76.613 217.332 -0.20 -0.03    +0.056 C  
DOCKED: ATOM     34  O   UNL     1     140.401  78.186 218.440 +0.01 +0.19    -0.492 OA 
DOCKED: ATOM     35  C   UNL     1     141.097  76.242 217.267 -0.06 +0.00    -0.005 A  
DOCKED: ATOM     36  C   UNL     1     140.074  76.995 217.796 -0.02 -0.04    +0.122 A  
DOCKED: ATOM     37  C   UNL     1     140.750  75.053 216.625 -0.02 -0.00    +0.007 A  
DOCKED: ATOM     38  C   UNL     1     138.745  76.636 217.727 -0.01 -0.01    +0.047 A  
DOCKED: ATOM     39  C   UNL     1     139.420  74.648 216.529 -0.00 -0.00    +0.001 A  
DOCKED: ATOM     40  C   UNL     1     138.434  75.463 217.091 -0.00 -0.00    +0.004 A  
DOCKED: ENDBRANCH  29  31
DOCKED: ENDBRANCH  28  29
DOCKED: ENDBRANCH  26  28
DOCKED: ENDBRANCH  21  22
DOCKED: ENDBRANCH  20  21
DOCKED: ENDBRANCH  19  20
DOCKED: ENDBRANCH  18  19
DOCKED: ENDBRANCH   4  18
DOCKED: TORSDOF 14
DOCKED: TER
DOCKED: ENDMDL
________________________________________________________________________________


    FINAL DOCKED STATE:
    ________________________


Run:   4 / 20
Time taken for this run:   0.086s

DOCKED: MODEL        4
DOCKED: USER    Run = 4
DOCKED: USER
DOCKED: USER    Estimated Free Energy of Binding    =  -4.75 kcal/mol  [=(1)+(2)+(3)-(4)]
DOCKED: USER
DOCKED: USER    (1) Final Intermolecular Energy     =  -8.92 kcal/mol
DOCKED: USER        vdW + Hbond + desolv Energy     =  -8.91 kcal/mol
DOCKED: USER        Electrostatic Energy            =  -0.01 kcal/mol
DOCKED: USER        Moving Ligand-Fixed Receptor    =  -8.92 kcal/mol
DOCKED: USER        Moving Ligand-Moving Receptor   =  +0.00 kcal/mol
DOCKED: USER    (2) Final Total Internal Energy     =  -6.62 kcal/mol
DOCKED: USER    (3) Torsional Free Energy           =  +4.18 kcal/mol
DOCKED: USER    (4) Unbound System's Energy         =  -6.62 kcal/mol
DOCKED: USER
DOCKED: USER
DOCKED: REMARK SMILES C[C@@H](C(=O)/N=c1/[nH]nc(CCCCc2n[nH]/c(=N\C(=O)[C@@H]3COc4ccccc4C3)s2)s1)C(C)(C)CO
DOCKED: REMARK SMILES IDX 6 1 7 2 8 3 9 4 32 5 5 7 3 8 4 9 2 10 1 11 33 12 34 13 35 14
DOCKED: REMARK SMILES IDX 36 15 37 16 10 18 11 19 12 20 13 21 14 22 15 23 31 24 16 25
DOCKED: REMARK SMILES IDX 17 26 18 28 19 29 20 30 21 31 22 32 30 33 23 34 29 35 24 36
DOCKED: REMARK SMILES IDX 28 37 25 38 27 39 26 40
DOCKED: REMARK H PARENT 7 6 37 17 16 27
DOCKED: USER                              x       y       z     vdW  Elec       q    Type
DOCKED: USER                           _______ _______ _______ _____ _____    ______ ____
DOCKED: ROOT
DOCKED: ATOM      1  C   UNL     1     143.141  76.468 218.477 -0.23 -0.13    +0.208 A  
DOCKED: ATOM      2  N   UNL     1     143.535  76.356 219.725 -0.28 +0.18    -0.251 N  
DOCKED: ATOM      3  N   UNL     1     143.717  75.163 220.163 -0.30 +0.09    -0.167 NA 
DOCKED: ATOM      4  C   UNL     1     143.601  74.129 219.673 -0.27 -0.04    +0.116 A  
DOCKED: ATOM      5  S   UNL     1     143.031  74.729 217.921 -0.18 +0.03    -0.080 S  
DOCKED: ATOM      6  H   UNL     1     143.697  77.221 220.342 -0.50 -0.22    +0.193 HD 
DOCKED: ENDROOT
DOCKED: BRANCH   1   7
DOCKED: ATOM      7  N   UNL     1     142.866  77.471 217.719 -0.23 +0.14    -0.184 NA 
DOCKED: BRANCH   7   8
DOCKED: ATOM      8  C   UNL     1     142.253  78.641 218.239 -0.21 -0.19    +0.251 C  
DOCKED: ATOM      9  O   UNL     1     142.492  78.882 219.473 -0.05 +0.22    -0.272 OA 
DOCKED: BRANCH   8  10
DOCKED: ATOM     10  C   UNL     1     141.394  79.551 217.463 -0.15 -0.05    +0.086 C  
DOCKED: ATOM     11  C   UNL     1     141.601  81.016 217.794 -0.22 -0.01    +0.019 C  
DOCKED: BRANCH  10  12
DOCKED: ATOM     12  C   UNL     1     139.928  79.245 217.618 -0.05 +0.00    -0.001 C  
DOCKED: ATOM     13  C   UNL     1     139.180  80.335 216.868 -0.02 -0.00    +0.014 C  
DOCKED: ATOM     14  C   UNL     1     139.656  77.888 217.055 -0.02 -0.00    +0.014 C  
DOCKED: BRANCH  12  15
DOCKED: ATOM     15  C   UNL     1     139.563  79.330 219.079 -0.04 -0.05    +0.163 C  
DOCKED: BRANCH  15  16
DOCKED: ATOM     16  O   UNL     1     139.900  78.073 219.627 -0.01 +0.13    -0.396 OA 
DOCKED: ATOM     17  H   UNL     1     140.593  78.168 220.319 +0.08 -0.08    +0.210 HD 
DOCKED: ENDBRANCH  15  16
DOCKED: ENDBRANCH  12  15
DOCKED: ENDBRANCH  10  12
DOCKED: ENDBRANCH   8  10
DOCKED: ENDBRANCH   7   8
DOCKED: ENDBRANCH   1   7
DOCKED: BRANCH   4  18
DOCKED: ATOM     18  C   UNL     1     143.713  72.647 219.740 -0.24 -0.01    +0.070 C  
DOCKED: BRANCH  18  19
DOCKED: ATOM     19  C   UNL     1     142.920  71.912 220.732 -0.26 -0.00    +0.008 C  
DOCKED: BRANCH  19  20
DOCKED: ATOM     20  C   UNL     1     141.524  71.628 220.419 -0.17 -0.00    +0.008 C  
DOCKED: BRANCH  20  21
DOCKED: ATOM     21  C   UNL     1     140.409  72.305 221.114 -0.19 -0.01    +0.070 C  
DOCKED: BRANCH  21  22
DOCKED: ATOM     22  C   UNL     1     140.573  73.724 221.402 -0.24 -0.01    +0.116 A  
DOCKED: ATOM     23  N   UNL     1     141.471  74.526 221.353 -0.30 +0.03    -0.167 NA 
DOCKED: ATOM     24  S   UNL     1     139.191  74.838 221.983 -0.31 +0.02    -0.080 S  
DOCKED: ATOM     25  N   UNL     1     141.472  75.782 221.622 -0.18 +0.10    -0.251 N  
DOCKED: ATOM     26  C   UNL     1     140.339  76.328 222.020 -0.28 -0.05    +0.208 A  
DOCKED: ATOM     27  H   UNL     1     142.361  76.384 221.532 -0.47 -0.19    +0.193 HD 
DOCKED: BRANCH  26  28
DOCKED: ATOM     28  N   UNL     1     139.941  77.461 222.361 -0.25 +0.04    -0.183 NA 
DOCKED: BRANCH  28  29
DOCKED: ATOM     29  C   UNL     1     140.931  78.465 222.617 -0.32 -0.08    +0.255 C  
DOCKED: ATOM     30  O   UNL     1     141.980  78.551 221.928 -0.28 +0.16    -0.272 OA 
DOCKED: BRANCH  29  31
DOCKED: ATOM     31  C   UNL     1     140.680  79.412 223.730 -0.43 -0.02    +0.123 C  
DOCKED: ATOM     32  C   UNL     1     139.201  79.725 223.839 -0.28 -0.03    +0.243 C  
DOCKED: ATOM     33  C   UNL     1     141.442  80.691 223.475 -0.53 -0.01    +0.056 C  
DOCKED: ATOM     34  O   UNL     1     138.781  80.163 222.549 -0.04 +0.08    -0.492 OA 
DOCKED: ATOM     35  C   UNL     1     140.781  81.432 222.381 -0.39 +0.00    -0.005 A  
DOCKED: ATOM     36  C   UNL     1     139.504  81.182 221.934 -0.19 -0.02    +0.122 A  
DOCKED: ATOM     37  C   UNL     1     141.489  82.458 221.753 -0.34 -0.00    +0.007 A  
DOCKED: ATOM     38  C   UNL     1     138.900  81.884 220.912 -0.12 -0.01    +0.047 A  
DOCKED: ATOM     39  C   UNL     1     140.922  83.195 220.716 -0.26 -0.00    +0.001 A  
DOCKED: ATOM     40  C   UNL     1     139.620  82.885 220.314 -0.16 -0.00    +0.004 A  
DOCKED: ENDBRANCH  29  31
DOCKED: ENDBRANCH  28  29
DOCKED: ENDBRANCH  26  28
DOCKED: ENDBRANCH  21  22
DOCKED: ENDBRANCH  20  21
DOCKED: ENDBRANCH  19  20
DOCKED: ENDBRANCH  18  19
DOCKED: ENDBRANCH   4  18
DOCKED: TORSDOF 14
DOCKED: TER
DOCKED: ENDMDL
________________________________________________________________________________


    FINAL DOCKED STATE:
    ________________________


Run:   5 / 20
Time taken for this run:   0.086s

DOCKED: MODEL        5
DOCKED: USER    Run = 5
DOCKED: USER
DOCKED: USER    Estimated Free Energy of Binding    =  -6.13 kcal/mol  [=(1)+(2)+(3)-(4)]
DOCKED: USER
DOCKED: USER    (1) Final Intermolecular Energy     = -10.31 kcal/mol
DOCKED: USER        vdW + Hbond + desolv Energy     = -10.47 kcal/mol
DOCKED: USER        Electrostatic Energy            =  +0.16 kcal/mol
DOCKED: USER        Moving Ligand-Fixed Receptor    = -10.31 kcal/mol
DOCKED: USER        Moving Ligand-Moving Receptor   =  +0.00 kcal/mol
DOCKED: USER    (2) Final Total Internal Energy     =  -5.89 kcal/mol
DOCKED: USER    (3) Torsional Free Energy           =  +4.18 kcal/mol
DOCKED: USER    (4) Unbound System's Energy         =  -5.89 kcal/mol
DOCKED: USER
DOCKED: USER
DOCKED: REMARK SMILES C[C@@H](C(=O)/N=c1/[nH]nc(CCCCc2n[nH]/c(=N\C(=O)[C@@H]3COc4ccccc4C3)s2)s1)C(C)(C)CO
DOCKED: REMARK SMILES IDX 6 1 7 2 8 3 9 4 32 5 5 7 3 8 4 9 2 10 1 11 33 12 34 13 35 14
DOCKED: REMARK SMILES IDX 36 15 37 16 10 18 11 19 12 20 13 21 14 22 15 23 31 24 16 25
DOCKED: REMARK SMILES IDX 17 26 18 28 19 29 20 30 21 31 22 32 30 33 23 34 29 35 24 36
DOCKED: REMARK SMILES IDX 28 37 25 38 27 39 26 40
DOCKED: REMARK H PARENT 7 6 37 17 16 27
DOCKED: USER                              x       y       z     vdW  Elec       q    Type
DOCKED: USER                           _______ _______ _______ _____ _____    ______ ____
DOCKED: ROOT
DOCKED: ATOM      1  C   UNL     1     139.939  76.542 222.210 -0.28 -0.05    +0.208 A  
DOCKED: ATOM      2  N   UNL     1     141.028  75.811 222.166 -0.21 +0.06    -0.251 N  
DOCKED: ATOM      3  N   UNL     1     140.866  74.552 221.977 -0.66 +0.01    -0.167 NA 
DOCKED: ATOM      4  C   UNL     1     139.927  73.903 221.834 -0.24 -0.01    +0.116 A  
DOCKED: ATOM      5  S   UNL     1     138.606  75.315 221.961 -0.30 +0.02    -0.080 S  
DOCKED: ATOM      6  H   UNL     1     142.003  76.248 222.282 -0.50 -0.15    +0.193 HD 
DOCKED: ENDROOT
DOCKED: BRANCH   1   7
DOCKED: ATOM      7  N   UNL     1     139.718  77.799 222.376 -0.22 +0.04    -0.184 NA 
DOCKED: BRANCH   7   8
DOCKED: ATOM      8  C   UNL     1     140.609  78.609 223.129 -0.30 -0.06    +0.251 C  
DOCKED: ATOM      9  O   UNL     1     141.654  78.014 223.565 -0.40 +0.10    -0.272 OA 
DOCKED: BRANCH   8  10
DOCKED: ATOM     10  C   UNL     1     140.398  80.037 223.420 -0.42 -0.02    +0.086 C  
DOCKED: ATOM     11  C   UNL     1     139.092  80.584 222.879 -0.32 -0.00    +0.019 C  
DOCKED: BRANCH  10  12
DOCKED: ATOM     12  C   UNL     1     141.513  80.909 222.908 -0.54 +0.00    -0.001 C  
DOCKED: ATOM     13  C   UNL     1     140.853  82.125 222.279 -0.29 -0.00    +0.014 C  
DOCKED: ATOM     14  C   UNL     1     142.400  81.281 224.052 -0.59 -0.00    +0.014 C  
DOCKED: BRANCH  12  15
DOCKED: ATOM     15  C   UNL     1     142.264  80.161 221.834 -0.36 -0.07    +0.163 C  
DOCKED: BRANCH  15  16
DOCKED: ATOM     16  O   UNL     1     143.329  79.514 222.499 -0.20 +0.23    -0.396 OA 
DOCKED: ATOM     17  H   UNL     1     143.328  78.550 222.304 -0.42 -0.22    +0.210 HD 
DOCKED: ENDBRANCH  15  16
DOCKED: ENDBRANCH  12  15
DOCKED: ENDBRANCH  10  12
DOCKED: ENDBRANCH   8  10
DOCKED: ENDBRANCH   7   8
DOCKED: ENDBRANCH   1   7
DOCKED: BRANCH   4  18
DOCKED: ATOM     18  C   UNL     1     139.298  72.579 221.576 -0.18 -0.01    +0.070 C  
DOCKED: BRANCH  18  19
DOCKED: ATOM     19  C   UNL     1     140.137  71.375 221.568 -0.20 -0.00    +0.008 C  
DOCKED: BRANCH  19  20
DOCKED: ATOM     20  C   UNL     1     140.907  71.085 220.364 -0.13 -0.00    +0.008 C  
DOCKED: BRANCH  20  21
DOCKED: ATOM     21  C   UNL     1     142.385  71.108 220.351 -0.12 -0.01    +0.070 C  
DOCKED: BRANCH  21  22
DOCKED: ATOM     22  C   UNL     1     143.026  72.417 220.360 -0.22 -0.02    +0.116 A  
DOCKED: ATOM     23  N   UNL     1     144.047  72.884 220.797 -0.27 +0.03    -0.167 NA 
DOCKED: ATOM     24  S   UNL     1     142.320  73.931 219.525 -0.22 +0.02    -0.080 S  
DOCKED: ATOM     25  N   UNL     1     144.510  74.079 220.711 -0.30 +0.08    -0.251 N  
DOCKED: ATOM     26  C   UNL     1     143.796  74.972 220.052 -0.30 -0.10    +0.208 A  
DOCKED: ATOM     27  H   UNL     1     145.450  74.360 221.157 +0.10 -0.06    +0.193 HD 
DOCKED: BRANCH  26  28
DOCKED: ATOM     28  N   UNL     1     143.893  76.180 219.755 -0.29 +0.13    -0.183 NA 
DOCKED: BRANCH  28  29
DOCKED: ATOM     29  C   UNL     1     142.684  76.947 219.685 -0.20 -0.18    +0.255 C  
DOCKED: ATOM     30  O   UNL     1     142.271  77.622 220.662 -0.19 +0.21    -0.272 OA 
DOCKED: BRANCH  29  31
DOCKED: ATOM     31  C   UNL     1     141.926  76.922 218.411 -0.18 -0.06    +0.123 C  
DOCKED: ATOM     32  C   UNL     1     142.724  77.579 217.303 -0.19 -0.19    +0.243 C  
DOCKED: ATOM     33  C   UNL     1     140.623  77.665 218.594 -0.09 -0.02    +0.056 C  
DOCKED: ATOM     34  O   UNL     1     143.092  78.872 217.778 -0.13 +0.57    -0.492 OA 
DOCKED: ATOM     35  C   UNL     1     140.905  79.113 218.672 -0.15 +0.00    -0.005 A  
DOCKED: ATOM     36  C   UNL     1     142.088  79.696 218.280 -0.26 -0.09    +0.122 A  
DOCKED: ATOM     37  C   UNL     1     139.912  79.956 219.173 -0.09 -0.00    +0.007 A  
DOCKED: ATOM     38  C   UNL     1     142.337  81.051 218.359 -0.29 -0.03    +0.047 A  
DOCKED: ATOM     39  C   UNL     1     140.116  81.330 219.271 -0.12 -0.00    +0.001 A  
DOCKED: ATOM     40  C   UNL     1     141.343  81.853 218.855 -0.23 -0.00    +0.004 A  
DOCKED: ENDBRANCH  29  31
DOCKED: ENDBRANCH  28  29
DOCKED: ENDBRANCH  26  28
DOCKED: ENDBRANCH  21  22
DOCKED: ENDBRANCH  20  21
DOCKED: ENDBRANCH  19  20
DOCKED: ENDBRANCH  18  19
DOCKED: ENDBRANCH   4  18
DOCKED: TORSDOF 14
DOCKED: TER
DOCKED: ENDMDL
________________________________________________________________________________


    FINAL DOCKED STATE:
    ________________________


Run:   6 / 20
Time taken for this run:   0.086s

DOCKED: MODEL        6
DOCKED: USER    Run = 6
DOCKED: USER
DOCKED: USER    Estimated Free Energy of Binding    =  -3.75 kcal/mol  [=(1)+(2)+(3)-(4)]
DOCKED: USER
DOCKED: USER    (1) Final Intermolecular Energy     =  -7.93 kcal/mol
DOCKED: USER        vdW + Hbond + desolv Energy     =  -7.95 kcal/mol
DOCKED: USER        Electrostatic Energy            =  +0.03 kcal/mol
DOCKED: USER        Moving Ligand-Fixed Receptor    =  -7.93 kcal/mol
DOCKED: USER        Moving Ligand-Moving Receptor   =  +0.00 kcal/mol
DOCKED: USER    (2) Final Total Internal Energy     =  -7.63 kcal/mol
DOCKED: USER    (3) Torsional Free Energy           =  +4.18 kcal/mol
DOCKED: USER    (4) Unbound System's Energy         =  -7.63 kcal/mol
DOCKED: USER
DOCKED: USER
DOCKED: REMARK SMILES C[C@@H](C(=O)/N=c1/[nH]nc(CCCCc2n[nH]/c(=N\C(=O)[C@@H]3COc4ccccc4C3)s2)s1)C(C)(C)CO
DOCKED: REMARK SMILES IDX 6 1 7 2 8 3 9 4 32 5 5 7 3 8 4 9 2 10 1 11 33 12 34 13 35 14
DOCKED: REMARK SMILES IDX 36 15 37 16 10 18 11 19 12 20 13 21 14 22 15 23 31 24 16 25
DOCKED: REMARK SMILES IDX 17 26 18 28 19 29 20 30 21 31 22 32 30 33 23 34 29 35 24 36
DOCKED: REMARK SMILES IDX 28 37 25 38 27 39 26 40
DOCKED: REMARK H PARENT 7 6 37 17 16 27
DOCKED: USER                              x       y       z     vdW  Elec       q    Type
DOCKED: USER                           _______ _______ _______ _____ _____    ______ ____
DOCKED: ROOT
DOCKED: ATOM      1  C   UNL     1     140.179  77.469 222.690 -0.24 -0.05    +0.208 A  
DOCKED: ATOM      2  N   UNL     1     141.424  77.564 222.286 -0.19 +0.13    -0.251 N  
DOCKED: ATOM      3  N   UNL     1     142.000  78.698 222.464 -0.33 +0.09    -0.167 NA 
DOCKED: ATOM      4  C   UNL     1     141.638  79.689 222.923 -0.47 -0.04    +0.116 A  
DOCKED: ATOM      5  S   UNL     1     139.836  79.133 223.368 -0.46 +0.01    -0.080 S  
DOCKED: ATOM      6  H   UNL     1     141.932  76.733 221.830 -0.48 -0.15    +0.193 HD 
DOCKED: ENDROOT
DOCKED: BRANCH   1   7
DOCKED: ATOM      7  N   UNL     1     139.310  76.520 222.677 -0.24 +0.03    -0.184 NA 
DOCKED: BRANCH   7   8
DOCKED: ATOM      8  C   UNL     1     139.581  75.284 222.033 -0.20 -0.04    +0.251 C  
DOCKED: ATOM      9  O   UNL     1     140.820  75.017 221.860 -0.58 +0.04    -0.272 OA 
DOCKED: BRANCH   8  10
DOCKED: ATOM     10  C   UNL     1     138.552  74.335 221.576 -0.19 -0.02    +0.086 C  
DOCKED: ATOM     11  C   UNL     1     139.056  72.914 221.424 -0.18 -0.00    +0.019 C  
DOCKED: BRANCH  10  12
DOCKED: ATOM     12  C   UNL     1     137.918  74.743 220.273 -0.07 +0.00    -0.001 C  
DOCKED: ATOM     13  C   UNL     1     138.330  73.697 219.250 -0.03 -0.00    +0.014 C  
DOCKED: ATOM     14  C   UNL     1     136.436  74.800 220.453 -0.04 -0.00    +0.014 C  
DOCKED: BRANCH  12  15
DOCKED: ATOM     15  C   UNL     1     138.485  76.076 219.851 -0.04 -0.04    +0.163 C  
DOCKED: BRANCH  15  16
DOCKED: ATOM     16  O   UNL     1     139.680  75.776 219.160 +0.00 +0.10    -0.396 OA 
DOCKED: ATOM     17  H   UNL     1     140.335  75.354 219.762 +0.06 -0.06    +0.210 HD 
DOCKED: ENDBRANCH  15  16
DOCKED: ENDBRANCH  12  15
DOCKED: ENDBRANCH  10  12
DOCKED: ENDBRANCH   8  10
DOCKED: ENDBRANCH   7   8
DOCKED: ENDBRANCH   1   7
DOCKED: BRANCH   4  18
DOCKED: ATOM     18  C   UNL     1     141.903  81.093 223.338 -0.56 -0.01    +0.070 C  
DOCKED: BRANCH  18  19
DOCKED: ATOM     19  C   UNL     1     141.618  82.185 222.400 -0.24 -0.00    +0.008 C  
DOCKED: BRANCH  19  20
DOCKED: ATOM     20  C   UNL     1     140.271  82.283 221.850 -0.28 -0.00    +0.008 C  
DOCKED: BRANCH  20  21
DOCKED: ATOM     21  C   UNL     1     139.955  81.871 220.467 -0.17 -0.02    +0.070 C  
DOCKED: BRANCH  21  22
DOCKED: ATOM     22  C   UNL     1     140.463  80.578 220.028 -0.14 -0.04    +0.116 A  
DOCKED: ATOM     23  N   UNL     1     140.198  79.421 220.235 -0.08 +0.06    -0.167 NA 
DOCKED: ATOM     24  S   UNL     1     141.861  80.365 218.808 -0.34 +0.05    -0.080 S  
DOCKED: ATOM     25  N   UNL     1     140.726  78.354 219.753 -0.07 +0.10    -0.251 N  
DOCKED: ATOM     26  C   UNL     1     141.717  78.491 218.893 -0.17 -0.12    +0.208 A  
DOCKED: ATOM     27  H   UNL     1     140.382  77.372 220.032 +0.07 -0.07    +0.193 HD 
DOCKED: BRANCH  26  28
DOCKED: ATOM     28  N   UNL     1     142.461  77.740 218.230 -0.21 +0.13    -0.183 NA 
DOCKED: BRANCH  28  29
DOCKED: ATOM     29  C   UNL     1     142.534  76.362 218.619 -0.18 -0.13    +0.255 C  
DOCKED: ATOM     30  O   UNL     1     142.353  76.001 219.810 -0.19 +0.14    -0.272 OA 
DOCKED: BRANCH  29  31
DOCKED: ATOM     31  C   UNL     1     142.832  75.364 217.565 -0.13 -0.05    +0.123 C  
DOCKED: ATOM     32  C   UNL     1     141.680  74.390 217.412 -0.01 -0.07    +0.243 C  
DOCKED: ATOM     33  C   UNL     1     144.081  74.601 217.941 -0.10 -0.02    +0.056 C  
DOCKED: ATOM     34  O   UNL     1     141.421  73.860 218.710 +0.02 +0.12    -0.492 OA 
DOCKED: ATOM     35  C   UNL     1     143.764  73.682 219.054 -0.23 +0.00    -0.005 A  
DOCKED: ATOM     36  C   UNL     1     142.489  73.323 219.425 -0.12 -0.03    +0.122 A  
DOCKED: ATOM     37  C   UNL     1     144.821  73.134 219.782 -0.41 -0.00    +0.007 A  
DOCKED: ATOM     38  C   UNL     1     142.208  72.463 220.466 -0.20 -0.01    +0.047 A  
DOCKED: ATOM     39  C   UNL     1     144.588  72.260 220.842 -0.36 -0.00    +0.001 A  
DOCKED: ATOM     40  C   UNL     1     143.266  71.941 221.164 -0.17 -0.00    +0.004 A  
DOCKED: ENDBRANCH  29  31
DOCKED: ENDBRANCH  28  29
DOCKED: ENDBRANCH  26  28
DOCKED: ENDBRANCH  21  22
DOCKED: ENDBRANCH  20  21
DOCKED: ENDBRANCH  19  20
DOCKED: ENDBRANCH  18  19
DOCKED: ENDBRANCH   4  18
DOCKED: TORSDOF 14
DOCKED: TER
DOCKED: ENDMDL
________________________________________________________________________________


    FINAL DOCKED STATE:
    ________________________


Run:   7 / 20
Time taken for this run:   0.086s

DOCKED: MODEL        7
DOCKED: USER    Run = 7
DOCKED: USER
DOCKED: USER    Estimated Free Energy of Binding    =  -4.89 kcal/mol  [=(1)+(2)+(3)-(4)]
DOCKED: USER
DOCKED: USER    (1) Final Intermolecular Energy     =  -9.07 kcal/mol
DOCKED: USER        vdW + Hbond + desolv Energy     =  -8.85 kcal/mol
DOCKED: USER        Electrostatic Energy            =  -0.22 kcal/mol
DOCKED: USER        Moving Ligand-Fixed Receptor    =  -9.07 kcal/mol
DOCKED: USER        Moving Ligand-Moving Receptor   =  +0.00 kcal/mol
DOCKED: USER    (2) Final Total Internal Energy     =  -5.86 kcal/mol
DOCKED: USER    (3) Torsional Free Energy           =  +4.18 kcal/mol
DOCKED: USER    (4) Unbound System's Energy         =  -5.86 kcal/mol
DOCKED: USER
DOCKED: USER
DOCKED: REMARK SMILES C[C@@H](C(=O)/N=c1/[nH]nc(CCCCc2n[nH]/c(=N\C(=O)[C@@H]3COc4ccccc4C3)s2)s1)C(C)(C)CO
DOCKED: REMARK SMILES IDX 6 1 7 2 8 3 9 4 32 5 5 7 3 8 4 9 2 10 1 11 33 12 34 13 35 14
DOCKED: REMARK SMILES IDX 36 15 37 16 10 18 11 19 12 20 13 21 14 22 15 23 31 24 16 25
DOCKED: REMARK SMILES IDX 17 26 18 28 19 29 20 30 21 31 22 32 30 33 23 34 29 35 24 36
DOCKED: REMARK SMILES IDX 28 37 25 38 27 39 26 40
DOCKED: REMARK H PARENT 7 6 37 17 16 27
DOCKED: USER                              x       y       z     vdW  Elec       q    Type
DOCKED: USER                           _______ _______ _______ _____ _____    ______ ____
DOCKED: ROOT
DOCKED: ATOM      1  C   UNL     1     140.106  75.613 221.967 -0.26 -0.04    +0.208 A  
DOCKED: ATOM      2  N   UNL     1     139.880  76.853 222.334 -0.24 +0.06    -0.251 N  
DOCKED: ATOM      3  N   UNL     1     138.659  77.165 222.581 -0.22 +0.03    -0.167 NA 
DOCKED: ATOM      4  C   UNL     1     137.681  76.560 222.546 -0.24 -0.02    +0.116 A  
DOCKED: ATOM      5  S   UNL     1     138.437  74.866 221.985 -0.25 +0.02    -0.080 S  
DOCKED: ATOM      6  H   UNL     1     140.679  77.567 222.423 +0.08 -0.06    +0.193 HD 
DOCKED: ENDROOT
DOCKED: BRANCH   1   7
DOCKED: ATOM      7  N   UNL     1     141.168  74.960 221.649 -0.42 +0.03    -0.184 NA 
DOCKED: BRANCH   7   8
DOCKED: ATOM      8  C   UNL     1     141.754  75.090 220.362 -0.18 -0.09    +0.251 C  
DOCKED: ATOM      9  O   UNL     1     140.928  75.127 219.386 -0.05 +0.08    -0.272 OA 
DOCKED: BRANCH   8  10
DOCKED: ATOM     10  C   UNL     1     143.201  75.181 220.107 -0.31 -0.04    +0.086 C  
DOCKED: ATOM     11  C   UNL     1     143.575  76.229 219.076 -0.29 -0.01    +0.019 C  
DOCKED: BRANCH  10  12
DOCKED: ATOM     12  C   UNL     1     143.802  73.871 219.673 -0.34 +0.00    -0.001 C  
DOCKED: ATOM     13  C   UNL     1     142.985  72.780 220.345 -0.27 -0.00    +0.014 C  
DOCKED: ATOM     14  C   UNL     1     143.741  73.782 218.182 -0.16 -0.00    +0.014 C  
DOCKED: BRANCH  12  15
DOCKED: ATOM     15  C   UNL     1     145.220  73.792 220.183 -0.42 -0.03    +0.163 C  
DOCKED: BRANCH  15  16
DOCKED: ATOM     16  O   UNL     1     145.989  73.331 219.092 -0.66 -0.17    -0.396 OA 
DOCKED: ATOM     17  H   UNL     1     146.328  74.086 218.560 -0.47 -0.01    +0.210 HD 
DOCKED: ENDBRANCH  15  16
DOCKED: ENDBRANCH  12  15
DOCKED: ENDBRANCH  10  12
DOCKED: ENDBRANCH   8  10
DOCKED: ENDBRANCH   7   8
DOCKED: ENDBRANCH   1   7
DOCKED: BRANCH   4  18
DOCKED: ATOM     18  C   UNL     1     136.211  76.469 222.751 -0.20 -0.01    +0.070 C  
DOCKED: BRANCH  18  19
DOCKED: ATOM     19  C   UNL     1     135.378  75.847 221.715 -0.08 -0.00    +0.008 C  
DOCKED: BRANCH  19  20
DOCKED: ATOM     20  C   UNL     1     135.815  75.956 220.327 -0.03 -0.00    +0.008 C  
DOCKED: BRANCH  20  21
DOCKED: ATOM     21  C   UNL     1     136.130  77.257 219.702 -0.01 -0.01    +0.070 C  
DOCKED: BRANCH  21  22
DOCKED: ATOM     22  C   UNL     1     137.537  77.624 219.608 -0.02 -0.02    +0.116 A  
DOCKED: ATOM     23  N   UNL     1     138.531  77.148 219.121 -0.01 +0.04    -0.167 NA 
DOCKED: ATOM     24  S   UNL     1     138.254  79.202 220.305 -0.07 +0.02    -0.080 S  
DOCKED: ATOM     25  N   UNL     1     139.734  77.599 219.093 -0.01 +0.08    -0.251 N  
DOCKED: ATOM     26  C   UNL     1     139.970  78.761 219.672 -0.05 -0.07    +0.208 A  
DOCKED: ATOM     27  H   UNL     1     140.534  77.059 218.616 +0.04 -0.07    +0.193 HD 
DOCKED: BRANCH  26  28
DOCKED: ATOM     28  N   UNL     1     140.954  79.507 219.854 -0.12 +0.08    -0.183 NA 
DOCKED: BRANCH  28  29
DOCKED: ATOM     29  C   UNL     1     141.850  79.179 220.924 -0.17 -0.14    +0.255 C  
DOCKED: ATOM     30  O   UNL     1     142.197  77.993 221.155 -0.19 +0.21    -0.272 OA 
DOCKED: BRANCH  29  31
DOCKED: ATOM     31  C   UNL     1     142.362  80.292 221.759 -0.33 -0.05    +0.123 C  
DOCKED: ATOM     32  C   UNL     1     142.528  79.845 223.198 -0.45 -0.08    +0.243 C  
DOCKED: ATOM     33  C   UNL     1     141.388  81.445 221.704 -0.39 -0.01    +0.056 C  
DOCKED: ATOM     34  O   UNL     1     141.275  79.298 223.601 -0.19 +0.12    -0.492 OA 
DOCKED: ATOM     35  C   UNL     1     140.187  81.094 222.491 -0.34 +0.00    -0.005 A  
DOCKED: ATOM     36  C   UNL     1     140.129  80.065 223.402 -0.37 -0.02    +0.122 A  
DOCKED: ATOM     37  C   UNL     1     139.030  81.851 222.306 -0.21 -0.00    +0.007 A  
DOCKED: ATOM     38  C   UNL     1     139.001  79.750 224.130 -0.34 -0.01    +0.047 A  
DOCKED: ATOM     39  C   UNL     1     137.865  81.571 223.018 -0.23 -0.00    +0.001 A  
DOCKED: ATOM     40  C   UNL     1     137.879  80.511 223.928 -0.36 -0.00    +0.004 A  
DOCKED: ENDBRANCH  29  31
DOCKED: ENDBRANCH  28  29
DOCKED: ENDBRANCH  26  28
DOCKED: ENDBRANCH  21  22
DOCKED: ENDBRANCH  20  21
DOCKED: ENDBRANCH  19  20
DOCKED: ENDBRANCH  18  19
DOCKED: ENDBRANCH   4  18
DOCKED: TORSDOF 14
DOCKED: TER
DOCKED: ENDMDL
________________________________________________________________________________


    FINAL DOCKED STATE:
    ________________________


Run:   8 / 20
Time taken for this run:   0.086s

DOCKED: MODEL        8
DOCKED: USER    Run = 8
DOCKED: USER
DOCKED: USER    Estimated Free Energy of Binding    =  -3.47 kcal/mol  [=(1)+(2)+(3)-(4)]
DOCKED: USER
DOCKED: USER    (1) Final Intermolecular Energy     =  -7.64 kcal/mol
DOCKED: USER        vdW + Hbond + desolv Energy     =  -7.76 kcal/mol
DOCKED: USER        Electrostatic Energy            =  +0.12 kcal/mol
DOCKED: USER        Moving Ligand-Fixed Receptor    =  -7.64 kcal/mol
DOCKED: USER        Moving Ligand-Moving Receptor   =  +0.00 kcal/mol
DOCKED: USER    (2) Final Total Internal Energy     =  -8.37 kcal/mol
DOCKED: USER    (3) Torsional Free Energy           =  +4.18 kcal/mol
DOCKED: USER    (4) Unbound System's Energy         =  -8.37 kcal/mol
DOCKED: USER
DOCKED: USER
DOCKED: REMARK SMILES C[C@@H](C(=O)/N=c1/[nH]nc(CCCCc2n[nH]/c(=N\C(=O)[C@@H]3COc4ccccc4C3)s2)s1)C(C)(C)CO
DOCKED: REMARK SMILES IDX 6 1 7 2 8 3 9 4 32 5 5 7 3 8 4 9 2 10 1 11 33 12 34 13 35 14
DOCKED: REMARK SMILES IDX 36 15 37 16 10 18 11 19 12 20 13 21 14 22 15 23 31 24 16 25
DOCKED: REMARK SMILES IDX 17 26 18 28 19 29 20 30 21 31 22 32 30 33 23 34 29 35 24 36
DOCKED: REMARK SMILES IDX 28 37 25 38 27 39 26 40
DOCKED: REMARK H PARENT 7 6 37 17 16 27
DOCKED: USER                              x       y       z     vdW  Elec       q    Type
DOCKED: USER                           _______ _______ _______ _____ _____    ______ ____
DOCKED: ROOT
DOCKED: ATOM      1  C   UNL     1     141.378  77.898 218.503 -0.12 -0.11    +0.208 A  
DOCKED: ATOM      2  N   UNL     1     140.190  78.039 219.042 -0.03 +0.09    -0.251 N  
DOCKED: ATOM      3  N   UNL     1     139.865  79.226 219.410 -0.04 +0.05    -0.167 NA 
DOCKED: ATOM      4  C   UNL     1     140.421  80.232 219.366 -0.11 -0.04    +0.116 A  
DOCKED: ATOM      5  S   UNL     1     142.054  79.597 218.540 -0.35 +0.06    -0.080 S  
DOCKED: ATOM      6  H   UNL     1     139.526  77.203 219.166 +0.04 -0.06    +0.193 HD 
DOCKED: ENDROOT
DOCKED: BRANCH   1   7
DOCKED: ATOM      7  N   UNL     1     142.025  76.891 218.029 -0.12 +0.10    -0.184 NA 
DOCKED: BRANCH   7   8
DOCKED: ATOM      8  C   UNL     1     143.042  76.250 218.785 -0.22 -0.14    +0.251 C  
DOCKED: ATOM      9  O   UNL     1     143.380  76.845 219.865 -0.27 +0.23    -0.272 OA 
DOCKED: BRANCH   8  10
DOCKED: ATOM     10  C   UNL     1     143.699  74.988 218.402 -0.19 -0.04    +0.086 C  
DOCKED: ATOM     11  C   UNL     1     143.139  74.368 217.137 -0.10 -0.01    +0.019 C  
DOCKED: BRANCH  10  12
DOCKED: ATOM     12  C   UNL     1     143.647  73.948 219.489 -0.31 +0.00    -0.001 C  
DOCKED: ATOM     13  C   UNL     1     143.800  72.602 218.802 -0.17 -0.00    +0.014 C  
DOCKED: ATOM     14  C   UNL     1     144.751  74.211 220.462 -0.51 -0.00    +0.014 C  
DOCKED: BRANCH  12  15
DOCKED: ATOM     15  C   UNL     1     142.291  74.000 220.148 -0.19 -0.04    +0.163 C  
DOCKED: BRANCH  15  16
DOCKED: ATOM     16  O   UNL     1     142.438  74.879 221.244 -0.09 +0.15    -0.396 OA 
DOCKED: ATOM     17  H   UNL     1     141.946  75.717 221.088 -0.14 -0.10    +0.210 HD 
DOCKED: ENDBRANCH  15  16
DOCKED: ENDBRANCH  12  15
DOCKED: ENDBRANCH  10  12
DOCKED: ENDBRANCH   8  10
DOCKED: ENDBRANCH   7   8
DOCKED: ENDBRANCH   1   7
DOCKED: BRANCH   4  18
DOCKED: ATOM     18  C   UNL     1     140.453  81.701 219.598 -0.16 -0.02    +0.070 C  
DOCKED: BRANCH  18  19
DOCKED: ATOM     19  C   UNL     1     141.453  82.262 220.514 -0.28 -0.00    +0.008 C  
DOCKED: BRANCH  19  20
DOCKED: ATOM     20  C   UNL     1     141.163  82.238 221.944 -0.37 -0.00    +0.008 C  
DOCKED: BRANCH  20  21
DOCKED: ATOM     21  C   UNL     1     141.783  81.254 222.855 -0.51 -0.01    +0.070 C  
DOCKED: BRANCH  21  22
DOCKED: ATOM     22  C   UNL     1     141.562  79.845 222.558 -0.43 -0.04    +0.116 A  
DOCKED: ATOM     23  N   UNL     1     142.119  78.992 221.914 -0.33 +0.10    -0.167 NA 
DOCKED: ATOM     24  S   UNL     1     140.143  78.843 223.244 -0.44 +0.02    -0.080 S  
DOCKED: ATOM     25  N   UNL     1     141.819  77.753 221.751 +0.03 +0.17    -0.251 N  
DOCKED: ATOM     26  C   UNL     1     140.744  77.293 222.362 -0.32 -0.07    +0.208 A  
DOCKED: ATOM     27  H   UNL     1     142.417  77.098 221.139 -0.42 -0.18    +0.193 HD 
DOCKED: BRANCH  26  28
DOCKED: ATOM     28  N   UNL     1     140.142  76.204 222.455 -0.34 +0.03    -0.183 NA 
DOCKED: BRANCH  28  29
DOCKED: ATOM     29  C   UNL     1     139.453  75.723 221.294 -0.17 -0.06    +0.255 C  
DOCKED: ATOM     30  O   UNL     1     140.020  75.640 220.175 -0.06 +0.07    -0.272 OA 
DOCKED: BRANCH  29  31
DOCKED: ATOM     31  C   UNL     1     138.036  75.318 221.453 -0.16 -0.03    +0.123 C  
DOCKED: ATOM     32  C   UNL     1     137.266  75.560 220.169 -0.02 -0.05    +0.243 C  
DOCKED: ATOM     33  C   UNL     1     137.410  76.123 222.568 -0.25 -0.01    +0.056 C  
DOCKED: ATOM     34  O   UNL     1     137.483  76.924 219.816 +0.01 +0.10    -0.492 OA 
DOCKED: ATOM     35  C   UNL     1     137.209  77.511 222.101 -0.18 +0.00    -0.005 A  
DOCKED: ATOM     36  C   UNL     1     137.242  77.899 220.781 -0.05 -0.02    +0.122 A  
DOCKED: ATOM     37  C   UNL     1     136.965  78.501 223.053 -0.16 -0.00    +0.007 A  
DOCKED: ATOM     38  C   UNL     1     137.051  79.198 220.361 -0.03 -0.01    +0.047 A  
DOCKED: ATOM     39  C   UNL     1     136.766  79.828 222.677 -0.16 -0.00    +0.001 A  
DOCKED: ATOM     40  C   UNL     1     136.814  80.149 221.318 -0.07 -0.00    +0.004 A  
DOCKED: ENDBRANCH  29  31
DOCKED: ENDBRANCH  28  29
DOCKED: ENDBRANCH  26  28
DOCKED: ENDBRANCH  21  22
DOCKED: ENDBRANCH  20  21
DOCKED: ENDBRANCH  19  20
DOCKED: ENDBRANCH  18  19
DOCKED: ENDBRANCH   4  18
DOCKED: TORSDOF 14
DOCKED: TER
DOCKED: ENDMDL
________________________________________________________________________________


    FINAL DOCKED STATE:
    ________________________


Run:   9 / 20
Time taken for this run:   0.086s

DOCKED: MODEL        9
DOCKED: USER    Run = 9
DOCKED: USER
DOCKED: USER    Estimated Free Energy of Binding    =  -3.48 kcal/mol  [=(1)+(2)+(3)-(4)]
DOCKED: USER
DOCKED: USER    (1) Final Intermolecular Energy     =  -7.65 kcal/mol
DOCKED: USER        vdW + Hbond + desolv Energy     =  -7.80 kcal/mol
DOCKED: USER        Electrostatic Energy            =  +0.15 kcal/mol
DOCKED: USER        Moving Ligand-Fixed Receptor    =  -7.65 kcal/mol
DOCKED: USER        Moving Ligand-Moving Receptor   =  +0.00 kcal/mol
DOCKED: USER    (2) Final Total Internal Energy     =  -8.48 kcal/mol
DOCKED: USER    (3) Torsional Free Energy           =  +4.18 kcal/mol
DOCKED: USER    (4) Unbound System's Energy         =  -8.48 kcal/mol
DOCKED: USER
DOCKED: USER
DOCKED: REMARK SMILES C[C@@H](C(=O)/N=c1/[nH]nc(CCCCc2n[nH]/c(=N\C(=O)[C@@H]3COc4ccccc4C3)s2)s1)C(C)(C)CO
DOCKED: REMARK SMILES IDX 6 1 7 2 8 3 9 4 32 5 5 7 3 8 4 9 2 10 1 11 33 12 34 13 35 14
DOCKED: REMARK SMILES IDX 36 15 37 16 10 18 11 19 12 20 13 21 14 22 15 23 31 24 16 25
DOCKED: REMARK SMILES IDX 17 26 18 28 19 29 20 30 21 31 22 32 30 33 23 34 29 35 24 36
DOCKED: REMARK SMILES IDX 28 37 25 38 27 39 26 40
DOCKED: REMARK H PARENT 7 6 37 17 16 27
DOCKED: USER                              x       y       z     vdW  Elec       q    Type
DOCKED: USER                           _______ _______ _______ _____ _____    ______ ____
DOCKED: ROOT
DOCKED: ATOM      1  C   UNL     1     141.567  77.903 218.451 -0.13 -0.11    +0.208 A  
DOCKED: ATOM      2  N   UNL     1     140.339  78.024 218.900 -0.03 +0.09    -0.251 N  
DOCKED: ATOM      3  N   UNL     1     139.998  79.185 219.330 -0.05 +0.06    -0.167 NA 
DOCKED: ATOM      4  C   UNL     1     140.567  80.182 219.410 -0.12 -0.04    +0.116 A  
DOCKED: ATOM      5  S   UNL     1     142.256  79.583 218.675 -0.34 +0.06    -0.080 S  
DOCKED: ATOM      6  H   UNL     1     139.658  77.193 218.904 +0.04 -0.06    +0.193 HD 
DOCKED: ENDROOT
DOCKED: BRANCH   1   7
DOCKED: ATOM      7  N   UNL     1     142.240  76.924 217.957 -0.14 +0.10    -0.184 NA 
DOCKED: BRANCH   7   8
DOCKED: ATOM      8  C   UNL     1     143.163  76.192 218.749 -0.22 -0.14    +0.251 C  
DOCKED: ATOM      9  O   UNL     1     143.522  76.760 219.837 -0.31 +0.23    -0.272 OA 
DOCKED: BRANCH   8  10
DOCKED: ATOM     10  C   UNL     1     143.703  74.868 218.396 -0.19 -0.04    +0.086 C  
DOCKED: ATOM     11  C   UNL     1     142.970  74.196 217.251 -0.09 -0.01    +0.019 C  
DOCKED: BRANCH  10  12
DOCKED: ATOM     12  C   UNL     1     143.719  73.913 219.559 -0.32 +0.00    -0.001 C  
DOCKED: ATOM     13  C   UNL     1     143.906  72.524 218.972 -0.19 -0.00    +0.014 C  
DOCKED: ATOM     14  C   UNL     1     144.835  74.290 220.478 -0.50 -0.00    +0.014 C  
DOCKED: BRANCH  12  15
DOCKED: ATOM     15  C   UNL     1     142.378  73.964 220.250 -0.20 -0.04    +0.163 C  
DOCKED: BRANCH  15  16
DOCKED: ATOM     16  O   UNL     1     142.512  74.943 221.260 -0.01 +0.17    -0.396 OA 
DOCKED: ATOM     17  H   UNL     1     141.994  75.750 221.035 -0.15 -0.11    +0.210 HD 
DOCKED: ENDBRANCH  15  16
DOCKED: ENDBRANCH  12  15
DOCKED: ENDBRANCH  10  12
DOCKED: ENDBRANCH   8  10
DOCKED: ENDBRANCH   7   8
DOCKED: ENDBRANCH   1   7
DOCKED: BRANCH   4  18
DOCKED: ATOM     18  C   UNL     1     140.596  81.628 219.757 -0.18 -0.02    +0.070 C  
DOCKED: BRANCH  18  19
DOCKED: ATOM     19  C   UNL     1     140.321  82.041 221.138 -0.27 -0.00    +0.008 C  
DOCKED: BRANCH  19  20
DOCKED: ATOM     20  C   UNL     1     141.456  82.271 222.024 -0.35 -0.00    +0.008 C  
DOCKED: BRANCH  20  21
DOCKED: ATOM     21  C   UNL     1     141.970  81.223 222.931 -0.51 -0.01    +0.070 C  
DOCKED: BRANCH  21  22
DOCKED: ATOM     22  C   UNL     1     141.690  79.839 222.570 -0.44 -0.04    +0.116 A  
DOCKED: ATOM     23  N   UNL     1     142.190  79.006 221.857 -0.32 +0.10    -0.167 NA 
DOCKED: ATOM     24  S   UNL     1     140.272  78.844 223.267 -0.45 +0.02    -0.080 S  
DOCKED: ATOM     25  N   UNL     1     141.844  77.788 221.643 +0.01 +0.17    -0.251 N  
DOCKED: ATOM     26  C   UNL     1     140.783  77.328 222.277 -0.31 -0.07    +0.208 A  
DOCKED: ATOM     27  H   UNL     1     142.392  77.150 220.969 -0.37 -0.17    +0.193 HD 
DOCKED: BRANCH  26  28
DOCKED: ATOM     28  N   UNL     1     140.151  76.254 222.340 -0.36 +0.04    -0.183 NA 
DOCKED: BRANCH  28  29
DOCKED: ATOM     29  C   UNL     1     139.558  75.758 221.133 -0.16 -0.06    +0.255 C  
DOCKED: ATOM     30  O   UNL     1     140.218  75.647 220.069 -0.06 +0.08    -0.272 OA 
DOCKED: BRANCH  29  31
DOCKED: ATOM     31  C   UNL     1     138.127  75.373 221.175 -0.13 -0.03    +0.123 C  
DOCKED: ATOM     32  C   UNL     1     137.427  75.784 219.895 -0.02 -0.05    +0.243 C  
DOCKED: ATOM     33  C   UNL     1     137.462  76.057 222.348 -0.24 -0.01    +0.056 C  
DOCKED: ATOM     34  O   UNL     1     137.687  77.174 219.717 +0.01 +0.10    -0.492 OA 
DOCKED: ATOM     35  C   UNL     1     137.311  77.494 222.040 -0.18 +0.00    -0.005 A  
DOCKED: ATOM     36  C   UNL     1     137.417  78.034 220.779 -0.05 -0.02    +0.122 A  
DOCKED: ATOM     37  C   UNL     1     137.040  78.372 223.091 -0.15 -0.00    +0.007 A  
DOCKED: ATOM     38  C   UNL     1     137.273  79.379 220.507 -0.04 -0.01    +0.047 A  
DOCKED: ATOM     39  C   UNL     1     136.886  79.738 222.867 -0.18 -0.00    +0.001 A  
DOCKED: ATOM     40  C   UNL     1     137.007  80.216 221.559 -0.08 -0.00    +0.004 A  
DOCKED: ENDBRANCH  29  31
DOCKED: ENDBRANCH  28  29
DOCKED: ENDBRANCH  26  28
DOCKED: ENDBRANCH  21  22
DOCKED: ENDBRANCH  20  21
DOCKED: ENDBRANCH  19  20
DOCKED: ENDBRANCH  18  19
DOCKED: ENDBRANCH   4  18
DOCKED: TORSDOF 14
DOCKED: TER
DOCKED: ENDMDL
________________________________________________________________________________


    FINAL DOCKED STATE:
    ________________________


Run:   10 / 20
Time taken for this run:   0.086s

DOCKED: MODEL        10
DOCKED: USER    Run = 10
DOCKED: USER
DOCKED: USER    Estimated Free Energy of Binding    =  -4.34 kcal/mol  [=(1)+(2)+(3)-(4)]
DOCKED: USER
DOCKED: USER    (1) Final Intermolecular Energy     =  -8.52 kcal/mol
DOCKED: USER        vdW + Hbond + desolv Energy     =  -8.37 kcal/mol
DOCKED: USER        Electrostatic Energy            =  -0.14 kcal/mol
DOCKED: USER        Moving Ligand-Fixed Receptor    =  -8.52 kcal/mol
DOCKED: USER        Moving Ligand-Moving Receptor   =  +0.00 kcal/mol
DOCKED: USER    (2) Final Total Internal Energy     =  -6.46 kcal/mol
DOCKED: USER    (3) Torsional Free Energy           =  +4.18 kcal/mol
DOCKED: USER    (4) Unbound System's Energy         =  -6.46 kcal/mol
DOCKED: USER
DOCKED: USER
DOCKED: REMARK SMILES C[C@@H](C(=O)/N=c1/[nH]nc(CCCCc2n[nH]/c(=N\C(=O)[C@@H]3COc4ccccc4C3)s2)s1)C(C)(C)CO
DOCKED: REMARK SMILES IDX 6 1 7 2 8 3 9 4 32 5 5 7 3 8 4 9 2 10 1 11 33 12 34 13 35 14
DOCKED: REMARK SMILES IDX 36 15 37 16 10 18 11 19 12 20 13 21 14 22 15 23 31 24 16 25
DOCKED: REMARK SMILES IDX 17 26 18 28 19 29 20 30 21 31 22 32 30 33 23 34 29 35 24 36
DOCKED: REMARK SMILES IDX 28 37 25 38 27 39 26 40
DOCKED: REMARK H PARENT 7 6 37 17 16 27
DOCKED: USER                              x       y       z     vdW  Elec       q    Type
DOCKED: USER                           _______ _______ _______ _____ _____    ______ ____
DOCKED: ROOT
DOCKED: ATOM      1  C   UNL     1     140.253  75.521 221.981 -0.24 -0.04    +0.208 A  
DOCKED: ATOM      2  N   UNL     1     140.879  76.627 222.308 -0.27 +0.09    -0.251 N  
DOCKED: ATOM      3  N   UNL     1     140.143  77.623 222.647 -0.27 +0.04    -0.167 NA 
DOCKED: ATOM      4  C   UNL     1     139.003  77.755 222.728 -0.25 -0.02    +0.116 A  
DOCKED: ATOM      5  S   UNL     1     138.491  75.967 222.183 -0.33 +0.02    -0.080 S  
DOCKED: ATOM      6  H   UNL     1     141.952  76.691 222.291 -0.48 -0.16    +0.193 HD 
DOCKED: ENDROOT
DOCKED: BRANCH   1   7
DOCKED: ATOM      7  N   UNL     1     140.646  74.356 221.601 -0.55 +0.02    -0.184 NA 
DOCKED: BRANCH   7   8
DOCKED: ATOM      8  C   UNL     1     140.865  74.066 220.228 -0.10 -0.05    +0.251 C  
DOCKED: ATOM      9  O   UNL     1     139.816  74.053 219.497 -0.02 +0.06    -0.272 OA 
DOCKED: BRANCH   8  10
DOCKED: ATOM     10  C   UNL     1     142.184  73.791 219.631 -0.15 -0.02    +0.086 C  
DOCKED: ATOM     11  C   UNL     1     143.124  73.037 220.551 -0.29 -0.00    +0.019 C  
DOCKED: BRANCH  10  12
DOCKED: ATOM     12  C   UNL     1     142.889  75.039 219.170 -0.28 +0.00    -0.001 C  
DOCKED: ATOM     13  C   UNL     1     144.094  75.211 220.080 -0.36 -0.01    +0.014 C  
DOCKED: ATOM     14  C   UNL     1     143.284  74.869 217.739 -0.17 -0.01    +0.014 C  
DOCKED: BRANCH  12  15
DOCKED: ATOM     15  C   UNL     1     141.968  76.218 219.364 -0.19 -0.08    +0.163 C  
DOCKED: BRANCH  15  16
DOCKED: ATOM     16  O   UNL     1     142.634  77.071 220.271 -0.14 +0.31    -0.396 OA 
DOCKED: ATOM     17  H   UNL     1     143.365  77.556 219.823 -0.45 -0.22    +0.210 HD 
DOCKED: ENDBRANCH  15  16
DOCKED: ENDBRANCH  12  15
DOCKED: ENDBRANCH  10  12
DOCKED: ENDBRANCH   8  10
DOCKED: ENDBRANCH   7   8
DOCKED: ENDBRANCH   1   7
DOCKED: BRANCH   4  18
DOCKED: ATOM     18  C   UNL     1     137.820  78.590 223.068 -0.15 -0.01    +0.070 C  
DOCKED: BRANCH  18  19
DOCKED: ATOM     19  C   UNL     1     137.849  80.028 222.778 -0.24 -0.00    +0.008 C  
DOCKED: BRANCH  19  20
DOCKED: ATOM     20  C   UNL     1     138.589  80.896 223.688 -0.37 -0.00    +0.008 C  
DOCKED: BRANCH  20  21
DOCKED: ATOM     21  C   UNL     1     140.061  80.844 223.801 -0.29 -0.01    +0.070 C  
DOCKED: BRANCH  21  22
DOCKED: ATOM     22  C   UNL     1     140.811  80.608 222.574 -0.34 -0.02    +0.116 A  
DOCKED: ATOM     23  N   UNL     1     141.622  79.805 222.188 -0.31 +0.06    -0.167 NA 
DOCKED: ATOM     24  S   UNL     1     140.645  81.650 221.032 -0.33 +0.02    -0.080 S  
DOCKED: ATOM     25  N   UNL     1     142.200  79.699 221.046 -0.17 +0.14    -0.251 N  
DOCKED: ATOM     26  C   UNL     1     141.895  80.583 220.116 -0.21 -0.09    +0.208 A  
DOCKED: ATOM     27  H   UNL     1     142.915  78.919 220.839 -0.35 -0.22    +0.193 HD 
DOCKED: BRANCH  26  28
DOCKED: ATOM     28  N   UNL     1     142.221  80.814 218.934 -0.22 +0.11    -0.183 NA 
DOCKED: BRANCH  28  29
DOCKED: ATOM     29  C   UNL     1     142.347  79.695 218.047 -0.21 -0.22    +0.255 C  
DOCKED: ATOM     30  O   UNL     1     143.122  78.736 218.298 -0.21 +0.28    -0.272 OA 
DOCKED: BRANCH  29  31
DOCKED: ATOM     31  C   UNL     1     141.527  79.698 216.812 -0.13 -0.09    +0.123 C  
DOCKED: ATOM     32  C   UNL     1     140.449  80.761 216.892 -0.04 -0.11    +0.243 C  
DOCKED: ATOM     33  C   UNL     1     140.880  78.344 216.640 -0.07 -0.03    +0.056 C  
DOCKED: ATOM     34  O   UNL     1     139.737  80.527 218.105 +0.01 +0.17    -0.492 OA 
DOCKED: ATOM     35  C   UNL     1     139.801  78.199 217.639 -0.03 +0.00    -0.005 A  
DOCKED: ATOM     36  C   UNL     1     139.249  79.245 218.343 -0.02 -0.04    +0.122 A  
DOCKED: ATOM     37  C   UNL     1     139.299  76.922 217.892 -0.02 -0.00    +0.007 A  
DOCKED: ATOM     38  C   UNL     1     138.241  79.094 219.272 -0.02 -0.01    +0.047 A  
DOCKED: ATOM     39  C   UNL     1     138.281  76.719 218.821 -0.02 -0.00    +0.001 A  
DOCKED: ATOM     40  C   UNL     1     137.768  77.828 219.500 -0.02 -0.00    +0.004 A  
DOCKED: ENDBRANCH  29  31
DOCKED: ENDBRANCH  28  29
DOCKED: ENDBRANCH  26  28
DOCKED: ENDBRANCH  21  22
DOCKED: ENDBRANCH  20  21
DOCKED: ENDBRANCH  19  20
DOCKED: ENDBRANCH  18  19
DOCKED: ENDBRANCH   4  18
DOCKED: TORSDOF 14
DOCKED: TER
DOCKED: ENDMDL
________________________________________________________________________________


    FINAL DOCKED STATE:
    ________________________


Run:   11 / 20
Time taken for this run:   0.086s

DOCKED: MODEL        11
DOCKED: USER    Run = 11
DOCKED: USER
DOCKED: USER    Estimated Free Energy of Binding    =  -4.62 kcal/mol  [=(1)+(2)+(3)-(4)]
DOCKED: USER
DOCKED: USER    (1) Final Intermolecular Energy     =  -8.80 kcal/mol
DOCKED: USER        vdW + Hbond + desolv Energy     =  -8.61 kcal/mol
DOCKED: USER        Electrostatic Energy            =  -0.19 kcal/mol
DOCKED: USER        Moving Ligand-Fixed Receptor    =  -8.80 kcal/mol
DOCKED: USER        Moving Ligand-Moving Receptor   =  +0.00 kcal/mol
DOCKED: USER    (2) Final Total Internal Energy     =  -6.75 kcal/mol
DOCKED: USER    (3) Torsional Free Energy           =  +4.18 kcal/mol
DOCKED: USER    (4) Unbound System's Energy         =  -6.75 kcal/mol
DOCKED: USER
DOCKED: USER
DOCKED: REMARK SMILES C[C@@H](C(=O)/N=c1/[nH]nc(CCCCc2n[nH]/c(=N\C(=O)[C@@H]3COc4ccccc4C3)s2)s1)C(C)(C)CO
DOCKED: REMARK SMILES IDX 6 1 7 2 8 3 9 4 32 5 5 7 3 8 4 9 2 10 1 11 33 12 34 13 35 14
DOCKED: REMARK SMILES IDX 36 15 37 16 10 18 11 19 12 20 13 21 14 22 15 23 31 24 16 25
DOCKED: REMARK SMILES IDX 17 26 18 28 19 29 20 30 21 31 22 32 30 33 23 34 29 35 24 36
DOCKED: REMARK SMILES IDX 28 37 25 38 27 39 26 40
DOCKED: REMARK H PARENT 7 6 37 17 16 27
DOCKED: USER                              x       y       z     vdW  Elec       q    Type
DOCKED: USER                           _______ _______ _______ _____ _____    ______ ____
DOCKED: ROOT
DOCKED: ATOM      1  C   UNL     1     140.170  77.538 222.632 -0.25 -0.05    +0.208 A  
DOCKED: ATOM      2  N   UNL     1     141.430  77.550 222.266 -0.18 +0.13    -0.251 N  
DOCKED: ATOM      3  N   UNL     1     142.069  78.649 222.448 -0.31 +0.09    -0.167 NA 
DOCKED: ATOM      4  C   UNL     1     141.756  79.668 222.881 -0.48 -0.04    +0.116 A  
DOCKED: ATOM      5  S   UNL     1     139.910  79.231 223.276 -0.47 +0.01    -0.080 S  
DOCKED: ATOM      6  H   UNL     1     141.899  76.683 221.838 -0.49 -0.14    +0.193 HD 
DOCKED: ENDROOT
DOCKED: BRANCH   1   7
DOCKED: ATOM      7  N   UNL     1     139.244  76.644 222.604 -0.23 +0.03    -0.184 NA 
DOCKED: BRANCH   7   8
DOCKED: ATOM      8  C   UNL     1     139.459  75.383 221.989 -0.21 -0.05    +0.251 C  
DOCKED: ATOM      9  O   UNL     1     140.671  74.972 221.990 -0.67 +0.03    -0.272 OA 
DOCKED: BRANCH   8  10
DOCKED: ATOM     10  C   UNL     1     138.402  74.560 221.377 -0.17 -0.02    +0.086 C  
DOCKED: ATOM     11  C   UNL     1     138.751  73.087 221.288 -0.16 -0.00    +0.019 C  
DOCKED: BRANCH  10  12
DOCKED: ATOM     12  C   UNL     1     138.021  75.029 219.998 -0.06 +0.00    -0.001 C  
DOCKED: ATOM     13  C   UNL     1     137.955  73.787 219.125 -0.02 -0.00    +0.014 C  
DOCKED: ATOM     14  C   UNL     1     136.705  75.732 220.075 -0.04 -0.00    +0.014 C  
DOCKED: BRANCH  12  15
DOCKED: ATOM     15  C   UNL     1     139.110  75.930 219.471 -0.03 -0.04    +0.163 C  
DOCKED: BRANCH  15  16
DOCKED: ATOM     16  O   UNL     1     139.881  75.122 218.605 +0.01 +0.10    -0.396 OA 
DOCKED: ATOM     17  H   UNL     1     140.758  75.534 218.433 +0.04 -0.06    +0.210 HD 
DOCKED: ENDBRANCH  15  16
DOCKED: ENDBRANCH  12  15
DOCKED: ENDBRANCH  10  12
DOCKED: ENDBRANCH   8  10
DOCKED: ENDBRANCH   7   8
DOCKED: ENDBRANCH   1   7
DOCKED: BRANCH   4  18
DOCKED: ATOM     18  C   UNL     1     142.093  81.059 223.285 -0.56 -0.01    +0.070 C  
DOCKED: BRANCH  18  19
DOCKED: ATOM     19  C   UNL     1     141.806  82.164 222.364 -0.22 -0.00    +0.008 C  
DOCKED: BRANCH  19  20
DOCKED: ATOM     20  C   UNL     1     140.625  82.060 221.515 -0.33 -0.00    +0.008 C  
DOCKED: BRANCH  20  21
DOCKED: ATOM     21  C   UNL     1     140.706  82.136 220.041 -0.22 -0.02    +0.070 C  
DOCKED: BRANCH  21  22
DOCKED: ATOM     22  C   UNL     1     141.263  80.980 219.349 -0.21 -0.05    +0.116 A  
DOCKED: ATOM     23  N   UNL     1     142.211  80.763 218.638 -0.24 +0.11    -0.167 NA 
DOCKED: ATOM     24  S   UNL     1     140.538  79.261 219.438 -0.17 +0.03    -0.080 S  
DOCKED: ATOM     25  N   UNL     1     142.605  79.665 218.100 -0.23 +0.23    -0.251 N  
DOCKED: ATOM     26  C   UNL     1     141.896  78.577 218.330 -0.18 -0.14    +0.208 A  
DOCKED: ATOM     27  H   UNL     1     143.484  79.618 217.478 -0.51 -0.35    +0.193 HD 
DOCKED: BRANCH  26  28
DOCKED: ATOM     28  N   UNL     1     141.943  77.372 218.009 -0.13 +0.10    -0.183 NA 
DOCKED: BRANCH  28  29
DOCKED: ATOM     29  C   UNL     1     142.502  76.451 218.955 -0.20 -0.14    +0.255 C  
DOCKED: ATOM     30  O   UNL     1     142.007  76.298 220.101 -0.19 +0.14    -0.272 OA 
DOCKED: BRANCH  29  31
DOCKED: ATOM     31  C   UNL     1     143.693  75.674 218.538 -0.15 -0.07    +0.123 C  
DOCKED: ATOM     32  C   UNL     1     143.405  74.896 217.269 -0.09 -0.09    +0.243 C  
DOCKED: ATOM     33  C   UNL     1     144.068  74.710 219.639 -0.34 -0.02    +0.056 C  
DOCKED: ATOM     34  O   UNL     1     142.226  74.134 217.519 +0.02 +0.13    -0.492 OA 
DOCKED: ATOM     35  C   UNL     1     143.074  73.617 219.676 -0.25 +0.00    -0.005 A  
DOCKED: ATOM     36  C   UNL     1     142.189  73.336 218.661 -0.05 -0.03    +0.122 A  
DOCKED: ATOM     37  C   UNL     1     143.023  72.807 220.812 -0.29 -0.00    +0.007 A  
DOCKED: ATOM     38  C   UNL     1     141.268  72.312 218.710 -0.04 -0.01    +0.047 A  
DOCKED: ATOM     39  C   UNL     1     142.109  71.759 220.908 -0.22 -0.00    +0.001 A  
DOCKED: ATOM     40  C   UNL     1     141.240  71.533 219.838 -0.11 -0.00    +0.004 A  
DOCKED: ENDBRANCH  29  31
DOCKED: ENDBRANCH  28  29
DOCKED: ENDBRANCH  26  28
DOCKED: ENDBRANCH  21  22
DOCKED: ENDBRANCH  20  21
DOCKED: ENDBRANCH  19  20
DOCKED: ENDBRANCH  18  19
DOCKED: ENDBRANCH   4  18
DOCKED: TORSDOF 14
DOCKED: TER
DOCKED: ENDMDL
________________________________________________________________________________


    FINAL DOCKED STATE:
    ________________________


Run:   12 / 20
Time taken for this run:   0.086s

DOCKED: MODEL        12
DOCKED: USER    Run = 12
DOCKED: USER
DOCKED: USER    Estimated Free Energy of Binding    =  -3.56 kcal/mol  [=(1)+(2)+(3)-(4)]
DOCKED: USER
DOCKED: USER    (1) Final Intermolecular Energy     =  -7.74 kcal/mol
DOCKED: USER        vdW + Hbond + desolv Energy     =  -7.72 kcal/mol
DOCKED: USER        Electrostatic Energy            =  -0.02 kcal/mol
DOCKED: USER        Moving Ligand-Fixed Receptor    =  -7.74 kcal/mol
DOCKED: USER        Moving Ligand-Moving Receptor   =  +0.00 kcal/mol
DOCKED: USER    (2) Final Total Internal Energy     =  -7.67 kcal/mol
DOCKED: USER    (3) Torsional Free Energy           =  +4.18 kcal/mol
DOCKED: USER    (4) Unbound System's Energy         =  -7.67 kcal/mol
DOCKED: USER
DOCKED: USER
DOCKED: REMARK SMILES C[C@@H](C(=O)/N=c1/[nH]nc(CCCCc2n[nH]/c(=N\C(=O)[C@@H]3COc4ccccc4C3)s2)s1)C(C)(C)CO
DOCKED: REMARK SMILES IDX 6 1 7 2 8 3 9 4 32 5 5 7 3 8 4 9 2 10 1 11 33 12 34 13 35 14
DOCKED: REMARK SMILES IDX 36 15 37 16 10 18 11 19 12 20 13 21 14 22 15 23 31 24 16 25
DOCKED: REMARK SMILES IDX 17 26 18 28 19 29 20 30 21 31 22 32 30 33 23 34 29 35 24 36
DOCKED: REMARK SMILES IDX 28 37 25 38 27 39 26 40
DOCKED: REMARK H PARENT 7 6 37 17 16 27
DOCKED: USER                              x       y       z     vdW  Elec       q    Type
DOCKED: USER                           _______ _______ _______ _____ _____    ______ ____
DOCKED: ROOT
DOCKED: ATOM      1  C   UNL     1     141.485  77.713 219.088 -0.14 -0.11    +0.208 A  
DOCKED: ATOM      2  N   UNL     1     140.844  76.593 219.331 -0.05 +0.09    -0.251 N  
DOCKED: ATOM      3  N   UNL     1     140.999  75.648 218.475 -0.04 +0.05    -0.167 NA 
DOCKED: ATOM      4  C   UNL     1     141.605  75.574 217.500 -0.05 -0.04    +0.116 A  
DOCKED: ATOM      5  S   UNL     1     142.359  77.359 217.521 -0.28 +0.05    -0.080 S  
DOCKED: ATOM      6  H   UNL     1     140.225  76.477 220.201 +0.06 -0.06    +0.193 HD 
DOCKED: ENDROOT
DOCKED: BRANCH   1   7
DOCKED: ATOM      7  N   UNL     1     141.568  78.841 219.703 -0.17 +0.10    -0.184 NA 
DOCKED: BRANCH   7   8
DOCKED: ATOM      8  C   UNL     1     140.745  79.129 220.824 -0.15 -0.09    +0.251 C  
DOCKED: ATOM      9  O   UNL     1     139.855  78.250 221.091 -0.08 +0.08    -0.272 OA 
DOCKED: BRANCH   8  10
DOCKED: ATOM     10  C   UNL     1     140.860  80.338 221.658 -0.30 -0.02    +0.086 C  
DOCKED: ATOM     11  C   UNL     1     141.842  81.359 221.119 -0.31 -0.01    +0.019 C  
DOCKED: BRANCH  10  12
DOCKED: ATOM     12  C   UNL     1     141.244  80.032 223.081 -0.54 +0.00    -0.001 C  
DOCKED: ATOM     13  C   UNL     1     141.866  81.301 223.639 -0.59 -0.00    +0.014 C  
DOCKED: ATOM     14  C   UNL     1     140.020  79.626 223.835 -0.44 -0.00    +0.014 C  
DOCKED: BRANCH  12  15
DOCKED: ATOM     15  C   UNL     1     142.291  78.945 223.081 -0.35 -0.07    +0.163 C  
DOCKED: BRANCH  15  16
DOCKED: ATOM     16  O   UNL     1     141.572  77.730 223.130 -0.21 +0.18    -0.396 OA 
DOCKED: ATOM     17  H   UNL     1     141.465  77.351 222.228 -0.14 -0.11    +0.210 HD 
DOCKED: ENDBRANCH  15  16
DOCKED: ENDBRANCH  12  15
DOCKED: ENDBRANCH  10  12
DOCKED: ENDBRANCH   8  10
DOCKED: ENDBRANCH   7   8
DOCKED: ENDBRANCH   1   7
DOCKED: BRANCH   4  18
DOCKED: ATOM     18  C   UNL     1     142.077  74.788 216.329 -0.03 -0.02    +0.070 C  
DOCKED: BRANCH  18  19
DOCKED: ATOM     19  C   UNL     1     143.220  73.882 216.486 -0.06 -0.00    +0.008 C  
DOCKED: BRANCH  19  20
DOCKED: ATOM     20  C   UNL     1     144.310  74.298 217.361 -0.13 -0.00    +0.008 C  
DOCKED: BRANCH  20  21
DOCKED: ATOM     21  C   UNL     1     144.478  73.751 218.723 -0.21 -0.01    +0.070 C  
DOCKED: BRANCH  21  22
DOCKED: ATOM     22  C   UNL     1     143.440  74.067 219.696 -0.26 -0.03    +0.116 A  
DOCKED: ATOM     23  N   UNL     1     143.168  75.000 220.409 -0.25 +0.08    -0.167 NA 
DOCKED: ATOM     24  S   UNL     1     142.023  72.926 220.120 -0.22 +0.01    -0.080 S  
DOCKED: ATOM     25  N   UNL     1     142.187  75.158 221.223 -0.08 +0.11    -0.251 N  
DOCKED: ATOM     26  C   UNL     1     141.312  74.177 221.332 -0.19 -0.03    +0.208 A  
DOCKED: ATOM     27  H   UNL     1     142.068  76.058 221.804 -0.49 -0.14    +0.193 HD 
DOCKED: BRANCH  26  28
DOCKED: ATOM     28  N   UNL     1     140.269  73.951 221.980 -0.81 +0.01    -0.183 NA 
DOCKED: BRANCH  28  29
DOCKED: ATOM     29  C   UNL     1     139.312  75.012 222.092 -0.15 -0.05    +0.255 C  
DOCKED: ATOM     30  O   UNL     1     139.658  76.187 222.375 -0.34 +0.05    -0.272 OA 
DOCKED: BRANCH  29  31
DOCKED: ATOM     31  C   UNL     1     137.886  74.681 221.861 -0.16 -0.03    +0.123 C  
DOCKED: ATOM     32  C   UNL     1     137.644  74.361 220.399 -0.04 -0.05    +0.243 C  
DOCKED: ATOM     33  C   UNL     1     137.030  75.860 222.262 -0.21 -0.01    +0.056 C  
DOCKED: ATOM     34  O   UNL     1     138.150  75.465 219.653 +0.01 +0.10    -0.492 OA 
DOCKED: ATOM     35  C   UNL     1     137.190  76.930 221.256 -0.11 +0.00    -0.005 A  
DOCKED: ATOM     36  C   UNL     1     137.726  76.745 220.003 -0.03 -0.03    +0.122 A  
DOCKED: ATOM     37  C   UNL     1     136.770  78.219 221.588 -0.10 -0.00    +0.007 A  
DOCKED: ATOM     38  C   UNL     1     137.867  77.754 219.074 -0.02 -0.01    +0.047 A  
DOCKED: ATOM     39  C   UNL     1     136.892  79.272 220.684 -0.05 -0.00    +0.001 A  
DOCKED: ATOM     40  C   UNL     1     137.447  79.010 219.428 -0.02 -0.00    +0.004 A  
DOCKED: ENDBRANCH  29  31
DOCKED: ENDBRANCH  28  29
DOCKED: ENDBRANCH  26  28
DOCKED: ENDBRANCH  21  22
DOCKED: ENDBRANCH  20  21
DOCKED: ENDBRANCH  19  20
DOCKED: ENDBRANCH  18  19
DOCKED: ENDBRANCH   4  18
DOCKED: TORSDOF 14
DOCKED: TER
DOCKED: ENDMDL
________________________________________________________________________________


    FINAL DOCKED STATE:
    ________________________


Run:   13 / 20
Time taken for this run:   0.086s

DOCKED: MODEL        13
DOCKED: USER    Run = 13
DOCKED: USER
DOCKED: USER    Estimated Free Energy of Binding    =  -5.05 kcal/mol  [=(1)+(2)+(3)-(4)]
DOCKED: USER
DOCKED: USER    (1) Final Intermolecular Energy     =  -9.23 kcal/mol
DOCKED: USER        vdW + Hbond + desolv Energy     =  -9.18 kcal/mol
DOCKED: USER        Electrostatic Energy            =  -0.05 kcal/mol
DOCKED: USER        Moving Ligand-Fixed Receptor    =  -9.23 kcal/mol
DOCKED: USER        Moving Ligand-Moving Receptor   =  +0.00 kcal/mol
DOCKED: USER    (2) Final Total Internal Energy     =  -6.14 kcal/mol
DOCKED: USER    (3) Torsional Free Energy           =  +4.18 kcal/mol
DOCKED: USER    (4) Unbound System's Energy         =  -6.14 kcal/mol
DOCKED: USER
DOCKED: USER
DOCKED: REMARK SMILES C[C@@H](C(=O)/N=c1/[nH]nc(CCCCc2n[nH]/c(=N\C(=O)[C@@H]3COc4ccccc4C3)s2)s1)C(C)(C)CO
DOCKED: REMARK SMILES IDX 6 1 7 2 8 3 9 4 32 5 5 7 3 8 4 9 2 10 1 11 33 12 34 13 35 14
DOCKED: REMARK SMILES IDX 36 15 37 16 10 18 11 19 12 20 13 21 14 22 15 23 31 24 16 25
DOCKED: REMARK SMILES IDX 17 26 18 28 19 29 20 30 21 31 22 32 30 33 23 34 29 35 24 36
DOCKED: REMARK SMILES IDX 28 37 25 38 27 39 26 40
DOCKED: REMARK H PARENT 7 6 37 17 16 27
DOCKED: USER                              x       y       z     vdW  Elec       q    Type
DOCKED: USER                           _______ _______ _______ _____ _____    ______ ____
DOCKED: ROOT
DOCKED: ATOM      1  C   UNL     1     142.603  77.514 218.345 -0.24 -0.14    +0.208 A  
DOCKED: ATOM      2  N   UNL     1     142.908  77.407 219.617 -0.09 +0.20    -0.251 N  
DOCKED: ATOM      3  N   UNL     1     143.198  76.229 220.039 -0.25 +0.12    -0.167 NA 
DOCKED: ATOM      4  C   UNL     1     143.247  75.207 219.515 -0.30 -0.05    +0.116 A  
DOCKED: ATOM      5  S   UNL     1     142.748  75.795 217.737 -0.23 +0.04    -0.080 S  
DOCKED: ATOM      6  H   UNL     1     142.915  78.262 220.268 -0.35 -0.21    +0.193 HD 
DOCKED: ENDROOT
DOCKED: BRANCH   1   7
DOCKED: ATOM      7  N   UNL     1     142.270  78.503 217.591 -0.19 +0.15    -0.184 NA 
DOCKED: BRANCH   7   8
DOCKED: ATOM      8  C   UNL     1     142.342  79.842 218.060 -0.22 -0.21    +0.251 C  
DOCKED: ATOM      9  O   UNL     1     142.587  79.972 219.309 -0.18 +0.20    -0.272 OA 
DOCKED: BRANCH   8  10
DOCKED: ATOM     10  C   UNL     1     142.156  81.035 217.217 -0.23 -0.07    +0.086 C  
DOCKED: ATOM     11  C   UNL     1     143.372  81.939 217.162 -0.28 -0.02    +0.019 C  
DOCKED: BRANCH  10  12
DOCKED: ATOM     12  C   UNL     1     140.977  81.871 217.637 -0.14 +0.00    -0.001 C  
DOCKED: ATOM     13  C   UNL     1     140.758  82.891 216.532 -0.07 -0.01    +0.014 C  
DOCKED: ATOM     14  C   UNL     1     139.793  80.978 217.820 -0.06 -0.00    +0.014 C  
DOCKED: BRANCH  12  15
DOCKED: ATOM     15  C   UNL     1     141.328  82.606 218.907 -0.16 -0.06    +0.163 C  
DOCKED: BRANCH  15  16
DOCKED: ATOM     16  O   UNL     1     140.828  81.805 219.957 -0.10 +0.12    -0.396 OA 
DOCKED: ATOM     17  H   UNL     1     141.306  80.945 219.999 +0.08 -0.08    +0.210 HD 
DOCKED: ENDBRANCH  15  16
DOCKED: ENDBRANCH  12  15
DOCKED: ENDBRANCH  10  12
DOCKED: ENDBRANCH   8  10
DOCKED: ENDBRANCH   7   8
DOCKED: ENDBRANCH   1   7
DOCKED: BRANCH   4  18
DOCKED: ATOM     18  C   UNL     1     143.531  73.747 219.554 -0.26 -0.02    +0.070 C  
DOCKED: BRANCH  18  19
DOCKED: ATOM     19  C   UNL     1     142.414  72.796 219.517 -0.15 -0.00    +0.008 C  
DOCKED: BRANCH  19  20
DOCKED: ATOM     20  C   UNL     1     142.184  71.962 220.691 -0.22 -0.00    +0.008 C  
DOCKED: BRANCH  20  21
DOCKED: ATOM     21  C   UNL     1     141.080  72.224 221.637 -0.25 -0.01    +0.070 C  
DOCKED: BRANCH  21  22
DOCKED: ATOM     22  C   UNL     1     140.596  73.596 221.727 -0.25 -0.01    +0.116 A  
DOCKED: ATOM     23  N   UNL     1     141.088  74.685 221.874 -0.54 +0.02    -0.167 NA 
DOCKED: ATOM     24  S   UNL     1     138.799  74.080 221.578 -0.25 +0.02    -0.080 S  
DOCKED: ATOM     25  N   UNL     1     140.532  75.843 221.915 -0.25 +0.06    -0.251 N  
DOCKED: ATOM     26  C   UNL     1     139.221  75.903 221.780 -0.22 -0.05    +0.208 A  
DOCKED: ATOM     27  H   UNL     1     141.104  76.745 222.054 -0.03 -0.08    +0.193 HD 
DOCKED: BRANCH  26  28
DOCKED: ATOM     28  N   UNL     1     138.345  76.790 221.763 -0.14 +0.04    -0.183 NA 
DOCKED: BRANCH  28  29
DOCKED: ATOM     29  C   UNL     1     138.699  78.086 222.262 -0.17 -0.05    +0.255 C  
DOCKED: ATOM     30  O   UNL     1     138.887  78.294 223.488 -0.14 +0.03    -0.272 OA 
DOCKED: BRANCH  29  31
DOCKED: ATOM     31  C   UNL     1     138.840  79.188 221.281 -0.11 -0.03    +0.123 C  
DOCKED: ATOM     32  C   UNL     1     139.944  78.879 220.288 -0.07 -0.08    +0.243 C  
DOCKED: ATOM     33  C   UNL     1     139.173  80.467 222.013 -0.21 -0.01    +0.056 C  
DOCKED: ATOM     34  O   UNL     1     141.109  78.582 221.055 -0.06 +0.22    -0.492 OA 
DOCKED: ATOM     35  C   UNL     1     140.570  80.395 222.491 -0.37 +0.00    -0.005 A  
DOCKED: ATOM     36  C   UNL     1     141.502  79.493 222.033 -0.37 -0.05    +0.122 A  
DOCKED: ATOM     37  C   UNL     1     140.982  81.301 223.469 -0.43 -0.00    +0.007 A  
DOCKED: ATOM     38  C   UNL     1     142.803  79.439 222.488 -0.44 -0.03    +0.047 A  
DOCKED: ATOM     39  C   UNL     1     142.286  81.285 223.960 -0.63 -0.00    +0.001 A  
DOCKED: ATOM     40  C   UNL     1     143.179  80.340 223.449 -0.63 -0.00    +0.004 A  
DOCKED: ENDBRANCH  29  31
DOCKED: ENDBRANCH  28  29
DOCKED: ENDBRANCH  26  28
DOCKED: ENDBRANCH  21  22
DOCKED: ENDBRANCH  20  21
DOCKED: ENDBRANCH  19  20
DOCKED: ENDBRANCH  18  19
DOCKED: ENDBRANCH   4  18
DOCKED: TORSDOF 14
DOCKED: TER
DOCKED: ENDMDL
________________________________________________________________________________


    FINAL DOCKED STATE:
    ________________________


Run:   14 / 20
Time taken for this run:   0.086s

DOCKED: MODEL        14
DOCKED: USER    Run = 14
DOCKED: USER
DOCKED: USER    Estimated Free Energy of Binding    =  -3.90 kcal/mol  [=(1)+(2)+(3)-(4)]
DOCKED: USER
DOCKED: USER    (1) Final Intermolecular Energy     =  -8.07 kcal/mol
DOCKED: USER        vdW + Hbond + desolv Energy     =  -7.94 kcal/mol
DOCKED: USER        Electrostatic Energy            =  -0.14 kcal/mol
DOCKED: USER        Moving Ligand-Fixed Receptor    =  -8.07 kcal/mol
DOCKED: USER        Moving Ligand-Moving Receptor   =  +0.00 kcal/mol
DOCKED: USER    (2) Final Total Internal Energy     =  -8.01 kcal/mol
DOCKED: USER    (3) Torsional Free Energy           =  +4.18 kcal/mol
DOCKED: USER    (4) Unbound System's Energy         =  -8.01 kcal/mol
DOCKED: USER
DOCKED: USER
DOCKED: REMARK SMILES C[C@@H](C(=O)/N=c1/[nH]nc(CCCCc2n[nH]/c(=N\C(=O)[C@@H]3COc4ccccc4C3)s2)s1)C(C)(C)CO
DOCKED: REMARK SMILES IDX 6 1 7 2 8 3 9 4 32 5 5 7 3 8 4 9 2 10 1 11 33 12 34 13 35 14
DOCKED: REMARK SMILES IDX 36 15 37 16 10 18 11 19 12 20 13 21 14 22 15 23 31 24 16 25
DOCKED: REMARK SMILES IDX 17 26 18 28 19 29 20 30 21 31 22 32 30 33 23 34 29 35 24 36
DOCKED: REMARK SMILES IDX 28 37 25 38 27 39 26 40
DOCKED: REMARK H PARENT 7 6 37 17 16 27
DOCKED: USER                              x       y       z     vdW  Elec       q    Type
DOCKED: USER                           _______ _______ _______ _____ _____    ______ ____
DOCKED: ROOT
DOCKED: ATOM      1  C   UNL     1     139.332  77.335 221.104 -0.11 -0.05    +0.208 A  
DOCKED: ATOM      2  N   UNL     1     139.586  76.622 220.032 -0.03 +0.07    -0.251 N  
DOCKED: ATOM      3  N   UNL     1     138.950  75.513 219.917 -0.03 +0.04    -0.167 NA 
DOCKED: ATOM      4  C   UNL     1     138.172  74.991 220.585 -0.08 -0.03    +0.116 A  
DOCKED: ATOM      5  S   UNL     1     138.094  76.322 221.991 -0.29 +0.02    -0.080 S  
DOCKED: ATOM      6  H   UNL     1     140.290  76.954 219.290 +0.05 -0.07    +0.193 HD 
DOCKED: ENDROOT
DOCKED: BRANCH   1   7
DOCKED: ATOM      7  N   UNL     1     139.765  78.465 221.544 -0.12 +0.05    -0.184 NA 
DOCKED: BRANCH   7   8
DOCKED: ATOM      8  C   UNL     1     140.522  78.546 222.742 -0.30 -0.07    +0.251 C  
DOCKED: ATOM      9  O   UNL     1     141.110  77.465 223.093 -0.34 +0.09    -0.272 OA 
DOCKED: BRANCH   8  10
DOCKED: ATOM     10  C   UNL     1     140.659  79.759 223.565 -0.45 -0.02    +0.086 C  
DOCKED: ATOM     11  C   UNL     1     139.350  80.490 223.797 -0.40 -0.00    +0.019 C  
DOCKED: BRANCH  10  12
DOCKED: ATOM     12  C   UNL     1     141.644  80.745 222.996 -0.57 +0.00    -0.001 C  
DOCKED: ATOM     13  C   UNL     1     140.822  81.852 222.355 -0.36 -0.00    +0.014 C  
DOCKED: ATOM     14  C   UNL     1     142.510  81.256 224.101 -0.59 -0.00    +0.014 C  
DOCKED: BRANCH  12  15
DOCKED: ATOM     15  C   UNL     1     142.450  80.061 221.919 -0.32 -0.07    +0.163 C  
DOCKED: BRANCH  15  16
DOCKED: ATOM     16  O   UNL     1     141.744  80.291 220.717 -0.16 +0.17    -0.396 OA 
DOCKED: ATOM     17  H   UNL     1     141.320  79.462 220.398 +0.09 -0.10    +0.210 HD 
DOCKED: ENDBRANCH  15  16
DOCKED: ENDBRANCH  12  15
DOCKED: ENDBRANCH  10  12
DOCKED: ENDBRANCH   8  10
DOCKED: ENDBRANCH   7   8
DOCKED: ENDBRANCH   1   7
DOCKED: BRANCH   4  18
DOCKED: ATOM     18  C   UNL     1     137.235  73.864 220.838 -0.08 -0.01    +0.070 C  
DOCKED: BRANCH  18  19
DOCKED: ATOM     19  C   UNL     1     137.461  72.987 221.993 -0.15 -0.00    +0.008 C  
DOCKED: BRANCH  19  20
DOCKED: ATOM     20  C   UNL     1     138.345  71.840 221.819 -0.15 -0.00    +0.008 C  
DOCKED: BRANCH  20  21
DOCKED: ATOM     21  C   UNL     1     139.788  71.905 222.132 -0.25 -0.01    +0.070 C  
DOCKED: BRANCH  21  22
DOCKED: ATOM     22  C   UNL     1     140.530  73.041 221.600 -0.24 -0.01    +0.116 A  
DOCKED: ATOM     23  N   UNL     1     140.884  74.119 222.006 -0.66 +0.00    -0.167 NA 
DOCKED: ATOM     24  S   UNL     1     141.263  73.098 219.882 -0.15 +0.02    -0.080 S  
DOCKED: ATOM     25  N   UNL     1     141.569  75.036 221.423 -0.18 +0.07    -0.251 N  
DOCKED: ATOM     26  C   UNL     1     141.970  74.815 220.186 -0.18 -0.07    +0.208 A  
DOCKED: ATOM     27  H   UNL     1     141.815  75.963 221.915 -0.47 -0.11    +0.193 HD 
DOCKED: BRANCH  26  28
DOCKED: ATOM     28  N   UNL     1     142.624  75.424 219.315 -0.17 +0.08    -0.183 NA 
DOCKED: BRANCH  28  29
DOCKED: ATOM     29  C   UNL     1     142.550  76.855 219.307 -0.23 -0.16    +0.255 C  
DOCKED: ATOM     30  O   UNL     1     142.171  77.504 220.315 -0.23 +0.19    -0.272 OA 
DOCKED: BRANCH  29  31
DOCKED: ATOM     31  C   UNL     1     142.942  77.558 218.062 -0.25 -0.09    +0.123 C  
DOCKED: ATOM     32  C   UNL     1     142.390  78.970 218.051 -0.21 -0.20    +0.243 C  
DOCKED: ATOM     33  C   UNL     1     142.398  76.802 216.872 -0.17 -0.03    +0.056 C  
DOCKED: ATOM     34  O   UNL     1     140.987  78.860 218.284 -0.01 +0.24    -0.492 OA 
DOCKED: ATOM     35  C   UNL     1     140.935  77.001 216.806 -0.06 +0.00    -0.005 A  
DOCKED: ATOM     36  C   UNL     1     140.255  77.988 217.481 -0.03 -0.05    +0.122 A  
DOCKED: ATOM     37  C   UNL     1     140.185  76.138 216.007 -0.02 -0.00    +0.007 A  
DOCKED: ATOM     38  C   UNL     1     138.889  78.163 217.409 -0.01 -0.01    +0.047 A  
DOCKED: ATOM     39  C   UNL     1     138.802  76.274 215.901 -0.00 -0.00    +0.001 A  
DOCKED: ATOM     40  C   UNL     1     138.177  77.300 216.616 -0.00 -0.00    +0.004 A  
DOCKED: ENDBRANCH  29  31
DOCKED: ENDBRANCH  28  29
DOCKED: ENDBRANCH  26  28
DOCKED: ENDBRANCH  21  22
DOCKED: ENDBRANCH  20  21
DOCKED: ENDBRANCH  19  20
DOCKED: ENDBRANCH  18  19
DOCKED: ENDBRANCH   4  18
DOCKED: TORSDOF 14
DOCKED: TER
DOCKED: ENDMDL
________________________________________________________________________________


    FINAL DOCKED STATE:
    ________________________


Run:   15 / 20
Time taken for this run:   0.086s

DOCKED: MODEL        15
DOCKED: USER    Run = 15
DOCKED: USER
DOCKED: USER    Estimated Free Energy of Binding    =  -2.99 kcal/mol  [=(1)+(2)+(3)-(4)]
DOCKED: USER
DOCKED: USER    (1) Final Intermolecular Energy     =  -7.17 kcal/mol
DOCKED: USER        vdW + Hbond + desolv Energy     =  -7.06 kcal/mol
DOCKED: USER        Electrostatic Energy            =  -0.11 kcal/mol
DOCKED: USER        Moving Ligand-Fixed Receptor    =  -7.17 kcal/mol
DOCKED: USER        Moving Ligand-Moving Receptor   =  +0.00 kcal/mol
DOCKED: USER    (2) Final Total Internal Energy     =  -8.47 kcal/mol
DOCKED: USER    (3) Torsional Free Energy           =  +4.18 kcal/mol
DOCKED: USER    (4) Unbound System's Energy         =  -8.47 kcal/mol
DOCKED: USER
DOCKED: USER
DOCKED: REMARK SMILES C[C@@H](C(=O)/N=c1/[nH]nc(CCCCc2n[nH]/c(=N\C(=O)[C@@H]3COc4ccccc4C3)s2)s1)C(C)(C)CO
DOCKED: REMARK SMILES IDX 6 1 7 2 8 3 9 4 32 5 5 7 3 8 4 9 2 10 1 11 33 12 34 13 35 14
DOCKED: REMARK SMILES IDX 36 15 37 16 10 18 11 19 12 20 13 21 14 22 15 23 31 24 16 25
DOCKED: REMARK SMILES IDX 17 26 18 28 19 29 20 30 21 31 22 32 30 33 23 34 29 35 24 36
DOCKED: REMARK SMILES IDX 28 37 25 38 27 39 26 40
DOCKED: REMARK H PARENT 7 6 37 17 16 27
DOCKED: USER                              x       y       z     vdW  Elec       q    Type
DOCKED: USER                           _______ _______ _______ _____ _____    ______ ____
DOCKED: ROOT
DOCKED: ATOM      1  C   UNL     1     138.961  77.422 220.966 -0.09 -0.05    +0.208 A  
DOCKED: ATOM      2  N   UNL     1     139.641  76.709 220.098 -0.03 +0.07    -0.251 N  
DOCKED: ATOM      3  N   UNL     1     139.224  75.512 219.889 -0.04 +0.04    -0.167 NA 
DOCKED: ATOM      4  C   UNL     1     138.345  74.909 220.321 -0.06 -0.02    +0.116 A  
DOCKED: ATOM      5  S   UNL     1     137.642  76.275 221.503 -0.19 +0.02    -0.080 S  
DOCKED: ATOM      6  H   UNL     1     140.500  77.109 219.591 +0.06 -0.07    +0.193 HD 
DOCKED: ENDROOT
DOCKED: BRANCH   1   7
DOCKED: ATOM      7  N   UNL     1     139.078  78.622 221.415 -0.09 +0.04    -0.184 NA 
DOCKED: BRANCH   7   8
DOCKED: ATOM      8  C   UNL     1     140.127  79.473 220.976 -0.11 -0.07    +0.251 C  
DOCKED: ATOM      9  O   UNL     1     140.580  79.225 219.806 -0.07 +0.10    -0.272 OA 
DOCKED: BRANCH   8  10
DOCKED: ATOM     10  C   UNL     1     140.695  80.578 221.767 -0.30 -0.02    +0.086 C  
DOCKED: ATOM     11  C   UNL     1     141.795  81.338 221.052 -0.32 -0.01    +0.019 C  
DOCKED: BRANCH  10  12
DOCKED: ATOM     12  C   UNL     1     141.235  80.127 223.099 -0.54 +0.00    -0.001 C  
DOCKED: ATOM     13  C   UNL     1     141.968  81.319 223.690 -0.59 -0.00    +0.014 C  
DOCKED: ATOM     14  C   UNL     1     140.095  79.686 223.957 -0.35 -0.00    +0.014 C  
DOCKED: BRANCH  12  15
DOCKED: ATOM     15  C   UNL     1     142.230  79.017 222.870 -0.42 -0.08    +0.163 C  
DOCKED: BRANCH  15  16
DOCKED: ATOM     16  O   UNL     1     141.458  77.846 222.707 -0.24 +0.19    -0.396 OA 
DOCKED: ATOM     17  H   UNL     1     141.087  77.796 221.796 +0.08 -0.09    +0.210 HD 
DOCKED: ENDBRANCH  15  16
DOCKED: ENDBRANCH  12  15
DOCKED: ENDBRANCH  10  12
DOCKED: ENDBRANCH   8  10
DOCKED: ENDBRANCH   7   8
DOCKED: ENDBRANCH   1   7
DOCKED: BRANCH   4  18
DOCKED: ATOM     18  C   UNL     1     137.529  73.666 220.365 -0.05 -0.01    +0.070 C  
DOCKED: BRANCH  18  19
DOCKED: ATOM     19  C   UNL     1     138.204  72.366 220.440 -0.07 -0.00    +0.008 C  
DOCKED: BRANCH  19  20
DOCKED: ATOM     20  C   UNL     1     138.499  71.821 221.761 -0.15 -0.00    +0.008 C  
DOCKED: BRANCH  20  21
DOCKED: ATOM     21  C   UNL     1     139.664  72.267 222.553 -0.27 -0.01    +0.070 C  
DOCKED: BRANCH  21  22
DOCKED: ATOM     22  C   UNL     1     140.507  73.300 221.966 -0.26 -0.01    +0.116 A  
DOCKED: ATOM     23  N   UNL     1     140.820  74.431 222.241 -0.49 -0.01    -0.167 NA 
DOCKED: ATOM     24  S   UNL     1     141.501  73.072 220.401 -0.23 +0.01    -0.080 S  
DOCKED: ATOM     25  N   UNL     1     141.610  75.240 221.632 -0.14 +0.08    -0.251 N  
DOCKED: ATOM     26  C   UNL     1     142.194  74.817 220.527 -0.21 -0.07    +0.208 A  
DOCKED: ATOM     27  H   UNL     1     141.799  76.236 221.997 -0.49 -0.12    +0.193 HD 
DOCKED: BRANCH  26  28
DOCKED: ATOM     28  N   UNL     1     142.991  75.274 219.683 -0.23 +0.09    -0.183 NA 
DOCKED: BRANCH  28  29
DOCKED: ATOM     29  C   UNL     1     142.916  76.674 219.386 -0.25 -0.17    +0.255 C  
DOCKED: ATOM     30  O   UNL     1     142.542  77.513 220.244 -0.22 +0.22    -0.272 OA 
DOCKED: BRANCH  29  31
DOCKED: ATOM     31  C   UNL     1     143.297  77.111 218.021 -0.16 -0.09    +0.123 C  
DOCKED: ATOM     32  C   UNL     1     142.352  78.186 217.523 -0.19 -0.19    +0.243 C  
DOCKED: ATOM     33  C   UNL     1     143.240  75.925 217.086 -0.20 -0.03    +0.056 C  
DOCKED: ATOM     34  O   UNL     1     141.033  77.663 217.658 -0.00 +0.23    -0.492 OA 
DOCKED: ATOM     35  C   UNL     1     141.825  75.580 216.837 -0.07 +0.00    -0.005 A  
DOCKED: ATOM     36  C   UNL     1     140.763  76.412 217.109 -0.03 -0.04    +0.122 A  
DOCKED: ATOM     37  C   UNL     1     141.534  74.331 216.287 -0.02 -0.00    +0.007 A  
DOCKED: ATOM     38  C   UNL     1     139.447  76.076 216.870 -0.01 -0.01    +0.047 A  
DOCKED: ATOM     39  C   UNL     1     140.221  73.946 216.027 -0.01 -0.00    +0.001 A  
DOCKED: ATOM     40  C   UNL     1     139.192  74.842 216.330 -0.00 -0.00    +0.004 A  
DOCKED: ENDBRANCH  29  31
DOCKED: ENDBRANCH  28  29
DOCKED: ENDBRANCH  26  28
DOCKED: ENDBRANCH  21  22
DOCKED: ENDBRANCH  20  21
DOCKED: ENDBRANCH  19  20
DOCKED: ENDBRANCH  18  19
DOCKED: ENDBRANCH   4  18
DOCKED: TORSDOF 14
DOCKED: TER
DOCKED: ENDMDL
________________________________________________________________________________


    FINAL DOCKED STATE:
    ________________________


Run:   16 / 20
Time taken for this run:   0.086s

DOCKED: MODEL        16
DOCKED: USER    Run = 16
DOCKED: USER
DOCKED: USER    Estimated Free Energy of Binding    =  -5.10 kcal/mol  [=(1)+(2)+(3)-(4)]
DOCKED: USER
DOCKED: USER    (1) Final Intermolecular Energy     =  -9.28 kcal/mol
DOCKED: USER        vdW + Hbond + desolv Energy     =  -8.99 kcal/mol
DOCKED: USER        Electrostatic Energy            =  -0.29 kcal/mol
DOCKED: USER        Moving Ligand-Fixed Receptor    =  -9.28 kcal/mol
DOCKED: USER        Moving Ligand-Moving Receptor   =  +0.00 kcal/mol
DOCKED: USER    (2) Final Total Internal Energy     =  -6.13 kcal/mol
DOCKED: USER    (3) Torsional Free Energy           =  +4.18 kcal/mol
DOCKED: USER    (4) Unbound System's Energy         =  -6.13 kcal/mol
DOCKED: USER
DOCKED: USER
DOCKED: REMARK SMILES C[C@@H](C(=O)/N=c1/[nH]nc(CCCCc2n[nH]/c(=N\C(=O)[C@@H]3COc4ccccc4C3)s2)s1)C(C)(C)CO
DOCKED: REMARK SMILES IDX 6 1 7 2 8 3 9 4 32 5 5 7 3 8 4 9 2 10 1 11 33 12 34 13 35 14
DOCKED: REMARK SMILES IDX 36 15 37 16 10 18 11 19 12 20 13 21 14 22 15 23 31 24 16 25
DOCKED: REMARK SMILES IDX 17 26 18 28 19 29 20 30 21 31 22 32 30 33 23 34 29 35 24 36
DOCKED: REMARK SMILES IDX 28 37 25 38 27 39 26 40
DOCKED: REMARK H PARENT 7 6 37 17 16 27
DOCKED: USER                              x       y       z     vdW  Elec       q    Type
DOCKED: USER                           _______ _______ _______ _____ _____    ______ ____
DOCKED: ROOT
DOCKED: ATOM      1  C   UNL     1     140.557  75.669 221.971 -0.27 -0.04    +0.208 A  
DOCKED: ATOM      2  N   UNL     1     140.201  76.856 222.403 -0.25 +0.06    -0.251 N  
DOCKED: ATOM      3  N   UNL     1     138.955  77.020 222.666 -0.23 +0.03    -0.167 NA 
DOCKED: ATOM      4  C   UNL     1     138.048  76.317 222.599 -0.26 -0.03    +0.116 A  
DOCKED: ATOM      5  S   UNL     1     138.978  74.746 221.950 -0.29 +0.02    -0.080 S  
DOCKED: ATOM      6  H   UNL     1     140.918  77.647 222.529 +0.06 -0.07    +0.193 HD 
DOCKED: ENDROOT
DOCKED: BRANCH   1   7
DOCKED: ATOM      7  N   UNL     1     141.681  75.151 221.619 -0.21 +0.06    -0.184 NA 
DOCKED: BRANCH   7   8
DOCKED: ATOM      8  C   UNL     1     142.066  75.087 220.254 -0.18 -0.09    +0.251 C  
DOCKED: ATOM      9  O   UNL     1     141.105  74.957 219.420 -0.05 +0.08    -0.272 OA 
DOCKED: BRANCH   8  10
DOCKED: ATOM     10  C   UNL     1     143.456  75.160 219.772 -0.35 -0.04    +0.086 C  
DOCKED: ATOM     11  C   UNL     1     143.581  75.646 218.341 -0.21 -0.01    +0.019 C  
DOCKED: BRANCH  10  12
DOCKED: ATOM     12  C   UNL     1     144.182  73.846 219.880 -0.40 +0.00    -0.001 C  
DOCKED: ATOM     13  C   UNL     1     145.395  74.097 220.759 -0.57 -0.00    +0.014 C  
DOCKED: ATOM     14  C   UNL     1     143.259  72.831 220.471 -0.31 -0.00    +0.014 C  
DOCKED: BRANCH  12  15
DOCKED: ATOM     15  C   UNL     1     144.660  73.439 218.508 -0.16 -0.01    +0.163 C  
DOCKED: BRANCH  15  16
DOCKED: ATOM     16  O   UNL     1     146.054  73.248 218.635 -0.70 -0.26    -0.396 OA 
DOCKED: ATOM     17  H   UNL     1     146.531  74.107 218.578 -0.48 +0.00    +0.210 HD 
DOCKED: ENDBRANCH  15  16
DOCKED: ENDBRANCH  12  15
DOCKED: ENDBRANCH  10  12
DOCKED: ENDBRANCH   8  10
DOCKED: ENDBRANCH   7   8
DOCKED: ENDBRANCH   1   7
DOCKED: BRANCH   4  18
DOCKED: ATOM     18  C   UNL     1     136.596  76.056 222.799 -0.23 -0.02    +0.070 C  
DOCKED: BRANCH  18  19
DOCKED: ATOM     19  C   UNL     1     135.745  75.802 221.631 -0.09 -0.00    +0.008 C  
DOCKED: BRANCH  19  20
DOCKED: ATOM     20  C   UNL     1     135.233  76.950 220.892 -0.04 -0.00    +0.008 C  
DOCKED: BRANCH  20  21
DOCKED: ATOM     21  C   UNL     1     135.875  77.437 219.653 -0.01 -0.01    +0.070 C  
DOCKED: BRANCH  21  22
DOCKED: ATOM     22  C   UNL     1     137.299  77.741 219.721 -0.02 -0.02    +0.116 A  
DOCKED: ATOM     23  N   UNL     1     138.328  77.117 219.660 -0.02 +0.04    -0.167 NA 
DOCKED: ATOM     24  S   UNL     1     137.990  79.465 219.917 -0.04 +0.02    -0.080 S  
DOCKED: ATOM     25  N   UNL     1     139.545  77.524 219.714 -0.02 +0.07    -0.251 N  
DOCKED: ATOM     26  C   UNL     1     139.756  78.818 219.858 -0.05 -0.06    +0.208 A  
DOCKED: ATOM     27  H   UNL     1     140.377  76.844 219.645 +0.05 -0.07    +0.193 HD 
DOCKED: BRANCH  26  28
DOCKED: ATOM     28  N   UNL     1     140.741  79.578 219.949 -0.11 +0.07    -0.183 NA 
DOCKED: BRANCH  28  29
DOCKED: ATOM     29  C   UNL     1     141.805  79.187 220.826 -0.19 -0.14    +0.255 C  
DOCKED: ATOM     30  O   UNL     1     142.240  78.008 220.855 -0.20 +0.21    -0.272 OA 
DOCKED: BRANCH  29  31
DOCKED: ATOM     31  C   UNL     1     142.387  80.227 221.709 -0.30 -0.05    +0.123 C  
DOCKED: ATOM     32  C   UNL     1     142.560  79.693 223.118 -0.45 -0.09    +0.243 C  
DOCKED: ATOM     33  C   UNL     1     141.468  81.425 221.739 -0.40 -0.01    +0.056 C  
DOCKED: ATOM     34  O   UNL     1     141.289  79.184 223.518 -0.19 +0.13    -0.492 OA 
DOCKED: ATOM     35  C   UNL     1     140.267  81.087 222.532 -0.35 +0.00    -0.005 A  
DOCKED: ATOM     36  C   UNL     1     140.178  80.013 223.387 -0.37 -0.02    +0.122 A  
DOCKED: ATOM     37  C   UNL     1     139.144  81.907 222.415 -0.19 -0.00    +0.007 A  
DOCKED: ATOM     38  C   UNL     1     139.051  79.711 224.122 -0.32 -0.01    +0.047 A  
DOCKED: ATOM     39  C   UNL     1     137.982  81.643 223.137 -0.24 -0.00    +0.001 A  
DOCKED: ATOM     40  C   UNL     1     137.963  80.534 223.986 -0.37 -0.00    +0.004 A  
DOCKED: ENDBRANCH  29  31
DOCKED: ENDBRANCH  28  29
DOCKED: ENDBRANCH  26  28
DOCKED: ENDBRANCH  21  22
DOCKED: ENDBRANCH  20  21
DOCKED: ENDBRANCH  19  20
DOCKED: ENDBRANCH  18  19
DOCKED: ENDBRANCH   4  18
DOCKED: TORSDOF 14
DOCKED: TER
DOCKED: ENDMDL
________________________________________________________________________________


    FINAL DOCKED STATE:
    ________________________


Run:   17 / 20
Time taken for this run:   0.086s

DOCKED: MODEL        17
DOCKED: USER    Run = 17
DOCKED: USER
DOCKED: USER    Estimated Free Energy of Binding    =  -4.28 kcal/mol  [=(1)+(2)+(3)-(4)]
DOCKED: USER
DOCKED: USER    (1) Final Intermolecular Energy     =  -8.46 kcal/mol
DOCKED: USER        vdW + Hbond + desolv Energy     =  -8.34 kcal/mol
DOCKED: USER        Electrostatic Energy            =  -0.12 kcal/mol
DOCKED: USER        Moving Ligand-Fixed Receptor    =  -8.46 kcal/mol
DOCKED: USER        Moving Ligand-Moving Receptor   =  +0.00 kcal/mol
DOCKED: USER    (2) Final Total Internal Energy     =  -5.39 kcal/mol
DOCKED: USER    (3) Torsional Free Energy           =  +4.18 kcal/mol
DOCKED: USER    (4) Unbound System's Energy         =  -5.39 kcal/mol
DOCKED: USER
DOCKED: USER
DOCKED: REMARK SMILES C[C@@H](C(=O)/N=c1/[nH]nc(CCCCc2n[nH]/c(=N\C(=O)[C@@H]3COc4ccccc4C3)s2)s1)C(C)(C)CO
DOCKED: REMARK SMILES IDX 6 1 7 2 8 3 9 4 32 5 5 7 3 8 4 9 2 10 1 11 33 12 34 13 35 14
DOCKED: REMARK SMILES IDX 36 15 37 16 10 18 11 19 12 20 13 21 14 22 15 23 31 24 16 25
DOCKED: REMARK SMILES IDX 17 26 18 28 19 29 20 30 21 31 22 32 30 33 23 34 29 35 24 36
DOCKED: REMARK SMILES IDX 28 37 25 38 27 39 26 40
DOCKED: REMARK H PARENT 7 6 37 17 16 27
DOCKED: USER                              x       y       z     vdW  Elec       q    Type
DOCKED: USER                           _______ _______ _______ _____ _____    ______ ____
DOCKED: ROOT
DOCKED: ATOM      1  C   UNL     1     139.969  72.105 222.225 -0.22 -0.03    +0.208 A  
DOCKED: ATOM      2  N   UNL     1     139.802  73.389 222.445 -0.12 +0.03    -0.251 N  
DOCKED: ATOM      3  N   UNL     1     140.695  74.174 221.961 -0.75 +0.00    -0.167 NA 
DOCKED: ATOM      4  C   UNL     1     141.650  73.981 221.350 -0.13 -0.02    +0.116 A  
DOCKED: ATOM      5  S   UNL     1     141.519  72.049 221.257 -0.27 +0.01    -0.080 S  
DOCKED: ATOM      6  H   UNL     1     138.960  73.759 223.002 -0.53 -0.10    +0.193 HD 
DOCKED: ENDROOT
DOCKED: BRANCH   1   7
DOCKED: ATOM      7  N   UNL     1     139.299  71.054 222.547 -0.15 +0.03    -0.184 NA 
DOCKED: BRANCH   7   8
DOCKED: ATOM      8  C   UNL     1     137.888  71.006 222.394 -0.09 -0.05    +0.251 C  
DOCKED: ATOM      9  O   UNL     1     137.238  70.636 223.432 -0.11 +0.05    -0.272 OA 
DOCKED: BRANCH   8  10
DOCKED: ATOM     10  C   UNL     1     137.168  71.348 221.156 -0.05 -0.02    +0.086 C  
DOCKED: ATOM     11  C   UNL     1     137.978  71.114 219.895 -0.03 -0.00    +0.019 C  
DOCKED: BRANCH  10  12
DOCKED: ATOM     12  C   UNL     1     136.682  72.772 221.135 -0.07 +0.00    -0.001 C  
DOCKED: ATOM     13  C   UNL     1     135.332  72.754 220.438 -0.02 -0.00    +0.014 C  
DOCKED: ATOM     14  C   UNL     1     136.582  73.268 222.541 -0.14 -0.00    +0.014 C  
DOCKED: BRANCH  12  15
DOCKED: ATOM     15  C   UNL     1     137.636  73.601 220.312 -0.04 -0.03    +0.163 C  
DOCKED: BRANCH  15  16
DOCKED: ATOM     16  O   UNL     1     138.062  74.644 221.165 -0.06 +0.09    -0.396 OA 
DOCKED: ATOM     17  H   UNL     1     138.958  74.960 220.909 +0.05 -0.05    +0.210 HD 
DOCKED: ENDBRANCH  15  16
DOCKED: ENDBRANCH  12  15
DOCKED: ENDBRANCH  10  12
DOCKED: ENDBRANCH   8  10
DOCKED: ENDBRANCH   7   8
DOCKED: ENDBRANCH   1   7
DOCKED: BRANCH   4  18
DOCKED: ATOM     18  C   UNL     1     142.840  74.490 220.616 -0.26 -0.02    +0.070 C  
DOCKED: BRANCH  18  19
DOCKED: ATOM     19  C   UNL     1     142.675  75.012 219.254 -0.26 -0.00    +0.008 C  
DOCKED: BRANCH  19  20
DOCKED: ATOM     20  C   UNL     1     142.992  76.415 219.015 -0.35 -0.00    +0.008 C  
DOCKED: BRANCH  20  21
DOCKED: ATOM     21  C   UNL     1     141.948  77.460 218.970 -0.24 -0.04    +0.070 C  
DOCKED: BRANCH  21  22
DOCKED: ATOM     22  C   UNL     1     140.905  77.397 219.985 -0.16 -0.05    +0.116 A  
DOCKED: ATOM     23  N   UNL     1     140.536  76.599 220.808 -0.15 +0.06    -0.167 NA 
DOCKED: ATOM     24  S   UNL     1     139.707  78.787 220.338 -0.14 +0.02    -0.080 S  
DOCKED: ATOM     25  N   UNL     1     139.592  76.684 221.676 -0.16 +0.06    -0.251 N  
DOCKED: ATOM     26  C   UNL     1     138.886  77.798 221.712 -0.14 -0.05    +0.208 A  
DOCKED: ATOM     27  H   UNL     1     139.371  75.880 222.358 +0.03 -0.04    +0.193 HD 
DOCKED: BRANCH  26  28
DOCKED: ATOM     28  N   UNL     1     137.932  78.253 222.374 -0.14 +0.03    -0.183 NA 
DOCKED: BRANCH  28  29
DOCKED: ATOM     29  C   UNL     1     137.598  79.636 222.198 -0.10 -0.04    +0.255 C  
DOCKED: ATOM     30  O   UNL     1     137.149  80.074 221.108 -0.03 +0.05    -0.272 OA 
DOCKED: BRANCH  29  31
DOCKED: ATOM     31  C   UNL     1     137.798  80.546 223.351 -0.25 -0.02    +0.123 C  
DOCKED: ATOM     32  C   UNL     1     138.180  81.934 222.875 -0.08 -0.02    +0.243 C  
DOCKED: ATOM     33  C   UNL     1     138.899  80.000 224.230 -0.29 -0.01    +0.056 C  
DOCKED: ATOM     34  O   UNL     1     139.304  81.773 222.013 -0.05 +0.07    -0.492 OA 
DOCKED: ATOM     35  C   UNL     1     140.196  80.195 223.548 -0.45 +0.00    -0.005 A  
DOCKED: ATOM     36  C   UNL     1     140.394  81.046 222.485 -0.30 -0.02    +0.122 A  
DOCKED: ATOM     37  C   UNL     1     141.300  79.476 224.007 -0.52 -0.00    +0.007 A  
DOCKED: ATOM     38  C   UNL     1     141.611  81.218 221.859 -0.42 -0.01    +0.047 A  
DOCKED: ATOM     39  C   UNL     1     142.550  79.616 223.408 -0.62 -0.00    +0.001 A  
DOCKED: ATOM     40  C   UNL     1     142.678  80.497 222.331 -0.55 -0.00    +0.004 A  
DOCKED: ENDBRANCH  29  31
DOCKED: ENDBRANCH  28  29
DOCKED: ENDBRANCH  26  28
DOCKED: ENDBRANCH  21  22
DOCKED: ENDBRANCH  20  21
DOCKED: ENDBRANCH  19  20
DOCKED: ENDBRANCH  18  19
DOCKED: ENDBRANCH   4  18
DOCKED: TORSDOF 14
DOCKED: TER
DOCKED: ENDMDL
________________________________________________________________________________


    FINAL DOCKED STATE:
    ________________________


Run:   18 / 20
Time taken for this run:   0.086s

DOCKED: MODEL        18
DOCKED: USER    Run = 18
DOCKED: USER
DOCKED: USER    Estimated Free Energy of Binding    =  -4.62 kcal/mol  [=(1)+(2)+(3)-(4)]
DOCKED: USER
DOCKED: USER    (1) Final Intermolecular Energy     =  -8.79 kcal/mol
DOCKED: USER        vdW + Hbond + desolv Energy     =  -8.70 kcal/mol
DOCKED: USER        Electrostatic Energy            =  -0.10 kcal/mol
DOCKED: USER        Moving Ligand-Fixed Receptor    =  -8.79 kcal/mol
DOCKED: USER        Moving Ligand-Moving Receptor   =  +0.00 kcal/mol
DOCKED: USER    (2) Final Total Internal Energy     =  -6.18 kcal/mol
DOCKED: USER    (3) Torsional Free Energy           =  +4.18 kcal/mol
DOCKED: USER    (4) Unbound System's Energy         =  -6.18 kcal/mol
DOCKED: USER
DOCKED: USER
DOCKED: REMARK SMILES C[C@@H](C(=O)/N=c1/[nH]nc(CCCCc2n[nH]/c(=N\C(=O)[C@@H]3COc4ccccc4C3)s2)s1)C(C)(C)CO
DOCKED: REMARK SMILES IDX 6 1 7 2 8 3 9 4 32 5 5 7 3 8 4 9 2 10 1 11 33 12 34 13 35 14
DOCKED: REMARK SMILES IDX 36 15 37 16 10 18 11 19 12 20 13 21 14 22 15 23 31 24 16 25
DOCKED: REMARK SMILES IDX 17 26 18 28 19 29 20 30 21 31 22 32 30 33 23 34 29 35 24 36
DOCKED: REMARK SMILES IDX 28 37 25 38 27 39 26 40
DOCKED: REMARK H PARENT 7 6 37 17 16 27
DOCKED: USER                              x       y       z     vdW  Elec       q    Type
DOCKED: USER                           _______ _______ _______ _____ _____    ______ ____
DOCKED: ROOT
DOCKED: ATOM      1  C   UNL     1     141.674  78.658 218.196 -0.16 -0.13    +0.208 A  
DOCKED: ATOM      2  N   UNL     1     142.563  79.612 218.043 -0.22 +0.23    -0.251 N  
DOCKED: ATOM      3  N   UNL     1     142.336  80.712 218.665 -0.24 +0.11    -0.167 NA 
DOCKED: ATOM      4  C   UNL     1     141.481  81.052 219.355 -0.23 -0.05    +0.116 A  
DOCKED: ATOM      5  S   UNL     1     140.439  79.419 219.311 -0.16 +0.03    -0.080 S  
DOCKED: ATOM      6  H   UNL     1     143.435  79.475 217.430 -0.51 -0.34    +0.193 HD 
DOCKED: ENDROOT
DOCKED: BRANCH   1   7
DOCKED: ATOM      7  N   UNL     1     141.571  77.458 217.743 -0.08 +0.10    -0.184 NA 
DOCKED: BRANCH   7   8
DOCKED: ATOM      8  C   UNL     1     142.721  76.706 217.387 -0.16 -0.15    +0.251 C  
DOCKED: ATOM      9  O   UNL     1     143.664  77.373 216.838 -0.18 +0.26    -0.272 OA 
DOCKED: BRANCH   8  10
DOCKED: ATOM     10  C   UNL     1     142.875  75.258 217.609 -0.14 -0.04    +0.086 C  
DOCKED: ATOM     11  C   UNL     1     141.624  74.457 217.304 -0.04 -0.01    +0.019 C  
DOCKED: BRANCH  10  12
DOCKED: ATOM     12  C   UNL     1     143.308  74.924 219.011 -0.29 +0.00    -0.001 C  
DOCKED: ATOM     13  C   UNL     1     142.092  74.334 219.706 -0.20 -0.00    +0.014 C  
DOCKED: ATOM     14  C   UNL     1     144.444  73.955 218.948 -0.23 -0.00    +0.014 C  
DOCKED: BRANCH  12  15
DOCKED: ATOM     15  C   UNL     1     143.693  76.199 219.719 -0.27 -0.12    +0.163 C  
DOCKED: BRANCH  15  16
DOCKED: ATOM     16  O   UNL     1     142.517  76.643 220.363 -0.12 +0.28    -0.396 OA 
DOCKED: ATOM     17  H   UNL     1     142.736  77.184 221.156 -0.41 -0.24    +0.210 HD 
DOCKED: ENDBRANCH  15  16
DOCKED: ENDBRANCH  12  15
DOCKED: ENDBRANCH  10  12
DOCKED: ENDBRANCH   8  10
DOCKED: ENDBRANCH   7   8
DOCKED: ENDBRANCH   1   7
DOCKED: BRANCH   4  18
DOCKED: ATOM     18  C   UNL     1     140.862  82.079 220.236 -0.24 -0.02    +0.070 C  
DOCKED: BRANCH  18  19
DOCKED: ATOM     19  C   UNL     1     141.447  82.340 221.556 -0.36 -0.00    +0.008 C  
DOCKED: BRANCH  19  20
DOCKED: ATOM     20  C   UNL     1     142.192  81.264 222.200 -0.43 -0.00    +0.008 C  
DOCKED: BRANCH  20  21
DOCKED: ATOM     21  C   UNL     1     141.634  80.485 223.324 -0.54 -0.01    +0.070 C  
DOCKED: BRANCH  21  22
DOCKED: ATOM     22  C   UNL     1     141.144  79.146 223.023 -0.43 -0.03    +0.116 A  
DOCKED: ATOM     23  N   UNL     1     141.633  78.081 222.742 -0.26 +0.08    -0.167 NA 
DOCKED: ATOM     24  S   UNL     1     139.338  78.667 223.034 -0.39 +0.01    -0.080 S  
DOCKED: ATOM     25  N   UNL     1     141.071  76.948 222.517 -0.27 +0.10    -0.251 N  
DOCKED: ATOM     26  C   UNL     1     139.756  76.887 222.592 -0.19 -0.04    +0.208 A  
DOCKED: ATOM     27  H   UNL     1     141.642  76.067 222.273 -0.37 -0.09    +0.193 HD 
DOCKED: BRANCH  26  28
DOCKED: ATOM     28  N   UNL     1     138.872  76.016 222.451 -0.26 +0.04    -0.183 NA 
DOCKED: BRANCH  28  29
DOCKED: ATOM     29  C   UNL     1     139.273  74.737 221.945 -0.18 -0.05    +0.255 C  
DOCKED: ATOM     30  O   UNL     1     140.433  74.287 222.127 -0.79 -0.00    -0.272 OA 
DOCKED: BRANCH  29  31
DOCKED: ATOM     31  C   UNL     1     138.269  73.948 221.193 -0.12 -0.03    +0.123 C  
DOCKED: ATOM     32  C   UNL     1     138.818  73.536 219.841 -0.03 -0.05    +0.243 C  
DOCKED: ATOM     33  C   UNL     1     137.027  74.785 220.991 -0.09 -0.01    +0.056 C  
DOCKED: ATOM     34  O   UNL     1     139.268  74.729 219.205 +0.01 +0.11    -0.492 OA 
DOCKED: ATOM     35  C   UNL     1     137.312  75.827 219.983 -0.04 +0.00    -0.005 A  
DOCKED: ATOM     36  C   UNL     1     138.386  75.804 219.123 -0.02 -0.03    +0.122 A  
DOCKED: ATOM     37  C   UNL     1     136.438  76.911 219.886 -0.02 -0.00    +0.007 A  
DOCKED: ATOM     38  C   UNL     1     138.638  76.784 218.186 -0.01 -0.01    +0.047 A  
DOCKED: ATOM     39  C   UNL     1     136.651  77.926 218.956 -0.01 -0.00    +0.001 A  
DOCKED: ATOM     40  C   UNL     1     137.763  77.837 218.115 -0.00 -0.00    +0.004 A  
DOCKED: ENDBRANCH  29  31
DOCKED: ENDBRANCH  28  29
DOCKED: ENDBRANCH  26  28
DOCKED: ENDBRANCH  21  22
DOCKED: ENDBRANCH  20  21
DOCKED: ENDBRANCH  19  20
DOCKED: ENDBRANCH  18  19
DOCKED: ENDBRANCH   4  18
DOCKED: TORSDOF 14
DOCKED: TER
DOCKED: ENDMDL
________________________________________________________________________________


    FINAL DOCKED STATE:
    ________________________


Run:   19 / 20
Time taken for this run:   0.086s

DOCKED: MODEL        19
DOCKED: USER    Run = 19
DOCKED: USER
DOCKED: USER    Estimated Free Energy of Binding    =  -4.65 kcal/mol  [=(1)+(2)+(3)-(4)]
DOCKED: USER
DOCKED: USER    (1) Final Intermolecular Energy     =  -8.82 kcal/mol
DOCKED: USER        vdW + Hbond + desolv Energy     =  -8.76 kcal/mol
DOCKED: USER        Electrostatic Energy            =  -0.07 kcal/mol
DOCKED: USER        Moving Ligand-Fixed Receptor    =  -8.82 kcal/mol
DOCKED: USER        Moving Ligand-Moving Receptor   =  +0.00 kcal/mol
DOCKED: USER    (2) Final Total Internal Energy     =  -7.20 kcal/mol
DOCKED: USER    (3) Torsional Free Energy           =  +4.18 kcal/mol
DOCKED: USER    (4) Unbound System's Energy         =  -7.20 kcal/mol
DOCKED: USER
DOCKED: USER
DOCKED: REMARK SMILES C[C@@H](C(=O)/N=c1/[nH]nc(CCCCc2n[nH]/c(=N\C(=O)[C@@H]3COc4ccccc4C3)s2)s1)C(C)(C)CO
DOCKED: REMARK SMILES IDX 6 1 7 2 8 3 9 4 32 5 5 7 3 8 4 9 2 10 1 11 33 12 34 13 35 14
DOCKED: REMARK SMILES IDX 36 15 37 16 10 18 11 19 12 20 13 21 14 22 15 23 31 24 16 25
DOCKED: REMARK SMILES IDX 17 26 18 28 19 29 20 30 21 31 22 32 30 33 23 34 29 35 24 36
DOCKED: REMARK SMILES IDX 28 37 25 38 27 39 26 40
DOCKED: REMARK H PARENT 7 6 37 17 16 27
DOCKED: USER                              x       y       z     vdW  Elec       q    Type
DOCKED: USER                           _______ _______ _______ _____ _____    ______ ____
DOCKED: ROOT
DOCKED: ATOM      1  C   UNL     1     143.459  76.125 218.739 -0.22 -0.13    +0.208 A  
DOCKED: ATOM      2  N   UNL     1     143.853  76.166 219.991 -0.21 +0.19    -0.251 N  
DOCKED: ATOM      3  N   UNL     1     144.459  75.125 220.435 -0.28 +0.09    -0.167 NA 
DOCKED: ATOM      4  C   UNL     1     144.741  74.122 219.946 -0.37 -0.04    +0.116 A  
DOCKED: ATOM      5  S   UNL     1     144.009  74.470 218.186 -0.19 +0.03    -0.080 S  
DOCKED: ATOM      6  H   UNL     1     143.675  77.028 220.608 -0.42 -0.23    +0.193 HD 
DOCKED: ENDROOT
DOCKED: BRANCH   1   7
DOCKED: ATOM      7  N   UNL     1     142.841  76.955 217.974 -0.21 +0.12    -0.184 NA 
DOCKED: BRANCH   7   8
DOCKED: ATOM      8  C   UNL     1     142.413  78.220 218.456 -0.20 -0.18    +0.251 C  
DOCKED: ATOM      9  O   UNL     1     141.968  78.227 219.654 -0.19 +0.17    -0.272 OA 
DOCKED: BRANCH   8  10
DOCKED: ATOM     10  C   UNL     1     142.455  79.469 217.677 -0.25 -0.08    +0.086 C  
DOCKED: ATOM     11  C   UNL     1     142.282  80.719 218.518 -0.31 -0.01    +0.019 C  
DOCKED: BRANCH  10  12
DOCKED: ATOM     12  C   UNL     1     141.429  79.507 216.576 -0.14 +0.00    -0.001 C  
DOCKED: ATOM     13  C   UNL     1     140.993  80.957 216.446 -0.10 -0.01    +0.014 C  
DOCKED: ATOM     14  C   UNL     1     142.051  78.992 215.319 -0.11 -0.01    +0.014 C  
DOCKED: BRANCH  12  15
DOCKED: ATOM     15  C   UNL     1     140.236  78.683 216.993 -0.03 -0.07    +0.163 C  
DOCKED: BRANCH  15  16
DOCKED: ATOM     16  O   UNL     1     139.662  79.374 218.083 -0.00 +0.14    -0.396 OA 
DOCKED: ATOM     17  H   UNL     1     140.130  79.154 218.921 +0.05 -0.08    +0.210 HD 
DOCKED: ENDBRANCH  15  16
DOCKED: ENDBRANCH  12  15
DOCKED: ENDBRANCH  10  12
DOCKED: ENDBRANCH   8  10
DOCKED: ENDBRANCH   7   8
DOCKED: ENDBRANCH   1   7
DOCKED: BRANCH   4  18
DOCKED: ATOM     18  C   UNL     1     145.394  72.787 220.020 -0.45 +0.01    +0.070 C  
DOCKED: BRANCH  18  19
DOCKED: ATOM     19  C   UNL     1     144.564  71.578 219.969 -0.26 -0.00    +0.008 C  
DOCKED: BRANCH  19  20
DOCKED: ATOM     20  C   UNL     1     143.398  71.510 220.844 -0.24 -0.00    +0.008 C  
DOCKED: BRANCH  20  21
DOCKED: ATOM     21  C   UNL     1     142.032  71.792 220.356 -0.17 -0.01    +0.070 C  
DOCKED: BRANCH  21  22
DOCKED: ATOM     22  C   UNL     1     141.537  73.152 220.524 -0.17 -0.02    +0.116 A  
DOCKED: ATOM     23  N   UNL     1     141.597  74.184 219.905 -0.11 +0.04    -0.167 NA 
DOCKED: ATOM     24  S   UNL     1     140.484  73.710 221.962 -0.26 +0.00    -0.080 S  
DOCKED: ATOM     25  N   UNL     1     141.083  75.333 220.164 -0.10 +0.08    -0.251 N  
DOCKED: ATOM     26  C   UNL     1     140.370  75.455 221.267 -0.22 -0.05    +0.208 A  
DOCKED: ATOM     27  H   UNL     1     141.221  76.179 219.512 +0.06 -0.07    +0.193 HD 
DOCKED: BRANCH  26  28
DOCKED: ATOM     28  N   UNL     1     139.734  76.357 221.848 -0.24 +0.04    -0.183 NA 
DOCKED: BRANCH  28  29
DOCKED: ATOM     29  C   UNL     1     139.241  77.443 221.053 -0.09 -0.06    +0.255 C  
DOCKED: ATOM     30  O   UNL     1     139.402  77.476 219.806 -0.03 +0.08    -0.272 OA 
DOCKED: BRANCH  29  31
DOCKED: ATOM     31  C   UNL     1     138.526  78.539 221.749 -0.15 -0.02    +0.123 C  
DOCKED: ATOM     32  C   UNL     1     138.645  79.833 220.969 -0.06 -0.05    +0.243 C  
DOCKED: ATOM     33  C   UNL     1     139.125  78.729 223.124 -0.30 -0.01    +0.056 C  
DOCKED: ATOM     34  O   UNL     1     140.037  80.047 220.747 +0.00 +0.14    -0.492 OA 
DOCKED: ATOM     35  C   UNL     1     140.451  79.364 222.984 -0.43 +0.00    -0.005 A  
DOCKED: ATOM     36  C   UNL     1     140.893  79.999 221.845 -0.28 -0.04    +0.122 A  
DOCKED: ATOM     37  C   UNL     1     141.322  79.327 224.073 -0.52 -0.00    +0.007 A  
DOCKED: ATOM     38  C   UNL     1     142.134  80.589 221.730 -0.43 -0.02    +0.047 A  
DOCKED: ATOM     39  C   UNL     1     142.586  79.908 224.005 -0.51 -0.00    +0.001 A  
DOCKED: ATOM     40  C   UNL     1     142.968  80.535 222.816 -0.61 -0.00    +0.004 A  
DOCKED: ENDBRANCH  29  31
DOCKED: ENDBRANCH  28  29
DOCKED: ENDBRANCH  26  28
DOCKED: ENDBRANCH  21  22
DOCKED: ENDBRANCH  20  21
DOCKED: ENDBRANCH  19  20
DOCKED: ENDBRANCH  18  19
DOCKED: ENDBRANCH   4  18
DOCKED: TORSDOF 14
DOCKED: TER
DOCKED: ENDMDL
________________________________________________________________________________


    FINAL DOCKED STATE:
    ________________________


Run:   20 / 20
Time taken for this run:   0.086s

DOCKED: MODEL        20
DOCKED: USER    Run = 20
DOCKED: USER
DOCKED: USER    Estimated Free Energy of Binding    =  -4.11 kcal/mol  [=(1)+(2)+(3)-(4)]
DOCKED: USER
DOCKED: USER    (1) Final Intermolecular Energy     =  -8.28 kcal/mol
DOCKED: USER        vdW + Hbond + desolv Energy     =  -8.11 kcal/mol
DOCKED: USER        Electrostatic Energy            =  -0.17 kcal/mol
DOCKED: USER        Moving Ligand-Fixed Receptor    =  -8.28 kcal/mol
DOCKED: USER        Moving Ligand-Moving Receptor   =  +0.00 kcal/mol
DOCKED: USER    (2) Final Total Internal Energy     =  -7.24 kcal/mol
DOCKED: USER    (3) Torsional Free Energy           =  +4.18 kcal/mol
DOCKED: USER    (4) Unbound System's Energy         =  -7.24 kcal/mol
DOCKED: USER
DOCKED: USER
DOCKED: REMARK SMILES C[C@@H](C(=O)/N=c1/[nH]nc(CCCCc2n[nH]/c(=N\C(=O)[C@@H]3COc4ccccc4C3)s2)s1)C(C)(C)CO
DOCKED: REMARK SMILES IDX 6 1 7 2 8 3 9 4 32 5 5 7 3 8 4 9 2 10 1 11 33 12 34 13 35 14
DOCKED: REMARK SMILES IDX 36 15 37 16 10 18 11 19 12 20 13 21 14 22 15 23 31 24 16 25
DOCKED: REMARK SMILES IDX 17 26 18 28 19 29 20 30 21 31 22 32 30 33 23 34 29 35 24 36
DOCKED: REMARK SMILES IDX 28 37 25 38 27 39 26 40
DOCKED: REMARK H PARENT 7 6 37 17 16 27
DOCKED: USER                              x       y       z     vdW  Elec       q    Type
DOCKED: USER                           _______ _______ _______ _____ _____    ______ ____
DOCKED: ROOT
DOCKED: ATOM      1  C   UNL     1     139.016  77.357 221.083 -0.10 -0.05    +0.208 A  
DOCKED: ATOM      2  N   UNL     1     139.506  76.541 220.178 -0.03 +0.07    -0.251 N  
DOCKED: ATOM      3  N   UNL     1     138.810  75.495 219.914 -0.03 +0.04    -0.167 NA 
DOCKED: ATOM      4  C   UNL     1     137.808  75.106 220.322 -0.05 -0.02    +0.116 A  
DOCKED: ATOM      5  S   UNL     1     137.453  76.543 221.572 -0.19 +0.02    -0.080 S  
DOCKED: ATOM      6  H   UNL     1     140.440  76.744 219.686 +0.06 -0.07    +0.193 HD 
DOCKED: ENDROOT
DOCKED: BRANCH   1   7
DOCKED: ATOM      7  N   UNL     1     139.421  78.469 221.589 -0.11 +0.04    -0.184 NA 
DOCKED: BRANCH   7   8
DOCKED: ATOM      8  C   UNL     1     140.335  78.492 222.676 -0.28 -0.06    +0.251 C  
DOCKED: ATOM      9  O   UNL     1     141.025  77.427 222.834 -0.34 +0.10    -0.272 OA 
DOCKED: BRANCH   8  10
DOCKED: ATOM     10  C   UNL     1     140.518  79.632 223.590 -0.44 -0.02    +0.086 C  
DOCKED: ATOM     11  C   UNL     1     139.217  80.244 224.072 -0.34 -0.00    +0.019 C  
DOCKED: BRANCH  10  12
DOCKED: ATOM     12  C   UNL     1     141.354  80.733 222.992 -0.53 +0.00    -0.001 C  
DOCKED: ATOM     13  C   UNL     1     140.387  81.672 222.290 -0.34 -0.00    +0.014 C  
DOCKED: ATOM     14  C   UNL     1     142.106  81.417 224.087 -0.52 -0.00    +0.014 C  
DOCKED: BRANCH  12  15
DOCKED: ATOM     15  C   UNL     1     142.279  80.137 221.961 -0.39 -0.07    +0.163 C  
DOCKED: BRANCH  15  16
DOCKED: ATOM     16  O   UNL     1     143.060  79.188 222.658 -0.25 +0.24    -0.396 OA 
DOCKED: ATOM     17  H   UNL     1     142.933  78.288 222.281 -0.40 -0.22    +0.210 HD 
DOCKED: ENDBRANCH  15  16
DOCKED: ENDBRANCH  12  15
DOCKED: ENDBRANCH  10  12
DOCKED: ENDBRANCH   8  10
DOCKED: ENDBRANCH   7   8
DOCKED: ENDBRANCH   1   7
DOCKED: BRANCH   4  18
DOCKED: ATOM     18  C   UNL     1     136.712  74.099 220.311 -0.04 -0.01    +0.070 C  
DOCKED: BRANCH  18  19
DOCKED: ATOM     19  C   UNL     1     136.900  72.824 221.013 -0.07 -0.00    +0.008 C  
DOCKED: BRANCH  19  20
DOCKED: ATOM     20  C   UNL     1     137.916  72.761 222.057 -0.15 -0.00    +0.008 C  
DOCKED: BRANCH  20  21
DOCKED: ATOM     21  C   UNL     1     139.308  72.352 221.776 -0.20 -0.01    +0.070 C  
DOCKED: BRANCH  21  22
DOCKED: ATOM     22  C   UNL     1     140.256  73.410 221.450 -0.23 -0.02    +0.116 A  
DOCKED: ATOM     23  N   UNL     1     140.713  74.374 222.010 -0.71 +0.00    -0.167 NA 
DOCKED: ATOM     24  S   UNL     1     141.171  73.528 219.826 -0.15 +0.02    -0.080 S  
DOCKED: ATOM     25  N   UNL     1     141.579  75.231 221.603 -0.17 +0.08    -0.251 N  
DOCKED: ATOM     26  C   UNL     1     142.077  75.077 220.391 -0.21 -0.08    +0.208 A  
DOCKED: ATOM     27  H   UNL     1     141.900  76.054 222.220 -0.51 -0.12    +0.193 HD 
DOCKED: BRANCH  26  28
DOCKED: ATOM     28  N   UNL     1     142.901  75.664 219.660 -0.24 +0.09    -0.183 NA 
DOCKED: BRANCH  28  29
DOCKED: ATOM     29  C   UNL     1     142.685  77.057 219.400 -0.21 -0.17    +0.255 C  
DOCKED: ATOM     30  O   UNL     1     142.278  77.842 220.294 -0.21 +0.20    -0.272 OA 
DOCKED: BRANCH  29  31
DOCKED: ATOM     31  C   UNL     1     142.961  77.553 218.031 -0.24 -0.09    +0.123 C  
DOCKED: ATOM     32  C   UNL     1     141.852  78.475 217.564 -0.15 -0.17    +0.243 C  
DOCKED: ATOM     33  C   UNL     1     143.062  76.378 217.087 -0.22 -0.03    +0.056 C  
DOCKED: ATOM     34  O   UNL     1     140.631  77.756 217.727 +0.01 +0.21    -0.492 OA 
DOCKED: ATOM     35  C   UNL     1     141.710  75.822 216.869 -0.07 +0.00    -0.005 A  
DOCKED: ATOM     36  C   UNL     1     140.541  76.481 217.174 -0.03 -0.04    +0.122 A  
DOCKED: ATOM     37  C   UNL     1     141.599  74.546 216.315 -0.03 -0.00    +0.007 A  
DOCKED: ATOM     38  C   UNL     1     139.286  75.950 216.963 -0.01 -0.01    +0.047 A  
DOCKED: ATOM     39  C   UNL     1     140.353  73.967 216.084 -0.01 -0.00    +0.001 A  
DOCKED: ATOM     40  C   UNL     1     139.209  74.695 216.418 -0.00 -0.00    +0.004 A  
DOCKED: ENDBRANCH  29  31
DOCKED: ENDBRANCH  28  29
DOCKED: ENDBRANCH  26  28
DOCKED: ENDBRANCH  21  22
DOCKED: ENDBRANCH  20  21
DOCKED: ENDBRANCH  19  20
DOCKED: ENDBRANCH  18  19
DOCKED: ENDBRANCH   4  18
DOCKED: TORSDOF 14
DOCKED: TER
DOCKED: ENDMDL
________________________________________________________________________________


    CLUSTERING HISTOGRAM
    ____________________


________________________________________________________________________________
     |           |     |           |     |
Clus | Lowest    | Run | Mean      | Num | Histogram
-ter | Binding   |     | Binding   | in  |
Rank | Energy    |     | Energy    | Clus|    5    10   15   20   25   30   35
_____|___________|_____|___________|_____|____:____|____:____|____:____|____:___
   1 |     -6.13 |   5 |     -5.02 |   2 |##
   2 |     -5.41 |   1 |     -4.24 |   4 |####
   3 |     -5.10 |  16 |     -5.00 |   2 |##
   4 |     -5.05 |  13 |     -4.82 |   3 |###
   5 |     -4.62 |  11 |     -4.19 |   2 |##
   6 |     -4.34 |  10 |     -4.34 |   1 |#
   7 |     -4.28 |  17 |     -4.28 |   1 |#
   8 |     -4.11 |  20 |     -3.55 |   3 |###
   9 |     -3.57 |   2 |     -3.57 |   1 |#
  10 |     -3.56 |  12 |     -3.56 |   1 |#
_____|___________|_____|___________|_____|______________________________________


    RMSD TABLE
    __________


_______________________________________________________________________
     |      |      |           |         |                 |
Rank | Sub- | Run  | Binding   | Cluster | Reference       | Grep
     | Rank |      | Energy    | RMSD    | RMSD            | Pattern
_____|______|______|___________|_________|_________________|___________
   1      1      5       -6.13      0.00    269.04           RANKING
   1      2     14       -3.90      1.98    267.98           RANKING
   2      1      1       -5.41      0.00    268.27           RANKING
   2      2     18       -4.62      1.55    267.95           RANKING
   2      3      9       -3.48      1.44    268.39           RANKING
   2      4      8       -3.47      1.41    268.36           RANKING
   3      1     16       -5.10      0.00    268.75           RANKING
   3      2      7       -4.89      0.49    268.65           RANKING
   4      1     13       -5.05      0.00    268.82           RANKING
   4      2      4       -4.75      1.73    268.65           RANKING
   4      3     19       -4.65      1.74    268.44           RANKING
   5      1     11       -4.62      0.00    268.09           RANKING
   5      2      6       -3.75      1.12    268.24           RANKING
   6      1     10       -4.34      0.00    268.28           RANKING
   7      1     17       -4.28      0.00    268.38           RANKING
   8      1     20       -4.11      0.00    267.96           RANKING
   8      2      3       -3.55      0.96    268.25           RANKING
   8      3     15       -2.99      0.85    267.83           RANKING
   9      1      2       -3.57      0.00    268.71           RANKING
  10      1     12       -3.56      0.00    268.11           RANKING

Run time 1.596 sec
Idle time 0.000 sec
