AutoDock-GPU version: v1.6

**********************************************************
**    AutoDock-GPU AUTODOCKTOOLS-COMPATIBLE DLG FILE    **
**********************************************************


    DOCKING PARAMETERS
    ________________________


Ligand file:                               /home/a/REINVENT4/ReinventStudies/pleaseWork/justRnve/graph-dock-w0wspr/graph-DockGPU/node-autodockgpu/inputs/GHRBDJAYIWVDBG-WYVXEFHQNA-N.pdbqt
Grid fld file:                             /home/a/REINVENT4/ReinventStudies/mols/Rad51/maps/rad51_receptor.maps.fld

Random seed:                               42
Number of runs:                            20
Number of energy evaluations:              5210753
Number of generations:                     42000
Size of population:                        150
Rate of crossover:                         80.000000%
Tournament selection probability limit:    60.000000%
Rate of mutation:                          2.000000%
Maximal allowed delta movement:            +/- 6.000000A
Maximal allowed delta angle:               +/- 90.000000

Rate of local search:                      100.000000%
Maximal number of local search iterations: 300
Rho lower bound:                           0.010000
Spread of local search delta movement:     2.000000A
Spread of local search delta angle:        74.999999
Limit of consecutive successes/failures:   4

Handle symmetry during clustering:         YES
RMSD tolerance:                            2.000000A

Program call in command line was:          /home/a/REINVENT4/ReinventStudies/adgpu-v1.6_linux_x64_cuda12_128wi --filelist batch.txt --heuristics 1 --nrun 20 --psize 150 --lsit 300 --seed 42 --heurmax 12000000 


    GRID PARAMETERS
    ________________________


Receptor name:                             rad51_receptor
Number of grid points (x, y, z):           53, 53, 53
Grid center (x, y, z):                     139.950000, 75.640000, 221.970000A
Grid size (x, y, z):                       19.500000, 19.500000, 19.500000A
Grid spacing:                              0.375000A


    LIGAND PARAMETERS
    ________________________


Ligand name:                               /home/a/REINVENT4/ReinventStudies/pleaseWork/justRnve/graph-dock-w0wspr/graph-DockGPU/node-autodockgpu/inputs/GHRBDJAYIWVDBG-WYVXEFHQNA-N
Number of atoms:                           40
Number of rotatable bonds:                 14
Number of atom types:                      7


    DUMMY DATA (only for ADT-compatibility)
    ________________________


DPF> outlev 1
DPF> ga_run 20
DPF> fld /home/a/REINVENT4/ReinventStudies/mols/Rad51/maps/rad51_receptor.maps.fld
DPF> move /home/a/REINVENT4/ReinventStudies/pleaseWork/justRnve/graph-dock-w0wspr/graph-DockGPU/node-autodockgpu/inputs/GHRBDJAYIWVDBG-WYVXEFHQNA-N.pdbqt


    COUNTER STATES
    ________________________


Number of energy evaluations performed:    1810069
Number of generations used:                170


    INPUT LIGAND PDBQT FILE:
    ________________________


INPUT-LIGAND-PDBQT: REMARK SMILES C[C@H](C(=O)/N=c1\[nH]nc(CCCCc2n[nH]/c(=N\C(=O)[C@H]3COc4ccccc4C3)s2)s1)C(C)(C)CO
INPUT-LIGAND-PDBQT: REMARK SMILES IDX 6 1 7 2 8 3 9 4 32 5 5 7 3 8 4 9 2 10 1 11 33 12 34 13 35 14
INPUT-LIGAND-PDBQT: REMARK SMILES IDX 36 15 37 16 10 18 11 19 12 20 13 21 14 22 15 23 31 24 16 25
INPUT-LIGAND-PDBQT: REMARK SMILES IDX 17 26 18 28 19 29 20 30 21 31 22 32 30 33 23 34 29 35 24 36
INPUT-LIGAND-PDBQT: REMARK SMILES IDX 28 37 25 38 27 39 26 40
INPUT-LIGAND-PDBQT: REMARK H PARENT 7 6 37 17 16 27
INPUT-LIGAND-PDBQT: ROOT
INPUT-LIGAND-PDBQT: ATOM      1  C   UNL     1       4.771   0.527  -0.710  1.00  0.00     0.208 A 
INPUT-LIGAND-PDBQT: ATOM      2  N   UNL     1       4.694   0.024  -1.948  1.00  0.00    -0.251 N 
INPUT-LIGAND-PDBQT: ATOM      3  N   UNL     1       3.546  -0.499  -2.244  1.00  0.00    -0.167 NA
INPUT-LIGAND-PDBQT: ATOM      4  C   UNL     1       2.572  -0.616  -1.645  1.00  0.00     0.116 A 
INPUT-LIGAND-PDBQT: ATOM      5  S   UNL     1       3.088   0.198  -0.003  1.00  0.00    -0.080 S 
INPUT-LIGAND-PDBQT: ATOM      6  H   UNL     1       5.544   0.079  -2.594  1.00  0.00     0.193 HD
INPUT-LIGAND-PDBQT: ENDROOT
INPUT-LIGAND-PDBQT: BRANCH   1   7
INPUT-LIGAND-PDBQT: ATOM      7  N   UNL     1       5.699   1.107  -0.063  1.00  0.00    -0.184 NA
INPUT-LIGAND-PDBQT: BRANCH   7   8
INPUT-LIGAND-PDBQT: ATOM      8  C   UNL     1       6.993   1.341  -0.654  1.00  0.00     0.251 C 
INPUT-LIGAND-PDBQT: ATOM      9  O   UNL     1       7.129   2.468  -1.219  1.00  0.00    -0.272 OA
INPUT-LIGAND-PDBQT: BRANCH   8  10
INPUT-LIGAND-PDBQT: ATOM     10  C   UNL     1       8.085   0.366  -0.617  1.00  0.00     0.086 C 
INPUT-LIGAND-PDBQT: ATOM     11  C   UNL     1       9.262   0.985  -1.341  1.00  0.00     0.019 C 
INPUT-LIGAND-PDBQT: BRANCH  10  12
INPUT-LIGAND-PDBQT: ATOM     12  C   UNL     1       8.447   0.017   0.818  1.00  0.00    -0.001 C 
INPUT-LIGAND-PDBQT: ATOM     13  C   UNL     1       8.865   1.259   1.577  1.00  0.00     0.014 C 
INPUT-LIGAND-PDBQT: ATOM     14  C   UNL     1       7.235  -0.654   1.432  1.00  0.00     0.014 C 
INPUT-LIGAND-PDBQT: BRANCH  12  15
INPUT-LIGAND-PDBQT: ATOM     15  C   UNL     1       9.576  -0.995   0.839  1.00  0.00     0.163 C 
INPUT-LIGAND-PDBQT: BRANCH  15  16
INPUT-LIGAND-PDBQT: ATOM     16  O   UNL     1      10.725  -0.509   0.214  1.00  0.00    -0.396 OA
INPUT-LIGAND-PDBQT: ATOM     17  H   UNL     1      11.196  -1.189  -0.314  1.00  0.00     0.210 HD
INPUT-LIGAND-PDBQT: ENDBRANCH  15  16
INPUT-LIGAND-PDBQT: ENDBRANCH  12  15
INPUT-LIGAND-PDBQT: ENDBRANCH  10  12
INPUT-LIGAND-PDBQT: ENDBRANCH   8  10
INPUT-LIGAND-PDBQT: ENDBRANCH   7   8
INPUT-LIGAND-PDBQT: ENDBRANCH   1   7
INPUT-LIGAND-PDBQT: BRANCH   4  18
INPUT-LIGAND-PDBQT: ATOM     18  C   UNL     1       1.168  -1.164  -1.747  1.00  0.00     0.070 C 
INPUT-LIGAND-PDBQT: BRANCH  18  19
INPUT-LIGAND-PDBQT: ATOM     19  C   UNL     1       0.190  -0.163  -2.268  1.00  0.00     0.008 C 
INPUT-LIGAND-PDBQT: BRANCH  19  20
INPUT-LIGAND-PDBQT: ATOM     20  C   UNL     1      -0.013   1.068  -1.498  1.00  0.00     0.008 C 
INPUT-LIGAND-PDBQT: BRANCH  20  21
INPUT-LIGAND-PDBQT: ATOM     21  C   UNL     1      -0.511   0.995  -0.112  1.00  0.00     0.070 C 
INPUT-LIGAND-PDBQT: BRANCH  21  22
INPUT-LIGAND-PDBQT: ATOM     22  C   UNL     1      -1.831   0.408   0.058  1.00  0.00     0.116 A 
INPUT-LIGAND-PDBQT: ATOM     23  N   UNL     1      -2.653   0.129   1.014  1.00  0.00    -0.167 NA
INPUT-LIGAND-PDBQT: ATOM     24  S   UNL     1      -2.870  -0.182  -1.404  1.00  0.00    -0.080 S 
INPUT-LIGAND-PDBQT: ATOM     25  N   UNL     1      -3.789  -0.386   0.889  1.00  0.00    -0.251 N 
INPUT-LIGAND-PDBQT: ATOM     26  C   UNL     1      -4.245  -0.699  -0.360  1.00  0.00     0.208 A 
INPUT-LIGAND-PDBQT: ATOM     27  H   UNL     1      -4.446  -0.604   1.712  1.00  0.00     0.193 HD
INPUT-LIGAND-PDBQT: BRANCH  26  28
INPUT-LIGAND-PDBQT: ATOM     28  N   UNL     1      -5.329  -1.214  -0.750  1.00  0.00    -0.183 NA
INPUT-LIGAND-PDBQT: BRANCH  28  29
INPUT-LIGAND-PDBQT: ATOM     29  C   UNL     1      -6.325  -1.571   0.194  1.00  0.00     0.255 C 
INPUT-LIGAND-PDBQT: ATOM     30  O   UNL     1      -6.155  -2.489   1.048  1.00  0.00    -0.272 OA
INPUT-LIGAND-PDBQT: BRANCH  29  31
INPUT-LIGAND-PDBQT: ATOM     31  C   UNL     1      -7.606  -0.809   0.143  1.00  0.00     0.123 C 
INPUT-LIGAND-PDBQT: ATOM     32  C   UNL     1      -8.221  -1.008  -1.213  1.00  0.00     0.243 C 
INPUT-LIGAND-PDBQT: ATOM     33  C   UNL     1      -8.524  -1.167   1.280  1.00  0.00     0.056 C 
INPUT-LIGAND-PDBQT: ATOM     34  O   UNL     1      -9.553  -0.549  -1.277  1.00  0.00    -0.492 OA
INPUT-LIGAND-PDBQT: ATOM     35  C   UNL     1      -9.730  -0.312   1.141  1.00  0.00    -0.005 A 
INPUT-LIGAND-PDBQT: ATOM     36  C   UNL     1     -10.173  -0.054  -0.139  1.00  0.00     0.122 A 
INPUT-LIGAND-PDBQT: ATOM     37  C   UNL     1     -10.418   0.227   2.189  1.00  0.00     0.007 A 
INPUT-LIGAND-PDBQT: ATOM     38  C   UNL     1     -11.289   0.733  -0.326  1.00  0.00     0.047 A 
INPUT-LIGAND-PDBQT: ATOM     39  C   UNL     1     -11.548   1.025   2.005  1.00  0.00     0.001 A 
INPUT-LIGAND-PDBQT: ATOM     40  C   UNL     1     -12.002   1.291   0.726  1.00  0.00     0.004 A 
INPUT-LIGAND-PDBQT: ENDBRANCH  29  31
INPUT-LIGAND-PDBQT: ENDBRANCH  28  29
INPUT-LIGAND-PDBQT: ENDBRANCH  26  28
INPUT-LIGAND-PDBQT: ENDBRANCH  21  22
INPUT-LIGAND-PDBQT: ENDBRANCH  20  21
INPUT-LIGAND-PDBQT: ENDBRANCH  19  20
INPUT-LIGAND-PDBQT: ENDBRANCH  18  19
INPUT-LIGAND-PDBQT: ENDBRANCH   4  18
INPUT-LIGAND-PDBQT: TORSDOF 14


    FINAL DOCKED STATE:
    ________________________


Run:   1 / 20
Time taken for this run:   0.127s

DOCKED: MODEL        1
DOCKED: USER    Run = 1
DOCKED: USER
DOCKED: USER    Estimated Free Energy of Binding    =  -4.70 kcal/mol  [=(1)+(2)+(3)-(4)]
DOCKED: USER
DOCKED: USER    (1) Final Intermolecular Energy     =  -8.88 kcal/mol
DOCKED: USER        vdW + Hbond + desolv Energy     =  -8.75 kcal/mol
DOCKED: USER        Electrostatic Energy            =  -0.13 kcal/mol
DOCKED: USER        Moving Ligand-Fixed Receptor    =  -8.88 kcal/mol
DOCKED: USER        Moving Ligand-Moving Receptor   =  +0.00 kcal/mol
DOCKED: USER    (2) Final Total Internal Energy     =  -6.73 kcal/mol
DOCKED: USER    (3) Torsional Free Energy           =  +4.18 kcal/mol
DOCKED: USER    (4) Unbound System's Energy         =  -6.73 kcal/mol
DOCKED: USER
DOCKED: USER
DOCKED: REMARK SMILES C[C@H](C(=O)/N=c1\[nH]nc(CCCCc2n[nH]/c(=N\C(=O)[C@H]3COc4ccccc4C3)s2)s1)C(C)(C)CO
DOCKED: REMARK SMILES IDX 6 1 7 2 8 3 9 4 32 5 5 7 3 8 4 9 2 10 1 11 33 12 34 13 35 14
DOCKED: REMARK SMILES IDX 36 15 37 16 10 18 11 19 12 20 13 21 14 22 15 23 31 24 16 25
DOCKED: REMARK SMILES IDX 17 26 18 28 19 29 20 30 21 31 22 32 30 33 23 34 29 35 24 36
DOCKED: REMARK SMILES IDX 28 37 25 38 27 39 26 40
DOCKED: REMARK H PARENT 7 6 37 17 16 27
DOCKED: USER                              x       y       z     vdW  Elec       q    Type
DOCKED: USER                           _______ _______ _______ _____ _____    ______ ____
DOCKED: ROOT
DOCKED: ATOM      1  C   UNL     1     139.058  77.660 222.325 -0.21 -0.04    +0.208 A  
DOCKED: ATOM      2  N   UNL     1     139.379  77.475 221.039 -0.07 +0.06    -0.251 N  
DOCKED: ATOM      3  N   UNL     1     138.805  76.454 220.485 -0.05 +0.04    -0.167 NA 
DOCKED: ATOM      4  C   UNL     1     138.067  75.669 220.886 -0.09 -0.03    +0.116 A  
DOCKED: ATOM      5  S   UNL     1     137.881  76.272 222.683 -0.33 +0.02    -0.080 S  
DOCKED: ATOM      6  H   UNL     1     140.059  78.148 220.562 +0.07 -0.06    +0.193 HD 
DOCKED: ENDROOT
DOCKED: BRANCH   1   7
DOCKED: ATOM      7  N   UNL     1     139.402  78.525 223.192 -0.21 +0.03    -0.184 NA 
DOCKED: BRANCH   7   8
DOCKED: ATOM      8  C   UNL     1     140.767  78.976 223.301 -0.34 -0.06    +0.251 C  
DOCKED: ATOM      9  O   UNL     1     141.624  78.056 223.465 -0.40 +0.10    -0.272 OA 
DOCKED: BRANCH   8  10
DOCKED: ATOM     10  C   UNL     1     141.159  80.385 223.232 -0.47 -0.02    +0.086 C  
DOCKED: ATOM     11  C   UNL     1     142.548  80.493 223.826 -0.67 -0.00    +0.019 C  
DOCKED: BRANCH  10  12
DOCKED: ATOM     12  C   UNL     1     141.138  80.880 221.795 -0.40 +0.00    -0.001 C  
DOCKED: ATOM     13  C   UNL     1     139.781  80.634 221.168 -0.19 -0.00    +0.014 C  
DOCKED: ATOM     14  C   UNL     1     141.502  82.350 221.825 -0.33 -0.00    +0.014 C  
DOCKED: BRANCH  12  15
DOCKED: ATOM     15  C   UNL     1     142.207  80.172 220.985 -0.18 -0.08    +0.163 C  
DOCKED: BRANCH  15  16
DOCKED: ATOM     16  O   UNL     1     142.026  78.789 220.976 -0.15 +0.26    -0.396 OA 
DOCKED: ATOM     17  H   UNL     1     142.642  78.313 221.574 -0.38 -0.20    +0.210 HD 
DOCKED: ENDBRANCH  15  16
DOCKED: ENDBRANCH  12  15
DOCKED: ENDBRANCH  10  12
DOCKED: ENDBRANCH   8  10
DOCKED: ENDBRANCH   7   8
DOCKED: ENDBRANCH   1   7
DOCKED: BRANCH   4  18
DOCKED: ATOM     18  C   UNL     1     137.294  74.439 220.474 -0.06 -0.01    +0.070 C  
DOCKED: BRANCH  18  19
DOCKED: ATOM     19  C   UNL     1     138.159  73.232 220.324 -0.07 -0.00    +0.008 C  
DOCKED: BRANCH  19  20
DOCKED: ATOM     20  C   UNL     1     138.502  72.476 221.533 -0.15 -0.00    +0.008 C  
DOCKED: BRANCH  20  21
DOCKED: ATOM     21  C   UNL     1     139.853  72.589 222.112 -0.27 -0.01    +0.070 C  
DOCKED: BRANCH  21  22
DOCKED: ATOM     22  C   UNL     1     140.651  73.713 221.648 -0.25 -0.01    +0.116 A  
DOCKED: ATOM     23  N   UNL     1     140.872  74.944 221.969 -0.61 +0.02    -0.167 NA 
DOCKED: ATOM     24  S   UNL     1     141.811  73.584 220.163 -0.24 +0.02    -0.080 S  
DOCKED: ATOM     25  N   UNL     1     141.654  75.733 221.388 -0.11 +0.11    -0.251 N  
DOCKED: ATOM     26  C   UNL     1     142.363  75.293 220.306 -0.21 -0.09    +0.208 A  
DOCKED: ATOM     27  H   UNL     1     141.811  76.755 221.686 -0.46 -0.13    +0.193 HD 
DOCKED: BRANCH  26  28
DOCKED: ATOM     28  N   UNL     1     143.198  75.875 219.561 -0.27 +0.11    -0.183 NA 
DOCKED: BRANCH  28  29
DOCKED: ATOM     29  C   UNL     1     142.893  76.101 218.194 -0.17 -0.13    +0.255 C  
DOCKED: ATOM     30  O   UNL     1     143.227  75.292 217.280 -0.11 +0.12    -0.272 OA 
DOCKED: BRANCH  29  31
DOCKED: ATOM     31  C   UNL     1     142.150  77.352 217.867 -0.20 -0.07    +0.123 C  
DOCKED: ATOM     32  C   UNL     1     140.776  77.256 218.468 -0.05 -0.10    +0.243 C  
DOCKED: ATOM     33  C   UNL     1     142.905  78.585 218.282 -0.17 -0.05    +0.056 C  
DOCKED: ATOM     34  O   UNL     1     140.087  78.486 218.443 +0.01 +0.18    -0.492 OA 
DOCKED: ATOM     35  C   UNL     1     142.086  79.750 217.861 -0.29 +0.00    -0.005 A  
DOCKED: ATOM     36  C   UNL     1     140.717  79.627 217.968 -0.08 -0.06    +0.122 A  
DOCKED: ATOM     37  C   UNL     1     142.599  80.919 217.380 -0.29 -0.01    +0.007 A  
DOCKED: ATOM     38  C   UNL     1     139.909  80.678 217.592 -0.05 -0.02    +0.047 A  
DOCKED: ATOM     39  C   UNL     1     141.786  81.986 216.997 -0.18 -0.00    +0.001 A  
DOCKED: ATOM     40  C   UNL     1     140.411  81.875 217.100 -0.07 -0.00    +0.004 A  
DOCKED: ENDBRANCH  29  31
DOCKED: ENDBRANCH  28  29
DOCKED: ENDBRANCH  26  28
DOCKED: ENDBRANCH  21  22
DOCKED: ENDBRANCH  20  21
DOCKED: ENDBRANCH  19  20
DOCKED: ENDBRANCH  18  19
DOCKED: ENDBRANCH   4  18
DOCKED: TORSDOF 14
DOCKED: TER
DOCKED: ENDMDL
________________________________________________________________________________


    FINAL DOCKED STATE:
    ________________________


Run:   2 / 20
Time taken for this run:   0.127s

DOCKED: MODEL        2
DOCKED: USER    Run = 2
DOCKED: USER
DOCKED: USER    Estimated Free Energy of Binding    =  -6.56 kcal/mol  [=(1)+(2)+(3)-(4)]
DOCKED: USER
DOCKED: USER    (1) Final Intermolecular Energy     = -10.74 kcal/mol
DOCKED: USER        vdW + Hbond + desolv Energy     = -10.61 kcal/mol
DOCKED: USER        Electrostatic Energy            =  -0.13 kcal/mol
DOCKED: USER        Moving Ligand-Fixed Receptor    = -10.74 kcal/mol
DOCKED: USER        Moving Ligand-Moving Receptor   =  +0.00 kcal/mol
DOCKED: USER    (2) Final Total Internal Energy     =  -3.71 kcal/mol
DOCKED: USER    (3) Torsional Free Energy           =  +4.18 kcal/mol
DOCKED: USER    (4) Unbound System's Energy         =  -3.71 kcal/mol
DOCKED: USER
DOCKED: USER
DOCKED: REMARK SMILES C[C@H](C(=O)/N=c1\[nH]nc(CCCCc2n[nH]/c(=N\C(=O)[C@H]3COc4ccccc4C3)s2)s1)C(C)(C)CO
DOCKED: REMARK SMILES IDX 6 1 7 2 8 3 9 4 32 5 5 7 3 8 4 9 2 10 1 11 33 12 34 13 35 14
DOCKED: REMARK SMILES IDX 36 15 37 16 10 18 11 19 12 20 13 21 14 22 15 23 31 24 16 25
DOCKED: REMARK SMILES IDX 17 26 18 28 19 29 20 30 21 31 22 32 30 33 23 34 29 35 24 36
DOCKED: REMARK SMILES IDX 28 37 25 38 27 39 26 40
DOCKED: REMARK H PARENT 7 6 37 17 16 27
DOCKED: USER                              x       y       z     vdW  Elec       q    Type
DOCKED: USER                           _______ _______ _______ _____ _____    ______ ____
DOCKED: ROOT
DOCKED: ATOM      1  C   UNL     1     134.864  73.725 224.245 -0.17 -0.03    +0.208 A  
DOCKED: ATOM      2  N   UNL     1     134.478  73.965 222.986 -0.04 +0.04    -0.251 N  
DOCKED: ATOM      3  N   UNL     1     134.865  75.108 222.515 -0.06 +0.03    -0.167 NA 
DOCKED: ATOM      4  C   UNL     1     135.480  75.965 222.973 -0.16 -0.02    +0.116 A  
DOCKED: ATOM      5  S   UNL     1     135.815  75.249 224.705 -0.30 +0.02    -0.080 S  
DOCKED: ATOM      6  H   UNL     1     133.900  73.233 222.462 +0.02 -0.03    +0.193 HD 
DOCKED: ENDROOT
DOCKED: BRANCH   1   7
DOCKED: ATOM      7  N   UNL     1     134.690  72.745 225.036 -0.18 +0.01    -0.184 NA 
DOCKED: BRANCH   7   8
DOCKED: ATOM      8  C   UNL     1     133.551  72.687 225.919 -0.20 -0.01    +0.251 C  
DOCKED: ATOM      9  O   UNL     1     133.547  73.550 226.847 -0.85 -0.03    -0.272 OA 
DOCKED: BRANCH   8  10
DOCKED: ATOM     10  C   UNL     1     132.467  71.713 225.774 -0.19 -0.01    +0.086 C  
DOCKED: ATOM     11  C   UNL     1     131.663  72.116 224.556 -0.07 -0.00    +0.019 C  
DOCKED: BRANCH  10  12
DOCKED: ATOM     12  C   UNL     1     133.024  70.306 225.621 -0.23 +0.00    -0.001 C  
DOCKED: ATOM     13  C   UNL     1     131.983  69.278 226.010 -0.15 -0.00    +0.014 C  
DOCKED: ATOM     14  C   UNL     1     133.471  70.159 224.181 -0.10 -0.00    +0.014 C  
DOCKED: BRANCH  12  15
DOCKED: ATOM     15  C   UNL     1     134.256  70.136 226.490 -0.27 -0.01    +0.163 C  
DOCKED: BRANCH  15  16
DOCKED: ATOM     16  O   UNL     1     135.418  70.005 225.729 -0.11 +0.02    -0.396 OA 
DOCKED: ATOM     17  H   UNL     1     135.599  70.785 225.161 +0.08 -0.02    +0.210 HD 
DOCKED: ENDBRANCH  15  16
DOCKED: ENDBRANCH  12  15
DOCKED: ENDBRANCH  10  12
DOCKED: ENDBRANCH   8  10
DOCKED: ENDBRANCH   7   8
DOCKED: ENDBRANCH   1   7
DOCKED: BRANCH   4  18
DOCKED: ATOM     18  C   UNL     1     136.034  77.334 222.659 -0.16 -0.01    +0.070 C  
DOCKED: BRANCH  18  19
DOCKED: ATOM     19  C   UNL     1     137.526  77.384 222.712 -0.25 -0.00    +0.008 C  
DOCKED: BRANCH  19  20
DOCKED: ATOM     20  C   UNL     1     138.275  76.850 221.570 -0.20 -0.00    +0.008 C  
DOCKED: BRANCH  20  21
DOCKED: ATOM     21  C   UNL     1     139.601  76.242 221.780 -0.29 -0.02    +0.070 C  
DOCKED: BRANCH  21  22
DOCKED: ATOM     22  C   UNL     1     139.617  74.798 221.954 -0.26 -0.02    +0.116 A  
DOCKED: ATOM     23  N   UNL     1     140.473  73.855 222.170 -0.77 -0.00    -0.167 NA 
DOCKED: ATOM     24  S   UNL     1     138.040  73.759 221.920 -0.17 +0.02    -0.080 S  
DOCKED: ATOM     25  N   UNL     1     140.216  72.636 222.301 -0.21 +0.03    -0.251 N  
DOCKED: ATOM     26  C   UNL     1     138.920  72.215 222.216 -0.16 -0.05    +0.208 A  
DOCKED: ATOM     27  H   UNL     1     140.959  71.879 222.479 +0.07 -0.01    +0.193 HD 
DOCKED: BRANCH  26  28
DOCKED: ATOM     28  N   UNL     1     138.405  71.066 222.311 -0.10 +0.04    -0.183 NA 
DOCKED: BRANCH  28  29
DOCKED: ATOM     29  C   UNL     1     137.570  70.751 223.412 -0.14 -0.05    +0.255 C  
DOCKED: ATOM     30  O   UNL     1     136.341  71.053 223.443 -0.10 +0.05    -0.272 OA 
DOCKED: BRANCH  29  31
DOCKED: ATOM     31  C   UNL     1     138.205  70.037 224.557 -0.27 -0.02    +0.123 C  
DOCKED: ATOM     32  C   UNL     1     138.373  68.593 224.178 -0.18 -0.02    +0.243 C  
DOCKED: ATOM     33  C   UNL     1     139.482  70.697 224.999 -0.40 -0.01    +0.056 C  
DOCKED: ATOM     34  O   UNL     1     139.196  67.888 225.080 -0.61 +0.02    -0.492 OA 
DOCKED: ATOM     35  C   UNL     1     139.982  69.923 226.164 -0.50 +0.00    -0.005 A  
DOCKED: ATOM     36  C   UNL     1     139.807  68.556 226.132 -0.46 -0.02    +0.122 A  
DOCKED: ATOM     37  C   UNL     1     140.597  70.475 227.249 -0.62 -0.00    +0.007 A  
DOCKED: ATOM     38  C   UNL     1     140.253  67.789 227.186 -0.61 -0.01    +0.047 A  
DOCKED: ATOM     39  C   UNL     1     141.050  69.703 228.320 -0.58 -0.00    +0.001 A  
DOCKED: ATOM     40  C   UNL     1     140.880  68.331 228.300 -0.66 -0.00    +0.004 A  
DOCKED: ENDBRANCH  29  31
DOCKED: ENDBRANCH  28  29
DOCKED: ENDBRANCH  26  28
DOCKED: ENDBRANCH  21  22
DOCKED: ENDBRANCH  20  21
DOCKED: ENDBRANCH  19  20
DOCKED: ENDBRANCH  18  19
DOCKED: ENDBRANCH   4  18
DOCKED: TORSDOF 14
DOCKED: TER
DOCKED: ENDMDL
________________________________________________________________________________


    FINAL DOCKED STATE:
    ________________________


Run:   3 / 20
Time taken for this run:   0.127s

DOCKED: MODEL        3
DOCKED: USER    Run = 3
DOCKED: USER
DOCKED: USER    Estimated Free Energy of Binding    =  -4.23 kcal/mol  [=(1)+(2)+(3)-(4)]
DOCKED: USER
DOCKED: USER    (1) Final Intermolecular Energy     =  -8.41 kcal/mol
DOCKED: USER        vdW + Hbond + desolv Energy     =  -8.32 kcal/mol
DOCKED: USER        Electrostatic Energy            =  -0.09 kcal/mol
DOCKED: USER        Moving Ligand-Fixed Receptor    =  -8.41 kcal/mol
DOCKED: USER        Moving Ligand-Moving Receptor   =  +0.00 kcal/mol
DOCKED: USER    (2) Final Total Internal Energy     =  -6.92 kcal/mol
DOCKED: USER    (3) Torsional Free Energy           =  +4.18 kcal/mol
DOCKED: USER    (4) Unbound System's Energy         =  -6.92 kcal/mol
DOCKED: USER
DOCKED: USER
DOCKED: REMARK SMILES C[C@H](C(=O)/N=c1\[nH]nc(CCCCc2n[nH]/c(=N\C(=O)[C@H]3COc4ccccc4C3)s2)s1)C(C)(C)CO
DOCKED: REMARK SMILES IDX 6 1 7 2 8 3 9 4 32 5 5 7 3 8 4 9 2 10 1 11 33 12 34 13 35 14
DOCKED: REMARK SMILES IDX 36 15 37 16 10 18 11 19 12 20 13 21 14 22 15 23 31 24 16 25
DOCKED: REMARK SMILES IDX 17 26 18 28 19 29 20 30 21 31 22 32 30 33 23 34 29 35 24 36
DOCKED: REMARK SMILES IDX 28 37 25 38 27 39 26 40
DOCKED: REMARK H PARENT 7 6 37 17 16 27
DOCKED: USER                              x       y       z     vdW  Elec       q    Type
DOCKED: USER                           _______ _______ _______ _____ _____    ______ ____
DOCKED: ROOT
DOCKED: ATOM      1  C   UNL     1     138.835  77.381 222.450 -0.21 -0.04    +0.208 A  
DOCKED: ATOM      2  N   UNL     1     139.263  76.820 221.313 -0.10 +0.06    -0.251 N  
DOCKED: ATOM      3  N   UNL     1     138.594  75.772 220.948 -0.09 +0.04    -0.167 NA 
DOCKED: ATOM      4  C   UNL     1     137.696  75.226 221.414 -0.13 -0.03    +0.116 A  
DOCKED: ATOM      5  S   UNL     1     137.411  76.304 222.956 -0.29 +0.02    -0.080 S  
DOCKED: ATOM      6  H   UNL     1     140.094  77.247 220.794 +0.07 -0.06    +0.193 HD 
DOCKED: ENDROOT
DOCKED: BRANCH   1   7
DOCKED: ATOM      7  N   UNL     1     139.217  78.393 223.118 -0.21 +0.03    -0.184 NA 
DOCKED: BRANCH   7   8
DOCKED: ATOM      8  C   UNL     1     140.579  78.860 223.059 -0.32 -0.06    +0.251 C  
DOCKED: ATOM      9  O   UNL     1     141.451  77.954 222.896 -0.36 +0.12    -0.272 OA 
DOCKED: BRANCH   8  10
DOCKED: ATOM     10  C   UNL     1     140.954  80.271 223.177 -0.45 -0.02    +0.086 C  
DOCKED: ATOM     11  C   UNL     1     142.326  80.318 223.814 -0.64 -0.00    +0.019 C  
DOCKED: BRANCH  10  12
DOCKED: ATOM     12  C   UNL     1     140.962  80.941 221.812 -0.38 +0.00    -0.001 C  
DOCKED: ATOM     13  C   UNL     1     140.941  82.448 221.960 -0.30 -0.00    +0.014 C  
DOCKED: ATOM     14  C   UNL     1     142.195  80.450 221.082 -0.33 -0.01    +0.014 C  
DOCKED: BRANCH  12  15
DOCKED: ATOM     15  C   UNL     1     139.758  80.494 221.005 -0.12 -0.04    +0.163 C  
DOCKED: BRANCH  15  16
DOCKED: ATOM     16  O   UNL     1     139.949  79.235 220.435 -0.02 +0.12    -0.396 OA 
DOCKED: ATOM     17  H   UNL     1     140.336  78.583 221.058 +0.09 -0.07    +0.210 HD 
DOCKED: ENDBRANCH  15  16
DOCKED: ENDBRANCH  12  15
DOCKED: ENDBRANCH  10  12
DOCKED: ENDBRANCH   8  10
DOCKED: ENDBRANCH   7   8
DOCKED: ENDBRANCH   1   7
DOCKED: BRANCH   4  18
DOCKED: ATOM     18  C   UNL     1     136.781  74.042 221.205 -0.09 -0.02    +0.070 C  
DOCKED: BRANCH  18  19
DOCKED: ATOM     19  C   UNL     1     137.524  72.768 220.969 -0.08 -0.00    +0.008 C  
DOCKED: BRANCH  19  20
DOCKED: ATOM     20  C   UNL     1     138.108  72.085 222.127 -0.17 -0.00    +0.008 C  
DOCKED: BRANCH  20  21
DOCKED: ATOM     21  C   UNL     1     139.574  72.008 222.273 -0.25 -0.01    +0.070 C  
DOCKED: BRANCH  21  22
DOCKED: ATOM     22  C   UNL     1     140.322  73.153 221.779 -0.25 -0.01    +0.116 A  
DOCKED: ATOM     23  N   UNL     1     140.800  74.266 222.226 -0.55 -0.01    -0.167 NA 
DOCKED: ATOM     24  S   UNL     1     140.909  73.280 219.989 -0.15 +0.02    -0.080 S  
DOCKED: ATOM     25  N   UNL     1     141.451  75.112 221.568 -0.21 +0.07    -0.251 N  
DOCKED: ATOM     26  C   UNL     1     141.704  74.877 220.247 -0.17 -0.07    +0.208 A  
DOCKED: ATOM     27  H   UNL     1     141.833  76.030 221.978 -0.52 -0.11    +0.193 HD 
DOCKED: BRANCH  26  28
DOCKED: ATOM     28  N   UNL     1     142.323  75.554 219.381 -0.15 +0.08    -0.183 NA 
DOCKED: BRANCH  28  29
DOCKED: ATOM     29  C   UNL     1     142.322  76.970 219.453 -0.21 -0.15    +0.255 C  
DOCKED: ATOM     30  O   UNL     1     142.197  77.595 220.546 -0.23 +0.20    -0.272 OA 
DOCKED: BRANCH  29  31
DOCKED: ATOM     31  C   UNL     1     142.479  77.711 218.168 -0.26 -0.09    +0.123 C  
DOCKED: ATOM     32  C   UNL     1     142.014  76.822 217.050 -0.10 -0.13    +0.243 C  
DOCKED: ATOM     33  C   UNL     1     141.793  79.050 218.199 -0.24 -0.04    +0.056 C  
DOCKED: ATOM     34  O   UNL     1     141.873  77.514 215.830 -0.03 +0.31    -0.492 OA 
DOCKED: ATOM     35  C   UNL     1     142.064  79.699 216.891 -0.20 +0.00    -0.005 A  
DOCKED: ATOM     36  C   UNL     1     142.087  78.884 215.779 -0.11 -0.12    +0.122 A  
DOCKED: ATOM     37  C   UNL     1     142.288  81.034 216.725 -0.20 -0.01    +0.007 A  
DOCKED: ATOM     38  C   UNL     1     142.332  79.434 214.539 -0.09 -0.05    +0.047 A  
DOCKED: ATOM     39  C   UNL     1     142.537  81.596 215.472 -0.15 -0.00    +0.001 A  
DOCKED: ATOM     40  C   UNL     1     142.563  80.789 214.349 -0.11 -0.00    +0.004 A  
DOCKED: ENDBRANCH  29  31
DOCKED: ENDBRANCH  28  29
DOCKED: ENDBRANCH  26  28
DOCKED: ENDBRANCH  21  22
DOCKED: ENDBRANCH  20  21
DOCKED: ENDBRANCH  19  20
DOCKED: ENDBRANCH  18  19
DOCKED: ENDBRANCH   4  18
DOCKED: TORSDOF 14
DOCKED: TER
DOCKED: ENDMDL
________________________________________________________________________________


    FINAL DOCKED STATE:
    ________________________


Run:   4 / 20
Time taken for this run:   0.127s

DOCKED: MODEL        4
DOCKED: USER    Run = 4
DOCKED: USER
DOCKED: USER    Estimated Free Energy of Binding    =  -5.97 kcal/mol  [=(1)+(2)+(3)-(4)]
DOCKED: USER
DOCKED: USER    (1) Final Intermolecular Energy     = -10.15 kcal/mol
DOCKED: USER        vdW + Hbond + desolv Energy     = -10.03 kcal/mol
DOCKED: USER        Electrostatic Energy            =  -0.12 kcal/mol
DOCKED: USER        Moving Ligand-Fixed Receptor    = -10.15 kcal/mol
DOCKED: USER        Moving Ligand-Moving Receptor   =  +0.00 kcal/mol
DOCKED: USER    (2) Final Total Internal Energy     =  -5.56 kcal/mol
DOCKED: USER    (3) Torsional Free Energy           =  +4.18 kcal/mol
DOCKED: USER    (4) Unbound System's Energy         =  -5.56 kcal/mol
DOCKED: USER
DOCKED: USER
DOCKED: REMARK SMILES C[C@H](C(=O)/N=c1\[nH]nc(CCCCc2n[nH]/c(=N\C(=O)[C@H]3COc4ccccc4C3)s2)s1)C(C)(C)CO
DOCKED: REMARK SMILES IDX 6 1 7 2 8 3 9 4 32 5 5 7 3 8 4 9 2 10 1 11 33 12 34 13 35 14
DOCKED: REMARK SMILES IDX 36 15 37 16 10 18 11 19 12 20 13 21 14 22 15 23 31 24 16 25
DOCKED: REMARK SMILES IDX 17 26 18 28 19 29 20 30 21 31 22 32 30 33 23 34 29 35 24 36
DOCKED: REMARK SMILES IDX 28 37 25 38 27 39 26 40
DOCKED: REMARK H PARENT 7 6 37 17 16 27
DOCKED: USER                              x       y       z     vdW  Elec       q    Type
DOCKED: USER                           _______ _______ _______ _____ _____    ______ ____
DOCKED: ROOT
DOCKED: ATOM      1  C   UNL     1     139.852  76.628 222.304 -0.28 -0.05    +0.208 A  
DOCKED: ATOM      2  N   UNL     1     141.094  76.170 222.105 -0.24 +0.09    -0.251 N  
DOCKED: ATOM      3  N   UNL     1     141.158  74.917 221.779 -0.47 +0.03    -0.167 NA 
DOCKED: ATOM      4  C   UNL     1     140.349  74.116 221.626 -0.26 -0.01    +0.116 A  
DOCKED: ATOM      5  S   UNL     1     138.787  75.142 221.992 -0.30 +0.02    -0.080 S  
DOCKED: ATOM      6  H   UNL     1     141.926  76.832 222.221 -0.47 -0.16    +0.193 HD 
DOCKED: ENDROOT
DOCKED: BRANCH   1   7
DOCKED: ATOM      7  N   UNL     1     139.386  77.766 222.626 -0.22 +0.04    -0.184 NA 
DOCKED: BRANCH   7   8
DOCKED: ATOM      8  C   UNL     1     139.856  78.975 221.997 -0.17 -0.06    +0.251 C  
DOCKED: ATOM      9  O   UNL     1     140.002  78.904 220.740 -0.07 +0.08    -0.272 OA 
DOCKED: BRANCH   8  10
DOCKED: ATOM     10  C   UNL     1     140.149  80.206 222.734 -0.34 -0.02    +0.086 C  
DOCKED: ATOM     11  C   UNL     1     139.153  80.295 223.871 -0.41 -0.00    +0.019 C  
DOCKED: BRANCH  10  12
DOCKED: ATOM     12  C   UNL     1     141.577  80.194 223.257 -0.59 +0.00    -0.001 C  
DOCKED: ATOM     13  C   UNL     1     141.899  81.500 223.953 -0.49 -0.00    +0.014 C  
DOCKED: ATOM     14  C   UNL     1     141.701  79.001 224.184 -0.52 -0.00    +0.014 C  
DOCKED: BRANCH  12  15
DOCKED: ATOM     15  C   UNL     1     142.549  79.974 222.114 -0.36 -0.07    +0.163 C  
DOCKED: BRANCH  15  16
DOCKED: ATOM     16  O   UNL     1     142.573  78.642 221.698 -0.06 +0.32    -0.396 OA 
DOCKED: ATOM     17  H   UNL     1     142.138  78.500 220.830 -0.04 -0.15    +0.210 HD 
DOCKED: ENDBRANCH  15  16
DOCKED: ENDBRANCH  12  15
DOCKED: ENDBRANCH  10  12
DOCKED: ENDBRANCH   8  10
DOCKED: ENDBRANCH   7   8
DOCKED: ENDBRANCH   1   7
DOCKED: BRANCH   4  18
DOCKED: ATOM     18  C   UNL     1     140.165  72.659 221.271 -0.21 -0.01    +0.070 C  
DOCKED: BRANCH  18  19
DOCKED: ATOM     19  C   UNL     1     141.460  71.943 221.068 -0.22 -0.00    +0.008 C  
DOCKED: BRANCH  19  20
DOCKED: ATOM     20  C   UNL     1     142.236  72.250 219.863 -0.16 -0.00    +0.008 C  
DOCKED: BRANCH  20  21
DOCKED: ATOM     21  C   UNL     1     143.440  73.096 219.958 -0.26 -0.01    +0.070 C  
DOCKED: BRANCH  21  22
DOCKED: ATOM     22  C   UNL     1     143.258  74.498 219.615 -0.26 -0.04    +0.116 A  
DOCKED: ATOM     23  N   UNL     1     143.417  75.659 220.159 -0.23 +0.10    -0.167 NA 
DOCKED: ATOM     24  S   UNL     1     142.639  75.051 217.919 -0.17 +0.03    -0.080 S  
DOCKED: ATOM     25  N   UNL     1     143.191  76.768 219.620 -0.25 +0.19    -0.251 N  
DOCKED: ATOM     26  C   UNL     1     142.733  76.803 218.334 -0.22 -0.12    +0.208 A  
DOCKED: ATOM     27  H   UNL     1     143.335  77.715 220.108 -0.45 -0.23    +0.193 HD 
DOCKED: BRANCH  26  28
DOCKED: ATOM     28  N   UNL     1     142.435  77.768 217.578 -0.19 +0.13    -0.183 NA 
DOCKED: BRANCH  28  29
DOCKED: ATOM     29  C   UNL     1     142.321  79.077 218.111 -0.21 -0.21    +0.255 C  
DOCKED: ATOM     30  O   UNL     1     142.047  79.296 219.326 -0.21 +0.18    -0.272 OA 
DOCKED: BRANCH  29  31
DOCKED: ATOM     31  C   UNL     1     142.541  80.210 217.166 -0.06 -0.14    +0.123 C  
DOCKED: ATOM     32  C   UNL     1     141.379  80.267 216.216 -0.08 -0.17    +0.243 C  
DOCKED: ATOM     33  C   UNL     1     142.795  81.507 217.886 -0.26 -0.05    +0.056 C  
DOCKED: ATOM     34  O   UNL     1     141.358  81.454 215.455 -0.01 +0.30    -0.492 OA 
DOCKED: ATOM     35  C   UNL     1     143.044  82.534 216.843 -0.32 +0.00    -0.005 A  
DOCKED: ATOM     36  C   UNL     1     142.304  82.443 215.683 -0.12 -0.09    +0.122 A  
DOCKED: ATOM     37  C   UNL     1     143.949  83.548 216.960 -0.41 -0.00    +0.007 A  
DOCKED: ATOM     38  C   UNL     1     142.494  83.371 214.681 -0.09 -0.03    +0.047 A  
DOCKED: ATOM     39  C   UNL     1     144.145  84.490 215.949 -0.25 -0.00    +0.001 A  
DOCKED: ATOM     40  C   UNL     1     143.409  84.409 214.781 -0.14 -0.00    +0.004 A  
DOCKED: ENDBRANCH  29  31
DOCKED: ENDBRANCH  28  29
DOCKED: ENDBRANCH  26  28
DOCKED: ENDBRANCH  21  22
DOCKED: ENDBRANCH  20  21
DOCKED: ENDBRANCH  19  20
DOCKED: ENDBRANCH  18  19
DOCKED: ENDBRANCH   4  18
DOCKED: TORSDOF 14
DOCKED: TER
DOCKED: ENDMDL
________________________________________________________________________________


    FINAL DOCKED STATE:
    ________________________


Run:   5 / 20
Time taken for this run:   0.127s

DOCKED: MODEL        5
DOCKED: USER    Run = 5
DOCKED: USER
DOCKED: USER    Estimated Free Energy of Binding    =  -6.07 kcal/mol  [=(1)+(2)+(3)-(4)]
DOCKED: USER
DOCKED: USER    (1) Final Intermolecular Energy     = -10.25 kcal/mol
DOCKED: USER        vdW + Hbond + desolv Energy     = -10.10 kcal/mol
DOCKED: USER        Electrostatic Energy            =  -0.14 kcal/mol
DOCKED: USER        Moving Ligand-Fixed Receptor    = -10.25 kcal/mol
DOCKED: USER        Moving Ligand-Moving Receptor   =  +0.00 kcal/mol
DOCKED: USER    (2) Final Total Internal Energy     =  -4.97 kcal/mol
DOCKED: USER    (3) Torsional Free Energy           =  +4.18 kcal/mol
DOCKED: USER    (4) Unbound System's Energy         =  -4.97 kcal/mol
DOCKED: USER
DOCKED: USER
DOCKED: REMARK SMILES C[C@H](C(=O)/N=c1\[nH]nc(CCCCc2n[nH]/c(=N\C(=O)[C@H]3COc4ccccc4C3)s2)s1)C(C)(C)CO
DOCKED: REMARK SMILES IDX 6 1 7 2 8 3 9 4 32 5 5 7 3 8 4 9 2 10 1 11 33 12 34 13 35 14
DOCKED: REMARK SMILES IDX 36 15 37 16 10 18 11 19 12 20 13 21 14 22 15 23 31 24 16 25
DOCKED: REMARK SMILES IDX 17 26 18 28 19 29 20 30 21 31 22 32 30 33 23 34 29 35 24 36
DOCKED: REMARK SMILES IDX 28 37 25 38 27 39 26 40
DOCKED: REMARK H PARENT 7 6 37 17 16 27
DOCKED: USER                              x       y       z     vdW  Elec       q    Type
DOCKED: USER                           _______ _______ _______ _____ _____    ______ ____
DOCKED: ROOT
DOCKED: ATOM      1  C   UNL     1     139.785  76.770 221.622 -0.21 -0.05    +0.208 A  
DOCKED: ATOM      2  N   UNL     1     140.950  76.147 221.841 -0.25 +0.08    -0.251 N  
DOCKED: ATOM      3  N   UNL     1     140.854  74.863 221.980 -0.62 +0.01    -0.167 NA 
DOCKED: ATOM      4  C   UNL     1     139.955  74.147 221.952 -0.22 -0.01    +0.116 A  
DOCKED: ATOM      5  S   UNL     1     138.547  75.388 221.630 -0.27 +0.02    -0.080 S  
DOCKED: ATOM      6  H   UNL     1     141.853  76.718 221.887 -0.49 -0.14    +0.193 HD 
DOCKED: ENDROOT
DOCKED: BRANCH   1   7
DOCKED: ATOM      7  N   UNL     1     139.471  77.988 221.439 -0.11 +0.05    -0.184 NA 
DOCKED: BRANCH   7   8
DOCKED: ATOM      8  C   UNL     1     139.183  78.864 222.548 -0.19 -0.05    +0.251 C  
DOCKED: ATOM      9  O   UNL     1     138.341  78.414 223.382 -0.14 +0.04    -0.272 OA 
DOCKED: BRANCH   8  10
DOCKED: ATOM     10  C   UNL     1     139.805  80.178 222.720 -0.31 -0.02    +0.086 C  
DOCKED: ATOM     11  C   UNL     1     139.073  80.875 223.847 -0.37 -0.00    +0.019 C  
DOCKED: BRANCH  10  12
DOCKED: ATOM     12  C   UNL     1     141.286  80.036 223.033 -0.54 +0.00    -0.001 C  
DOCKED: ATOM     13  C   UNL     1     141.802  81.277 223.732 -0.58 -0.00    +0.014 C  
DOCKED: ATOM     14  C   UNL     1     141.445  78.789 223.879 -0.55 -0.00    +0.014 C  
DOCKED: BRANCH  12  15
DOCKED: ATOM     15  C   UNL     1     142.070  79.811 221.755 -0.35 -0.07    +0.163 C  
DOCKED: BRANCH  15  16
DOCKED: ATOM     16  O   UNL     1     142.216  78.454 221.464 -0.16 +0.29    -0.396 OA 
DOCKED: ATOM     17  H   UNL     1     142.572  78.286 220.565 -0.31 -0.19    +0.210 HD 
DOCKED: ENDBRANCH  15  16
DOCKED: ENDBRANCH  12  15
DOCKED: ENDBRANCH  10  12
DOCKED: ENDBRANCH   8  10
DOCKED: ENDBRANCH   7   8
DOCKED: ENDBRANCH   1   7
DOCKED: BRANCH   4  18
DOCKED: ATOM     18  C   UNL     1     139.588  72.688 222.085 -0.25 -0.01    +0.070 C  
DOCKED: BRANCH  18  19
DOCKED: ATOM     19  C   UNL     1     140.369  71.806 221.167 -0.19 -0.00    +0.008 C  
DOCKED: BRANCH  19  20
DOCKED: ATOM     20  C   UNL     1     141.828  71.786 221.306 -0.17 -0.00    +0.008 C  
DOCKED: BRANCH  20  21
DOCKED: ATOM     21  C   UNL     1     142.680  72.229 220.187 -0.20 -0.01    +0.070 C  
DOCKED: BRANCH  21  22
DOCKED: ATOM     22  C   UNL     1     142.472  73.595 219.732 -0.16 -0.03    +0.116 A  
DOCKED: ATOM     23  N   UNL     1     141.507  74.337 219.301 -0.06 +0.04    -0.167 NA 
DOCKED: ATOM     24  S   UNL     1     143.866  74.867 219.683 -0.44 +0.04    -0.080 S  
DOCKED: ATOM     25  N   UNL     1     141.589  75.544 218.974 -0.05 +0.09    -0.251 N  
DOCKED: ATOM     26  C   UNL     1     142.796  76.179 219.065 -0.23 -0.11    +0.208 A  
DOCKED: ATOM     27  H   UNL     1     140.761  76.130 218.618 +0.05 -0.07    +0.193 HD 
DOCKED: BRANCH  26  28
DOCKED: ATOM     28  N   UNL     1     143.139  77.364 218.803 -0.23 +0.14    -0.183 NA 
DOCKED: BRANCH  28  29
DOCKED: ATOM     29  C   UNL     1     142.153  78.343 218.522 -0.20 -0.17    +0.255 C  
DOCKED: ATOM     30  O   UNL     1     140.999  78.315 219.041 -0.08 +0.12    -0.272 OA 
DOCKED: BRANCH  29  31
DOCKED: ATOM     31  C   UNL     1     142.532  79.430 217.574 -0.22 -0.13    +0.123 C  
DOCKED: ATOM     32  C   UNL     1     141.651  79.330 216.362 -0.10 -0.19    +0.243 C  
DOCKED: ATOM     33  C   UNL     1     142.508  80.786 218.227 -0.31 -0.04    +0.056 C  
DOCKED: ATOM     34  O   UNL     1     141.748  80.462 215.526 -0.03 +0.42    -0.492 OA 
DOCKED: ATOM     35  C   UNL     1     142.948  81.763 217.200 -0.33 +0.00    -0.005 A  
DOCKED: ATOM     36  C   UNL     1     142.537  81.539 215.903 -0.12 -0.13    +0.122 A  
DOCKED: ATOM     37  C   UNL     1     143.723  82.856 217.457 -0.35 -0.01    +0.007 A  
DOCKED: ATOM     38  C   UNL     1     142.916  82.416 214.909 -0.15 -0.04    +0.047 A  
DOCKED: ATOM     39  C   UNL     1     144.110  83.747 216.455 -0.37 -0.00    +0.001 A  
DOCKED: ATOM     40  C   UNL     1     143.705  83.532 215.150 -0.24 -0.00    +0.004 A  
DOCKED: ENDBRANCH  29  31
DOCKED: ENDBRANCH  28  29
DOCKED: ENDBRANCH  26  28
DOCKED: ENDBRANCH  21  22
DOCKED: ENDBRANCH  20  21
DOCKED: ENDBRANCH  19  20
DOCKED: ENDBRANCH  18  19
DOCKED: ENDBRANCH   4  18
DOCKED: TORSDOF 14
DOCKED: TER
DOCKED: ENDMDL
________________________________________________________________________________


    FINAL DOCKED STATE:
    ________________________


Run:   6 / 20
Time taken for this run:   0.127s

DOCKED: MODEL        6
DOCKED: USER    Run = 6
DOCKED: USER
DOCKED: USER    Estimated Free Energy of Binding    =  -3.87 kcal/mol  [=(1)+(2)+(3)-(4)]
DOCKED: USER
DOCKED: USER    (1) Final Intermolecular Energy     =  -8.04 kcal/mol
DOCKED: USER        vdW + Hbond + desolv Energy     =  -7.93 kcal/mol
DOCKED: USER        Electrostatic Energy            =  -0.11 kcal/mol
DOCKED: USER        Moving Ligand-Fixed Receptor    =  -8.04 kcal/mol
DOCKED: USER        Moving Ligand-Moving Receptor   =  +0.00 kcal/mol
DOCKED: USER    (2) Final Total Internal Energy     =  -7.29 kcal/mol
DOCKED: USER    (3) Torsional Free Energy           =  +4.18 kcal/mol
DOCKED: USER    (4) Unbound System's Energy         =  -7.29 kcal/mol
DOCKED: USER
DOCKED: USER
DOCKED: REMARK SMILES C[C@H](C(=O)/N=c1\[nH]nc(CCCCc2n[nH]/c(=N\C(=O)[C@H]3COc4ccccc4C3)s2)s1)C(C)(C)CO
DOCKED: REMARK SMILES IDX 6 1 7 2 8 3 9 4 32 5 5 7 3 8 4 9 2 10 1 11 33 12 34 13 35 14
DOCKED: REMARK SMILES IDX 36 15 37 16 10 18 11 19 12 20 13 21 14 22 15 23 31 24 16 25
DOCKED: REMARK SMILES IDX 17 26 18 28 19 29 20 30 21 31 22 32 30 33 23 34 29 35 24 36
DOCKED: REMARK SMILES IDX 28 37 25 38 27 39 26 40
DOCKED: REMARK H PARENT 7 6 37 17 16 27
DOCKED: USER                              x       y       z     vdW  Elec       q    Type
DOCKED: USER                           _______ _______ _______ _____ _____    ______ ____
DOCKED: ROOT
DOCKED: ATOM      1  C   UNL     1     138.435  77.312 221.757 -0.15 -0.04    +0.208 A  
DOCKED: ATOM      2  N   UNL     1     138.909  76.852 220.593 -0.04 +0.06    -0.251 N  
DOCKED: ATOM      3  N   UNL     1     138.604  75.619 220.338 -0.05 +0.04    -0.167 NA 
DOCKED: ATOM      4  C   UNL     1     137.999  74.836 220.923 -0.10 -0.03    +0.116 A  
DOCKED: ATOM      5  S   UNL     1     137.524  75.856 222.459 -0.28 +0.02    -0.080 S  
DOCKED: ATOM      6  H   UNL     1     139.487  77.498 219.966 +0.05 -0.05    +0.193 HD 
DOCKED: ENDROOT
DOCKED: BRANCH   1   7
DOCKED: ATOM      7  N   UNL     1     138.516  78.435 222.347 -0.15 +0.03    -0.184 NA 
DOCKED: BRANCH   7   8
DOCKED: ATOM      8  C   UNL     1     139.249  79.534 221.770 -0.12 -0.05    +0.251 C  
DOCKED: ATOM      9  O   UNL     1     139.096  79.684 220.520 -0.04 +0.07    -0.272 OA 
DOCKED: BRANCH   8  10
DOCKED: ATOM     10  C   UNL     1     140.111  80.426 222.548 -0.31 -0.02    +0.086 C  
DOCKED: ATOM     11  C   UNL     1     139.447  80.628 223.894 -0.34 -0.00    +0.019 C  
DOCKED: BRANCH  10  12
DOCKED: ATOM     12  C   UNL     1     141.500  79.828 222.707 -0.54 +0.00    -0.001 C  
DOCKED: ATOM     13  C   UNL     1     142.472  80.871 223.219 -0.62 -0.00    +0.014 C  
DOCKED: ATOM     14  C   UNL     1     141.371  78.648 223.649 -0.54 -0.00    +0.014 C  
DOCKED: BRANCH  12  15
DOCKED: ATOM     15  C   UNL     1     141.990  79.287 221.378 -0.23 -0.09    +0.163 C  
DOCKED: BRANCH  15  16
DOCKED: ATOM     16  O   UNL     1     141.347  78.099 221.028 -0.13 +0.20    -0.396 OA 
DOCKED: ATOM     17  H   UNL     1     140.673  78.216 220.324 +0.08 -0.08    +0.210 HD 
DOCKED: ENDBRANCH  15  16
DOCKED: ENDBRANCH  12  15
DOCKED: ENDBRANCH  10  12
DOCKED: ENDBRANCH   8  10
DOCKED: ENDBRANCH   7   8
DOCKED: ENDBRANCH   1   7
DOCKED: BRANCH   4  18
DOCKED: ATOM     18  C   UNL     1     137.526  73.402 220.858 -0.08 -0.01    +0.070 C  
DOCKED: BRANCH  18  19
DOCKED: ATOM     19  C   UNL     1     137.847  72.628 222.093 -0.15 -0.00    +0.008 C  
DOCKED: BRANCH  19  20
DOCKED: ATOM     20  C   UNL     1     138.987  71.706 222.052 -0.20 -0.00    +0.008 C  
DOCKED: BRANCH  20  21
DOCKED: ATOM     21  C   UNL     1     140.289  72.121 222.605 -0.30 -0.01    +0.070 C  
DOCKED: BRANCH  21  22
DOCKED: ATOM     22  C   UNL     1     140.955  73.212 221.910 -0.22 -0.01    +0.116 A  
DOCKED: ATOM     23  N   UNL     1     141.052  74.497 221.990 -0.58 +0.01    -0.167 NA 
DOCKED: ATOM     24  S   UNL     1     142.089  72.923 220.428 -0.26 +0.01    -0.080 S  
DOCKED: ATOM     25  N   UNL     1     141.735  75.237 221.242 -0.19 +0.09    -0.251 N  
DOCKED: ATOM     26  C   UNL     1     142.463  74.675 220.232 -0.20 -0.07    +0.208 A  
DOCKED: ATOM     27  H   UNL     1     141.790  76.307 221.341 -0.29 -0.11    +0.193 HD 
DOCKED: BRANCH  26  28
DOCKED: ATOM     28  N   UNL     1     143.216  75.187 219.359 -0.22 +0.08    -0.183 NA 
DOCKED: BRANCH  28  29
DOCKED: ATOM     29  C   UNL     1     142.720  75.444 218.056 -0.11 -0.11    +0.255 C  
DOCKED: ATOM     30  O   UNL     1     142.767  74.584 217.129 -0.04 +0.09    -0.272 OA 
DOCKED: BRANCH  29  31
DOCKED: ATOM     31  C   UNL     1     142.129  76.791 217.813 -0.16 -0.06    +0.123 C  
DOCKED: ATOM     32  C   UNL     1     140.676  76.745 218.190 -0.03 -0.09    +0.243 C  
DOCKED: ATOM     33  C   UNL     1     142.898  77.881 218.509 -0.24 -0.04    +0.056 C  
DOCKED: ATOM     34  O   UNL     1     140.089  78.026 218.247 +0.01 +0.18    -0.492 OA 
DOCKED: ATOM     35  C   UNL     1     142.241  79.164 218.150 -0.30 +0.00    -0.005 A  
DOCKED: ATOM     36  C   UNL     1     140.867  79.156 218.040 -0.09 -0.06    +0.122 A  
DOCKED: ATOM     37  C   UNL     1     142.906  80.334 217.925 -0.30 -0.01    +0.007 A  
DOCKED: ATOM     38  C   UNL     1     140.205  80.320 217.711 -0.06 -0.02    +0.047 A  
DOCKED: ATOM     39  C   UNL     1     142.241  81.514 217.590 -0.28 -0.00    +0.001 A  
DOCKED: ATOM     40  C   UNL     1     140.862  81.520 217.477 -0.12 -0.00    +0.004 A  
DOCKED: ENDBRANCH  29  31
DOCKED: ENDBRANCH  28  29
DOCKED: ENDBRANCH  26  28
DOCKED: ENDBRANCH  21  22
DOCKED: ENDBRANCH  20  21
DOCKED: ENDBRANCH  19  20
DOCKED: ENDBRANCH  18  19
DOCKED: ENDBRANCH   4  18
DOCKED: TORSDOF 14
DOCKED: TER
DOCKED: ENDMDL
________________________________________________________________________________


    FINAL DOCKED STATE:
    ________________________


Run:   7 / 20
Time taken for this run:   0.127s

DOCKED: MODEL        7
DOCKED: USER    Run = 7
DOCKED: USER
DOCKED: USER    Estimated Free Energy of Binding    =  -5.55 kcal/mol  [=(1)+(2)+(3)-(4)]
DOCKED: USER
DOCKED: USER    (1) Final Intermolecular Energy     =  -9.73 kcal/mol
DOCKED: USER        vdW + Hbond + desolv Energy     =  -9.69 kcal/mol
DOCKED: USER        Electrostatic Energy            =  -0.04 kcal/mol
DOCKED: USER        Moving Ligand-Fixed Receptor    =  -9.73 kcal/mol
DOCKED: USER        Moving Ligand-Moving Receptor   =  +0.00 kcal/mol
DOCKED: USER    (2) Final Total Internal Energy     =  -4.22 kcal/mol
DOCKED: USER    (3) Torsional Free Energy           =  +4.18 kcal/mol
DOCKED: USER    (4) Unbound System's Energy         =  -4.22 kcal/mol
DOCKED: USER
DOCKED: USER
DOCKED: REMARK SMILES C[C@H](C(=O)/N=c1\[nH]nc(CCCCc2n[nH]/c(=N\C(=O)[C@H]3COc4ccccc4C3)s2)s1)C(C)(C)CO
DOCKED: REMARK SMILES IDX 6 1 7 2 8 3 9 4 32 5 5 7 3 8 4 9 2 10 1 11 33 12 34 13 35 14
DOCKED: REMARK SMILES IDX 36 15 37 16 10 18 11 19 12 20 13 21 14 22 15 23 31 24 16 25
DOCKED: REMARK SMILES IDX 17 26 18 28 19 29 20 30 21 31 22 32 30 33 23 34 29 35 24 36
DOCKED: REMARK SMILES IDX 28 37 25 38 27 39 26 40
DOCKED: REMARK H PARENT 7 6 37 17 16 27
DOCKED: USER                              x       y       z     vdW  Elec       q    Type
DOCKED: USER                           _______ _______ _______ _____ _____    ______ ____
DOCKED: ROOT
DOCKED: ATOM      1  C   UNL     1     140.906  74.444 221.467 -0.23 -0.03    +0.208 A  
DOCKED: ATOM      2  N   UNL     1     141.028  75.694 221.931 -0.25 +0.07    -0.251 N  
DOCKED: ATOM      3  N   UNL     1     139.922  76.219 222.355 -0.36 +0.03    -0.167 NA 
DOCKED: ATOM      4  C   UNL     1     138.847  75.817 222.410 -0.25 -0.03    +0.116 A  
DOCKED: ATOM      5  S   UNL     1     139.100  74.078 221.679 -0.27 +0.02    -0.080 S  
DOCKED: ATOM      6  H   UNL     1     141.987  76.167 221.927 -0.51 -0.14    +0.193 HD 
DOCKED: ENDROOT
DOCKED: BRANCH   1   7
DOCKED: ATOM      7  N   UNL     1     141.735  73.613 220.979 -0.20 +0.03    -0.184 NA 
DOCKED: BRANCH   7   8
DOCKED: ATOM      8  C   UNL     1     142.858  74.049 220.187 -0.19 -0.07    +0.251 C  
DOCKED: ATOM      9  O   UNL     1     143.308  75.198 220.481 -0.25 +0.15    -0.272 OA 
DOCKED: BRANCH   8  10
DOCKED: ATOM     10  C   UNL     1     143.453  73.244 219.118 -0.17 -0.02    +0.086 C  
DOCKED: ATOM     11  C   UNL     1     144.029  74.206 218.101 -0.17 -0.01    +0.019 C  
DOCKED: BRANCH  10  12
DOCKED: ATOM     12  C   UNL     1     144.530  72.325 219.673 -0.33 -0.00    -0.001 C  
DOCKED: ATOM     13  C   UNL     1     143.925  71.013 220.128 -0.23 -0.00    +0.014 C  
DOCKED: ATOM     14  C   UNL     1     145.561  72.136 218.578 -0.16 +0.01    +0.014 C  
DOCKED: BRANCH  12  15
DOCKED: ATOM     15  C   UNL     1     145.234  72.991 220.839 -0.45 -0.02    +0.163 C  
DOCKED: BRANCH  15  16
DOCKED: ATOM     16  O   UNL     1     145.976  74.101 220.436 -0.37 +0.06    -0.396 OA 
DOCKED: ATOM     17  H   UNL     1     145.422  74.834 220.091 -0.20 -0.11    +0.210 HD 
DOCKED: ENDBRANCH  15  16
DOCKED: ENDBRANCH  12  15
DOCKED: ENDBRANCH  10  12
DOCKED: ENDBRANCH   8  10
DOCKED: ENDBRANCH   7   8
DOCKED: ENDBRANCH   1   7
DOCKED: BRANCH   4  18
DOCKED: ATOM     18  C   UNL     1     137.449  76.207 222.829 -0.24 -0.02    +0.070 C  
DOCKED: BRANCH  18  19
DOCKED: ATOM     19  C   UNL     1     136.559  76.516 221.671 -0.13 -0.00    +0.008 C  
DOCKED: BRANCH  19  20
DOCKED: ATOM     20  C   UNL     1     136.175  77.913 221.450 -0.08 -0.00    +0.008 C  
DOCKED: BRANCH  20  21
DOCKED: ATOM     21  C   UNL     1     135.936  78.801 222.602 -0.12 -0.01    +0.070 C  
DOCKED: BRANCH  21  22
DOCKED: ATOM     22  C   UNL     1     137.111  79.463 223.148 -0.18 -0.02    +0.116 A  
DOCKED: ATOM     23  N   UNL     1     137.408  80.282 224.101 -0.22 +0.02    -0.167 NA 
DOCKED: ATOM     24  S   UNL     1     138.842  79.189 222.445 -0.30 +0.01    -0.080 S  
DOCKED: ATOM     25  N   UNL     1     138.553  80.706 224.384 -0.24 +0.02    -0.251 N  
DOCKED: ATOM     26  C   UNL     1     139.621  80.289 223.642 -0.30 -0.03    +0.208 A  
DOCKED: ATOM     27  H   UNL     1     138.761  81.390 225.188 +0.10 -0.01    +0.193 HD 
DOCKED: BRANCH  26  28
DOCKED: ATOM     28  N   UNL     1     140.851  80.561 223.719 -0.32 +0.03    -0.183 NA 
DOCKED: BRANCH  28  29
DOCKED: ATOM     29  C   UNL     1     141.512  81.174 222.625 -0.34 -0.05    +0.255 C  
DOCKED: ATOM     30  O   UNL     1     141.743  82.418 222.581 -0.22 +0.03    -0.272 OA 
DOCKED: BRANCH  29  31
DOCKED: ATOM     31  C   UNL     1     141.934  80.283 221.506 -0.36 -0.05    +0.123 C  
DOCKED: ATOM     32  C   UNL     1     141.929  78.866 222.003 -0.27 -0.13    +0.243 C  
DOCKED: ATOM     33  C   UNL     1     141.101  80.492 220.271 -0.26 -0.02    +0.056 C  
DOCKED: ATOM     34  O   UNL     1     142.057  77.925 220.960 -0.09 +0.35    -0.492 OA 
DOCKED: ATOM     35  C   UNL     1     141.650  79.588 219.228 -0.27 +0.00    -0.005 A  
DOCKED: ATOM     36  C   UNL     1     142.097  78.351 219.641 -0.19 -0.08    +0.122 A  
DOCKED: ATOM     37  C   UNL     1     141.737  79.903 217.903 -0.24 -0.00    +0.007 A  
DOCKED: ATOM     38  C   UNL     1     142.615  77.472 218.714 -0.31 -0.03    +0.047 A  
DOCKED: ATOM     39  C   UNL     1     142.261  79.017 216.961 -0.22 -0.00    +0.001 A  
DOCKED: ATOM     40  C   UNL     1     142.713  77.773 217.363 -0.28 -0.00    +0.004 A  
DOCKED: ENDBRANCH  29  31
DOCKED: ENDBRANCH  28  29
DOCKED: ENDBRANCH  26  28
DOCKED: ENDBRANCH  21  22
DOCKED: ENDBRANCH  20  21
DOCKED: ENDBRANCH  19  20
DOCKED: ENDBRANCH  18  19
DOCKED: ENDBRANCH   4  18
DOCKED: TORSDOF 14
DOCKED: TER
DOCKED: ENDMDL
________________________________________________________________________________


    FINAL DOCKED STATE:
    ________________________


Run:   8 / 20
Time taken for this run:   0.127s

DOCKED: MODEL        8
DOCKED: USER    Run = 8
DOCKED: USER
DOCKED: USER    Estimated Free Energy of Binding    =  -6.63 kcal/mol  [=(1)+(2)+(3)-(4)]
DOCKED: USER
DOCKED: USER    (1) Final Intermolecular Energy     = -10.80 kcal/mol
DOCKED: USER        vdW + Hbond + desolv Energy     = -10.69 kcal/mol
DOCKED: USER        Electrostatic Energy            =  -0.12 kcal/mol
DOCKED: USER        Moving Ligand-Fixed Receptor    = -10.80 kcal/mol
DOCKED: USER        Moving Ligand-Moving Receptor   =  +0.00 kcal/mol
DOCKED: USER    (2) Final Total Internal Energy     =  -3.22 kcal/mol
DOCKED: USER    (3) Torsional Free Energy           =  +4.18 kcal/mol
DOCKED: USER    (4) Unbound System's Energy         =  -3.22 kcal/mol
DOCKED: USER
DOCKED: USER
DOCKED: REMARK SMILES C[C@H](C(=O)/N=c1\[nH]nc(CCCCc2n[nH]/c(=N\C(=O)[C@H]3COc4ccccc4C3)s2)s1)C(C)(C)CO
DOCKED: REMARK SMILES IDX 6 1 7 2 8 3 9 4 32 5 5 7 3 8 4 9 2 10 1 11 33 12 34 13 35 14
DOCKED: REMARK SMILES IDX 36 15 37 16 10 18 11 19 12 20 13 21 14 22 15 23 31 24 16 25
DOCKED: REMARK SMILES IDX 17 26 18 28 19 29 20 30 21 31 22 32 30 33 23 34 29 35 24 36
DOCKED: REMARK SMILES IDX 28 37 25 38 27 39 26 40
DOCKED: REMARK H PARENT 7 6 37 17 16 27
DOCKED: USER                              x       y       z     vdW  Elec       q    Type
DOCKED: USER                           _______ _______ _______ _____ _____    ______ ____
DOCKED: ROOT
DOCKED: ATOM      1  C   UNL     1     135.642  77.604 222.944 -0.11 -0.03    +0.208 A  
DOCKED: ATOM      2  N   UNL     1     136.627  76.843 222.452 -0.11 +0.05    -0.251 N  
DOCKED: ATOM      3  N   UNL     1     137.790  77.416 222.436 -0.17 +0.03    -0.167 NA 
DOCKED: ATOM      4  C   UNL     1     138.142  78.460 222.765 -0.21 -0.02    +0.116 A  
DOCKED: ATOM      5  S   UNL     1     136.496  79.192 223.380 -0.17 +0.01    -0.080 S  
DOCKED: ATOM      6  H   UNL     1     136.411  75.852 222.115 +0.04 -0.04    +0.193 HD 
DOCKED: ENDROOT
DOCKED: BRANCH   1   7
DOCKED: ATOM      7  N   UNL     1     134.398  77.408 223.122 -0.07 +0.02    -0.184 NA 
DOCKED: BRANCH   7   8
DOCKED: ATOM      8  C   UNL     1     133.898  76.813 224.337 -0.10 -0.03    +0.251 C  
DOCKED: ATOM      9  O   UNL     1     133.914  77.573 225.352 -0.13 +0.03    -0.272 OA 
DOCKED: BRANCH   8  10
DOCKED: ATOM     10  C   UNL     1     133.403  75.437 224.417 -0.13 -0.01    +0.086 C  
DOCKED: ATOM     11  C   UNL     1     132.864  75.076 223.049 -0.05 -0.00    +0.019 C  
DOCKED: BRANCH  10  12
DOCKED: ATOM     12  C   UNL     1     134.515  74.488 224.835 -0.31 +0.00    -0.001 C  
DOCKED: ATOM     13  C   UNL     1     135.720  75.265 225.324 -0.12 -0.00    +0.014 C  
DOCKED: ATOM     14  C   UNL     1     133.944  73.577 225.903 -0.32 +0.00    +0.014 C  
DOCKED: BRANCH  12  15
DOCKED: ATOM     15  C   UNL     1     134.917  73.610 223.667 -0.15 -0.03    +0.163 C  
DOCKED: BRANCH  15  16
DOCKED: ATOM     16  O   UNL     1     136.164  73.965 223.150 -0.10 +0.13    -0.396 OA 
DOCKED: ATOM     17  H   UNL     1     136.899  73.415 223.498 -0.50 -0.12    +0.210 HD 
DOCKED: ENDBRANCH  15  16
DOCKED: ENDBRANCH  12  15
DOCKED: ENDBRANCH  10  12
DOCKED: ENDBRANCH   8  10
DOCKED: ENDBRANCH   7   8
DOCKED: ENDBRANCH   1   7
DOCKED: BRANCH   4  18
DOCKED: ATOM     18  C   UNL     1     139.372  79.333 222.843 -0.31 -0.01    +0.070 C  
DOCKED: BRANCH  18  19
DOCKED: ATOM     19  C   UNL     1     140.582  78.687 222.252 -0.38 -0.00    +0.008 C  
DOCKED: BRANCH  19  20
DOCKED: ATOM     20  C   UNL     1     140.829  77.275 222.561 -0.40 -0.00    +0.008 C  
DOCKED: BRANCH  20  21
DOCKED: ATOM     21  C   UNL     1     140.969  76.297 221.467 -0.31 -0.03    +0.070 C  
DOCKED: BRANCH  21  22
DOCKED: ATOM     22  C   UNL     1     140.500  74.950 221.755 -0.25 -0.02    +0.116 A  
DOCKED: ATOM     23  N   UNL     1     140.993  73.777 221.976 -0.65 +0.00    -0.167 NA 
DOCKED: ATOM     24  S   UNL     1     138.666  74.536 221.932 -0.24 +0.02    -0.080 S  
DOCKED: ATOM     25  N   UNL     1     140.343  72.735 222.226 -0.21 +0.02    -0.251 N  
DOCKED: ATOM     26  C   UNL     1     138.979  72.796 222.280 -0.13 -0.06    +0.208 A  
DOCKED: ATOM     27  H   UNL     1     140.791  71.774 222.405 +0.07 -0.02    +0.193 HD 
DOCKED: BRANCH  26  28
DOCKED: ATOM     28  N   UNL     1     138.111  71.910 222.508 -0.12 +0.05    -0.183 NA 
DOCKED: BRANCH  28  29
DOCKED: ATOM     29  C   UNL     1     138.496  70.550 222.617 -0.12 -0.05    +0.255 C  
DOCKED: ATOM     30  O   UNL     1     138.612  69.792 221.609 -0.06 +0.05    -0.272 OA 
DOCKED: BRANCH  29  31
DOCKED: ATOM     31  C   UNL     1     138.767  70.034 223.989 -0.26 -0.02    +0.123 C  
DOCKED: ATOM     32  C   UNL     1     138.667  68.535 223.960 -0.21 -0.03    +0.243 C  
DOCKED: ATOM     33  C   UNL     1     140.074  70.540 224.537 -0.40 -0.01    +0.056 C  
DOCKED: ATOM     34  O   UNL     1     139.160  67.935 225.137 -0.59 +0.02    -0.492 OA 
DOCKED: ATOM     35  C   UNL     1     140.199  69.997 225.914 -0.50 +0.00    -0.005 A  
DOCKED: ATOM     36  C   UNL     1     139.731  68.719 226.130 -0.45 -0.02    +0.122 A  
DOCKED: ATOM     37  C   UNL     1     140.743  70.678 226.964 -0.64 -0.00    +0.007 A  
DOCKED: ATOM     38  C   UNL     1     139.823  68.165 227.389 -0.59 -0.01    +0.047 A  
DOCKED: ATOM     39  C   UNL     1     140.838  70.122 228.241 -0.58 -0.00    +0.001 A  
DOCKED: ATOM     40  C   UNL     1     140.371  68.840 228.470 -0.63 -0.00    +0.004 A  
DOCKED: ENDBRANCH  29  31
DOCKED: ENDBRANCH  28  29
DOCKED: ENDBRANCH  26  28
DOCKED: ENDBRANCH  21  22
DOCKED: ENDBRANCH  20  21
DOCKED: ENDBRANCH  19  20
DOCKED: ENDBRANCH  18  19
DOCKED: ENDBRANCH   4  18
DOCKED: TORSDOF 14
DOCKED: TER
DOCKED: ENDMDL
________________________________________________________________________________


    FINAL DOCKED STATE:
    ________________________


Run:   9 / 20
Time taken for this run:   0.127s

DOCKED: MODEL        9
DOCKED: USER    Run = 9
DOCKED: USER
DOCKED: USER    Estimated Free Energy of Binding    =  -5.14 kcal/mol  [=(1)+(2)+(3)-(4)]
DOCKED: USER
DOCKED: USER    (1) Final Intermolecular Energy     =  -9.32 kcal/mol
DOCKED: USER        vdW + Hbond + desolv Energy     =  -8.94 kcal/mol
DOCKED: USER        Electrostatic Energy            =  -0.38 kcal/mol
DOCKED: USER        Moving Ligand-Fixed Receptor    =  -9.32 kcal/mol
DOCKED: USER        Moving Ligand-Moving Receptor   =  +0.00 kcal/mol
DOCKED: USER    (2) Final Total Internal Energy     =  -5.92 kcal/mol
DOCKED: USER    (3) Torsional Free Energy           =  +4.18 kcal/mol
DOCKED: USER    (4) Unbound System's Energy         =  -5.92 kcal/mol
DOCKED: USER
DOCKED: USER
DOCKED: REMARK SMILES C[C@H](C(=O)/N=c1\[nH]nc(CCCCc2n[nH]/c(=N\C(=O)[C@H]3COc4ccccc4C3)s2)s1)C(C)(C)CO
DOCKED: REMARK SMILES IDX 6 1 7 2 8 3 9 4 32 5 5 7 3 8 4 9 2 10 1 11 33 12 34 13 35 14
DOCKED: REMARK SMILES IDX 36 15 37 16 10 18 11 19 12 20 13 21 14 22 15 23 31 24 16 25
DOCKED: REMARK SMILES IDX 17 26 18 28 19 29 20 30 21 31 22 32 30 33 23 34 29 35 24 36
DOCKED: REMARK SMILES IDX 28 37 25 38 27 39 26 40
DOCKED: REMARK H PARENT 7 6 37 17 16 27
DOCKED: USER                              x       y       z     vdW  Elec       q    Type
DOCKED: USER                           _______ _______ _______ _____ _____    ______ ____
DOCKED: ROOT
DOCKED: ATOM      1  C   UNL     1     141.777  78.657 219.415 -0.19 -0.12    +0.208 A  
DOCKED: ATOM      2  N   UNL     1     142.222  78.114 220.555 -0.11 +0.19    -0.251 N  
DOCKED: ATOM      3  N   UNL     1     141.652  78.571 221.625 -0.27 +0.09    -0.167 NA 
DOCKED: ATOM      4  C   UNL     1     140.831  79.359 221.788 -0.27 -0.04    +0.116 A  
DOCKED: ATOM      5  S   UNL     1     140.490  79.865 219.984 -0.20 +0.03    -0.080 S  
DOCKED: ATOM      6  H   UNL     1     142.987  77.367 220.521 -0.35 -0.20    +0.193 HD 
DOCKED: ENDROOT
DOCKED: BRANCH   1   7
DOCKED: ATOM      7  N   UNL     1     142.076  78.479 218.192 -0.19 +0.13    -0.184 NA 
DOCKED: BRANCH   7   8
DOCKED: ATOM      8  C   UNL     1     142.901  77.373 217.774 -0.19 -0.18    +0.251 C  
DOCKED: ATOM      9  O   UNL     1     143.586  76.836 218.696 -0.26 +0.19    -0.272 OA 
DOCKED: BRANCH   8  10
DOCKED: ATOM     10  C   UNL     1     142.960  76.888 216.394 -0.19 -0.06    +0.086 C  
DOCKED: ATOM     11  C   UNL     1     144.221  76.059 216.265 -0.19 -0.01    +0.019 C  
DOCKED: BRANCH  10  12
DOCKED: ATOM     12  C   UNL     1     141.727  76.063 216.060 -0.06 +0.00    -0.001 C  
DOCKED: ATOM     13  C   UNL     1     140.489  76.936 216.061 -0.03 -0.01    +0.014 C  
DOCKED: ATOM     14  C   UNL     1     141.976  75.416 214.712 -0.03 -0.00    +0.014 C  
DOCKED: BRANCH  12  15
DOCKED: ATOM     15  C   UNL     1     141.560  74.944 217.069 -0.02 -0.05    +0.163 C  
DOCKED: BRANCH  15  16
DOCKED: ATOM     16  O   UNL     1     141.131  75.417 218.309 -0.00 +0.13    -0.396 OA 
DOCKED: ATOM     17  H   UNL     1     141.860  75.523 218.957 +0.07 -0.08    +0.210 HD 
DOCKED: ENDBRANCH  15  16
DOCKED: ENDBRANCH  12  15
DOCKED: ENDBRANCH  10  12
DOCKED: ENDBRANCH   8  10
DOCKED: ENDBRANCH   7   8
DOCKED: ENDBRANCH   1   7
DOCKED: BRANCH   4  18
DOCKED: ATOM     18  C   UNL     1     140.036  80.045 222.873 -0.36 -0.01    +0.070 C  
DOCKED: BRANCH  18  19
DOCKED: ATOM     19  C   UNL     1     139.033  79.145 223.516 -0.32 -0.00    +0.008 C  
DOCKED: BRANCH  19  20
DOCKED: ATOM     20  C   UNL     1     137.996  78.551 222.667 -0.24 -0.00    +0.008 C  
DOCKED: BRANCH  20  21
DOCKED: ATOM     21  C   UNL     1     137.882  77.084 222.562 -0.25 -0.01    +0.070 C  
DOCKED: BRANCH  21  22
DOCKED: ATOM     22  C   UNL     1     139.089  76.382 222.154 -0.27 -0.02    +0.116 A  
DOCKED: ATOM     23  N   UNL     1     140.350  76.377 222.433 -0.33 +0.04    -0.167 NA 
DOCKED: ATOM     24  S   UNL     1     139.069  75.007 220.861 -0.19 +0.02    -0.080 S  
DOCKED: ATOM     25  N   UNL     1     141.218  75.628 221.927 -0.22 +0.07    -0.251 N  
DOCKED: ATOM     26  C   UNL     1     140.842  74.713 220.985 -0.20 -0.05    +0.208 A  
DOCKED: ATOM     27  H   UNL     1     142.262  75.654 222.186 -0.48 -0.13    +0.193 HD 
DOCKED: BRANCH  26  28
DOCKED: ATOM     28  N   UNL     1     141.508  73.860 220.335 -0.13 +0.04    -0.183 NA 
DOCKED: BRANCH  28  29
DOCKED: ATOM     29  C   UNL     1     142.898  74.050 220.131 -0.19 -0.07    +0.255 C  
DOCKED: ATOM     30  O   UNL     1     143.485  75.135 220.411 -0.28 +0.15    -0.272 OA 
DOCKED: BRANCH  29  31
DOCKED: ATOM     31  C   UNL     1     143.659  72.900 219.564 -0.20 -0.02    +0.123 C  
DOCKED: ATOM     32  C   UNL     1     145.068  73.349 219.299 -0.24 -0.00    +0.243 C  
DOCKED: ATOM     33  C   UNL     1     143.570  71.676 220.435 -0.27 -0.01    +0.056 C  
DOCKED: ATOM     34  O   UNL     1     145.935  72.275 219.010 -0.59 -0.47    -0.492 OA 
DOCKED: ATOM     35  C   UNL     1     144.322  70.601 219.740 -0.24 -0.00    -0.005 A  
DOCKED: ATOM     36  C   UNL     1     145.467  70.970 219.065 -0.24 +0.06    +0.122 A  
DOCKED: ATOM     37  C   UNL     1     143.955  69.287 219.728 -0.27 +0.00    +0.007 A  
DOCKED: ATOM     38  C   UNL     1     146.204  70.012 218.403 -0.24 +0.04    +0.047 A  
DOCKED: ATOM     39  C   UNL     1     144.697  68.313 219.059 -0.35 -0.00    +0.001 A  
DOCKED: ATOM     40  C   UNL     1     145.847  68.671 218.379 -0.35 +0.00    +0.004 A  
DOCKED: ENDBRANCH  29  31
DOCKED: ENDBRANCH  28  29
DOCKED: ENDBRANCH  26  28
DOCKED: ENDBRANCH  21  22
DOCKED: ENDBRANCH  20  21
DOCKED: ENDBRANCH  19  20
DOCKED: ENDBRANCH  18  19
DOCKED: ENDBRANCH   4  18
DOCKED: TORSDOF 14
DOCKED: TER
DOCKED: ENDMDL
________________________________________________________________________________


    FINAL DOCKED STATE:
    ________________________


Run:   10 / 20
Time taken for this run:   0.127s

DOCKED: MODEL        10
DOCKED: USER    Run = 10
DOCKED: USER
DOCKED: USER    Estimated Free Energy of Binding    =  -7.98 kcal/mol  [=(1)+(2)+(3)-(4)]
DOCKED: USER
DOCKED: USER    (1) Final Intermolecular Energy     = -12.15 kcal/mol
DOCKED: USER        vdW + Hbond + desolv Energy     = -12.11 kcal/mol
DOCKED: USER        Electrostatic Energy            =  -0.05 kcal/mol
DOCKED: USER        Moving Ligand-Fixed Receptor    = -12.15 kcal/mol
DOCKED: USER        Moving Ligand-Moving Receptor   =  +0.00 kcal/mol
DOCKED: USER    (2) Final Total Internal Energy     =  -3.54 kcal/mol
DOCKED: USER    (3) Torsional Free Energy           =  +4.18 kcal/mol
DOCKED: USER    (4) Unbound System's Energy         =  -3.54 kcal/mol
DOCKED: USER
DOCKED: USER
DOCKED: REMARK SMILES C[C@H](C(=O)/N=c1\[nH]nc(CCCCc2n[nH]/c(=N\C(=O)[C@H]3COc4ccccc4C3)s2)s1)C(C)(C)CO
DOCKED: REMARK SMILES IDX 6 1 7 2 8 3 9 4 32 5 5 7 3 8 4 9 2 10 1 11 33 12 34 13 35 14
DOCKED: REMARK SMILES IDX 36 15 37 16 10 18 11 19 12 20 13 21 14 22 15 23 31 24 16 25
DOCKED: REMARK SMILES IDX 17 26 18 28 19 29 20 30 21 31 22 32 30 33 23 34 29 35 24 36
DOCKED: REMARK SMILES IDX 28 37 25 38 27 39 26 40
DOCKED: REMARK H PARENT 7 6 37 17 16 27
DOCKED: USER                              x       y       z     vdW  Elec       q    Type
DOCKED: USER                           _______ _______ _______ _____ _____    ______ ____
DOCKED: ROOT
DOCKED: ATOM      1  C   UNL     1     142.029  78.552 218.393 -0.20 -0.14    +0.208 A  
DOCKED: ATOM      2  N   UNL     1     142.960  78.622 217.434 -0.18 +0.28    -0.251 N  
DOCKED: ATOM      3  N   UNL     1     143.212  77.494 216.848 -0.20 +0.15    -0.167 NA 
DOCKED: ATOM      4  C   UNL     1     142.788  76.436 216.993 -0.17 -0.07    +0.116 A  
DOCKED: ATOM      5  S   UNL     1     141.543  76.762 218.396 -0.18 +0.04    -0.080 S  
DOCKED: ATOM      6  H   UNL     1     143.423  79.560 217.215 -0.52 -0.38    +0.193 HD 
DOCKED: ENDROOT
DOCKED: BRANCH   1   7
DOCKED: ATOM      7  N   UNL     1     141.519  79.415 219.175 -0.16 +0.10    -0.184 NA 
DOCKED: BRANCH   7   8
DOCKED: ATOM      8  C   UNL     1     141.713  79.343 220.602 -0.19 -0.13    +0.251 C  
DOCKED: ATOM      9  O   UNL     1     142.260  78.277 221.016 -0.18 +0.21    -0.272 OA 
DOCKED: BRANCH   8  10
DOCKED: ATOM     10  C   UNL     1     141.318  80.410 221.524 -0.35 -0.03    +0.086 C  
DOCKED: ATOM     11  C   UNL     1     140.128  81.115 220.909 -0.21 -0.00    +0.019 C  
DOCKED: BRANCH  10  12
DOCKED: ATOM     12  C   UNL     1     140.971  79.839 222.890 -0.49 +0.00    -0.001 C  
DOCKED: ATOM     13  C   UNL     1     142.222  79.664 223.726 -0.61 -0.00    +0.014 C  
DOCKED: ATOM     14  C   UNL     1     139.978  80.788 223.530 -0.40 -0.00    +0.014 C  
DOCKED: BRANCH  12  15
DOCKED: ATOM     15  C   UNL     1     140.274  78.501 222.734 -0.33 -0.04    +0.163 C  
DOCKED: BRANCH  15  16
DOCKED: ATOM     16  O   UNL     1     141.099  77.436 223.097 -0.25 +0.14    -0.396 OA 
DOCKED: ATOM     17  H   UNL     1     141.798  77.245 222.436 -0.38 -0.14    +0.210 HD 
DOCKED: ENDBRANCH  15  16
DOCKED: ENDBRANCH  12  15
DOCKED: ENDBRANCH  10  12
DOCKED: ENDBRANCH   8  10
DOCKED: ENDBRANCH   7   8
DOCKED: ENDBRANCH   1   7
DOCKED: BRANCH   4  18
DOCKED: ATOM     18  C   UNL     1     142.908  75.022 216.474 -0.09 -0.03    +0.070 C  
DOCKED: BRANCH  18  19
DOCKED: ATOM     19  C   UNL     1     142.797  73.996 217.554 -0.08 -0.00    +0.008 C  
DOCKED: BRANCH  19  20
DOCKED: ATOM     20  C   UNL     1     143.867  73.930 218.555 -0.21 -0.00    +0.008 C  
DOCKED: BRANCH  20  21
DOCKED: ATOM     21  C   UNL     1     143.813  74.796 219.746 -0.36 -0.03    +0.070 C  
DOCKED: BRANCH  21  22
DOCKED: ATOM     22  C   UNL     1     142.608  74.692 220.554 -0.26 -0.04    +0.116 A  
DOCKED: ATOM     23  N   UNL     1     141.824  75.463 221.230 -0.21 +0.07    -0.167 NA 
DOCKED: ATOM     24  S   UNL     1     141.717  73.051 220.831 -0.29 +0.01    -0.080 S  
DOCKED: ATOM     25  N   UNL     1     140.794  75.112 221.853 -0.22 +0.04    -0.251 N  
DOCKED: ATOM     26  C   UNL     1     140.426  73.796 221.843 -0.19 -0.02    +0.208 A  
DOCKED: ATOM     27  H   UNL     1     140.165  75.786 222.406 +0.05 -0.03    +0.193 HD 
DOCKED: BRANCH  26  28
DOCKED: ATOM     28  N   UNL     1     139.453  73.196 222.378 -0.49 +0.04    -0.183 NA 
DOCKED: BRANCH  28  29
DOCKED: ATOM     29  C   UNL     1     139.438  71.779 222.433 -0.19 -0.05    +0.255 C  
DOCKED: ATOM     30  O   UNL     1     139.403  71.058 221.394 -0.08 +0.05    -0.272 OA 
DOCKED: BRANCH  29  31
DOCKED: ATOM     31  C   UNL     1     139.465  71.157 223.788 -0.32 -0.03    +0.123 C  
DOCKED: ATOM     32  C   UNL     1     139.229  69.681 223.636 -0.17 -0.04    +0.243 C  
DOCKED: ATOM     33  C   UNL     1     140.724  71.492 224.541 -0.40 -0.01    +0.056 C  
DOCKED: ATOM     34  O   UNL     1     139.494  68.964 224.821 -0.11 +0.08    -0.492 OA 
DOCKED: ATOM     35  C   UNL     1     140.604  70.857 225.878 -0.59 +0.00    -0.005 A  
DOCKED: ATOM     36  C   UNL     1     139.992  69.623 225.935 -0.39 -0.02    +0.122 A  
DOCKED: ATOM     37  C   UNL     1     141.058  71.414 227.038 -0.74 -0.00    +0.007 A  
DOCKED: ATOM     38  C   UNL     1     139.855  68.989 227.151 -0.56 -0.01    +0.047 A  
DOCKED: ATOM     39  C   UNL     1     140.921  70.776 228.272 -0.62 -0.00    +0.001 A  
DOCKED: ATOM     40  C   UNL     1     140.309  69.538 228.343 -0.62 -0.00    +0.004 A  
DOCKED: ENDBRANCH  29  31
DOCKED: ENDBRANCH  28  29
DOCKED: ENDBRANCH  26  28
DOCKED: ENDBRANCH  21  22
DOCKED: ENDBRANCH  20  21
DOCKED: ENDBRANCH  19  20
DOCKED: ENDBRANCH  18  19
DOCKED: ENDBRANCH   4  18
DOCKED: TORSDOF 14
DOCKED: TER
DOCKED: ENDMDL
________________________________________________________________________________


    FINAL DOCKED STATE:
    ________________________


Run:   11 / 20
Time taken for this run:   0.127s

DOCKED: MODEL        11
DOCKED: USER    Run = 11
DOCKED: USER
DOCKED: USER    Estimated Free Energy of Binding    =  -5.07 kcal/mol  [=(1)+(2)+(3)-(4)]
DOCKED: USER
DOCKED: USER    (1) Final Intermolecular Energy     =  -9.24 kcal/mol
DOCKED: USER        vdW + Hbond + desolv Energy     =  -9.22 kcal/mol
DOCKED: USER        Electrostatic Energy            =  -0.03 kcal/mol
DOCKED: USER        Moving Ligand-Fixed Receptor    =  -9.24 kcal/mol
DOCKED: USER        Moving Ligand-Moving Receptor   =  +0.00 kcal/mol
DOCKED: USER    (2) Final Total Internal Energy     =  -5.09 kcal/mol
DOCKED: USER    (3) Torsional Free Energy           =  +4.18 kcal/mol
DOCKED: USER    (4) Unbound System's Energy         =  -5.09 kcal/mol
DOCKED: USER
DOCKED: USER
DOCKED: REMARK SMILES C[C@H](C(=O)/N=c1\[nH]nc(CCCCc2n[nH]/c(=N\C(=O)[C@H]3COc4ccccc4C3)s2)s1)C(C)(C)CO
DOCKED: REMARK SMILES IDX 6 1 7 2 8 3 9 4 32 5 5 7 3 8 4 9 2 10 1 11 33 12 34 13 35 14
DOCKED: REMARK SMILES IDX 36 15 37 16 10 18 11 19 12 20 13 21 14 22 15 23 31 24 16 25
DOCKED: REMARK SMILES IDX 17 26 18 28 19 29 20 30 21 31 22 32 30 33 23 34 29 35 24 36
DOCKED: REMARK SMILES IDX 28 37 25 38 27 39 26 40
DOCKED: REMARK H PARENT 7 6 37 17 16 27
DOCKED: USER                              x       y       z     vdW  Elec       q    Type
DOCKED: USER                           _______ _______ _______ _____ _____    ______ ____
DOCKED: ROOT
DOCKED: ATOM      1  C   UNL     1     140.290  75.982 222.024 -0.27 -0.05    +0.208 A  
DOCKED: ATOM      2  N   UNL     1     139.642  74.855 222.343 -0.13 +0.03    -0.251 N  
DOCKED: ATOM      3  N   UNL     1     140.238  73.768 221.965 -0.80 +0.01    -0.167 NA 
DOCKED: ATOM      4  C   UNL     1     141.224  73.582 221.405 -0.23 -0.01    +0.116 A  
DOCKED: ATOM      5  S   UNL     1     141.808  75.376 221.148 -0.23 +0.03    -0.080 S  
DOCKED: ATOM      6  H   UNL     1     138.712  74.911 222.867 -0.46 -0.08    +0.193 HD 
DOCKED: ENDROOT
DOCKED: BRANCH   1   7
DOCKED: ATOM      7  N   UNL     1     140.038  77.213 222.214 -0.25 +0.05    -0.184 NA 
DOCKED: BRANCH   7   8
DOCKED: ATOM      8  C   UNL     1     139.047  77.907 221.430 -0.11 -0.06    +0.251 C  
DOCKED: ATOM      9  O   UNL     1     139.361  78.100 220.217 -0.04 +0.08    -0.272 OA 
DOCKED: BRANCH   8  10
DOCKED: ATOM     10  C   UNL     1     137.765  78.364 221.972 -0.16 -0.02    +0.086 C  
DOCKED: ATOM     11  C   UNL     1     137.193  77.224 222.789 -0.21 -0.00    +0.019 C  
DOCKED: BRANCH  10  12
DOCKED: ATOM     12  C   UNL     1     137.954  79.608 222.825 -0.26 +0.00    -0.001 C  
DOCKED: ATOM     13  C   UNL     1     136.728  79.858 223.678 -0.20 -0.00    +0.014 C  
DOCKED: ATOM     14  C   UNL     1     139.202  79.392 223.657 -0.38 -0.00    +0.014 C  
DOCKED: BRANCH  12  15
DOCKED: ATOM     15  C   UNL     1     138.210  80.812 221.940 -0.12 -0.03    +0.163 C  
DOCKED: BRANCH  15  16
DOCKED: ATOM     16  O   UNL     1     138.304  80.460 220.593 -0.01 +0.08    -0.396 OA 
DOCKED: ATOM     17  H   UNL     1     139.223  80.276 220.303 +0.05 -0.05    +0.210 HD 
DOCKED: ENDBRANCH  15  16
DOCKED: ENDBRANCH  12  15
DOCKED: ENDBRANCH  10  12
DOCKED: ENDBRANCH   8  10
DOCKED: ENDBRANCH   7   8
DOCKED: ENDBRANCH   1   7
DOCKED: BRANCH   4  18
DOCKED: ATOM     18  C   UNL     1     142.097  72.474 220.863 -0.22 -0.01    +0.070 C  
DOCKED: BRANCH  18  19
DOCKED: ATOM     19  C   UNL     1     143.380  72.975 220.287 -0.31 -0.00    +0.008 C  
DOCKED: BRANCH  19  20
DOCKED: ATOM     20  C   UNL     1     143.527  72.977 218.828 -0.17 -0.00    +0.008 C  
DOCKED: BRANCH  20  21
DOCKED: ATOM     21  C   UNL     1     142.409  73.425 217.977 -0.05 -0.02    +0.070 C  
DOCKED: BRANCH  21  22
DOCKED: ATOM     22  C   UNL     1     142.163  74.858 217.956 -0.07 -0.04    +0.116 A  
DOCKED: ATOM     23  N   UNL     1     141.220  75.685 218.262 -0.04 +0.06    -0.167 NA 
DOCKED: ATOM     24  S   UNL     1     143.462  76.098 217.372 -0.27 +0.05    -0.080 S  
DOCKED: ATOM     25  N   UNL     1     141.265  76.934 218.159 -0.04 +0.11    -0.251 N  
DOCKED: ATOM     26  C   UNL     1     142.402  77.522 217.681 -0.20 -0.14    +0.208 A  
DOCKED: ATOM     27  H   UNL     1     140.456  77.591 218.424 +0.04 -0.07    +0.193 HD 
DOCKED: BRANCH  26  28
DOCKED: ATOM     28  N   UNL     1     142.697  78.733 217.484 -0.22 +0.19    -0.183 NA 
DOCKED: BRANCH  28  29
DOCKED: ATOM     29  C   UNL     1     141.773  79.753 217.823 -0.17 -0.18    +0.255 C  
DOCKED: ATOM     30  O   UNL     1     140.888  80.164 217.018 -0.05 +0.15    -0.272 OA 
DOCKED: BRANCH  29  31
DOCKED: ATOM     31  C   UNL     1     141.885  80.336 219.191 -0.25 -0.07    +0.123 C  
DOCKED: ATOM     32  C   UNL     1     140.861  81.428 219.325 -0.13 -0.08    +0.243 C  
DOCKED: ATOM     33  C   UNL     1     141.790  79.285 220.264 -0.26 -0.03    +0.056 C  
DOCKED: ATOM     34  O   UNL     1     140.705  81.864 220.657 -0.08 +0.12    -0.492 OA 
DOCKED: ATOM     35  C   UNL     1     141.962  79.984 221.563 -0.43 +0.00    -0.005 A  
DOCKED: ATOM     36  C   UNL     1     141.405  81.240 221.680 -0.35 -0.03    +0.122 A  
DOCKED: ATOM     37  C   UNL     1     142.630  79.466 222.634 -0.57 -0.00    +0.007 A  
DOCKED: ATOM     38  C   UNL     1     141.534  81.933 222.864 -0.34 -0.01    +0.047 A  
DOCKED: ATOM     39  C   UNL     1     142.764  80.164 223.835 -0.62 -0.00    +0.001 A  
DOCKED: ATOM     40  C   UNL     1     142.209  81.424 223.965 -0.61 -0.00    +0.004 A  
DOCKED: ENDBRANCH  29  31
DOCKED: ENDBRANCH  28  29
DOCKED: ENDBRANCH  26  28
DOCKED: ENDBRANCH  21  22
DOCKED: ENDBRANCH  20  21
DOCKED: ENDBRANCH  19  20
DOCKED: ENDBRANCH  18  19
DOCKED: ENDBRANCH   4  18
DOCKED: TORSDOF 14
DOCKED: TER
DOCKED: ENDMDL
________________________________________________________________________________


    FINAL DOCKED STATE:
    ________________________


Run:   12 / 20
Time taken for this run:   0.127s

DOCKED: MODEL        12
DOCKED: USER    Run = 12
DOCKED: USER
DOCKED: USER    Estimated Free Energy of Binding    =  -6.48 kcal/mol  [=(1)+(2)+(3)-(4)]
DOCKED: USER
DOCKED: USER    (1) Final Intermolecular Energy     = -10.66 kcal/mol
DOCKED: USER        vdW + Hbond + desolv Energy     = -10.51 kcal/mol
DOCKED: USER        Electrostatic Energy            =  -0.14 kcal/mol
DOCKED: USER        Moving Ligand-Fixed Receptor    = -10.66 kcal/mol
DOCKED: USER        Moving Ligand-Moving Receptor   =  +0.00 kcal/mol
DOCKED: USER    (2) Final Total Internal Energy     =  -4.09 kcal/mol
DOCKED: USER    (3) Torsional Free Energy           =  +4.18 kcal/mol
DOCKED: USER    (4) Unbound System's Energy         =  -4.09 kcal/mol
DOCKED: USER
DOCKED: USER
DOCKED: REMARK SMILES C[C@H](C(=O)/N=c1\[nH]nc(CCCCc2n[nH]/c(=N\C(=O)[C@H]3COc4ccccc4C3)s2)s1)C(C)(C)CO
DOCKED: REMARK SMILES IDX 6 1 7 2 8 3 9 4 32 5 5 7 3 8 4 9 2 10 1 11 33 12 34 13 35 14
DOCKED: REMARK SMILES IDX 36 15 37 16 10 18 11 19 12 20 13 21 14 22 15 23 31 24 16 25
DOCKED: REMARK SMILES IDX 17 26 18 28 19 29 20 30 21 31 22 32 30 33 23 34 29 35 24 36
DOCKED: REMARK SMILES IDX 28 37 25 38 27 39 26 40
DOCKED: REMARK H PARENT 7 6 37 17 16 27
DOCKED: USER                              x       y       z     vdW  Elec       q    Type
DOCKED: USER                           _______ _______ _______ _____ _____    ______ ____
DOCKED: ROOT
DOCKED: ATOM      1  C   UNL     1     136.604  81.396 224.445 -0.20 -0.02    +0.208 A  
DOCKED: ATOM      2  N   UNL     1     137.465  80.688 225.187 -0.22 +0.02    -0.251 N  
DOCKED: ATOM      3  N   UNL     1     138.614  80.484 224.625 -0.24 +0.02    -0.167 NA 
DOCKED: ATOM      4  C   UNL     1     139.042  80.794 223.604 -0.32 -0.01    +0.116 A  
DOCKED: ATOM      5  S   UNL     1     137.554  81.745 222.892 -0.22 +0.01    -0.080 S  
DOCKED: ATOM      6  H   UNL     1     137.170  80.347 226.156 +0.11 -0.02    +0.193 HD 
DOCKED: ENDROOT
DOCKED: BRANCH   1   7
DOCKED: ATOM      7  N   UNL     1     135.412  81.794 224.639 -0.09 +0.02    -0.184 NA 
DOCKED: BRANCH   7   8
DOCKED: ATOM      8  C   UNL     1     134.663  81.384 225.801 -0.11 -0.03    +0.251 C  
DOCKED: ATOM      9  O   UNL     1     134.717  80.145 226.065 -0.07 +0.05    -0.272 OA 
DOCKED: BRANCH   8  10
DOCKED: ATOM     10  C   UNL     1     133.892  82.311 226.632 -0.10 -0.01    +0.086 C  
DOCKED: ATOM     11  C   UNL     1     132.650  81.576 227.088 -0.08 -0.00    +0.019 C  
DOCKED: BRANCH  10  12
DOCKED: ATOM     12  C   UNL     1     134.716  82.783 227.820 -0.27 +0.00    -0.001 C  
DOCKED: ATOM     13  C   UNL     1     134.513  84.266 228.051 -0.22 +0.00    +0.014 C  
DOCKED: ATOM     14  C   UNL     1     134.294  81.951 229.013 -0.36 -0.00    +0.014 C  
DOCKED: BRANCH  12  15
DOCKED: ATOM     15  C   UNL     1     136.186  82.503 227.578 -0.30 -0.03    +0.163 C  
DOCKED: BRANCH  15  16
DOCKED: ATOM     16  O   UNL     1     136.556  81.233 228.022 -0.25 +0.16    -0.396 OA 
DOCKED: ATOM     17  H   UNL     1     135.869  80.551 227.862 -0.39 -0.15    +0.210 HD 
DOCKED: ENDBRANCH  15  16
DOCKED: ENDBRANCH  12  15
DOCKED: ENDBRANCH  10  12
DOCKED: ENDBRANCH   8  10
DOCKED: ENDBRANCH   7   8
DOCKED: ENDBRANCH   1   7
DOCKED: BRANCH   4  18
DOCKED: ATOM     18  C   UNL     1     140.282  80.684 222.748 -0.36 -0.01    +0.070 C  
DOCKED: BRANCH  18  19
DOCKED: ATOM     19  C   UNL     1     141.414  80.008 223.448 -0.58 -0.00    +0.008 C  
DOCKED: BRANCH  19  20
DOCKED: ATOM     20  C   UNL     1     141.752  78.639 223.049 -0.55 -0.00    +0.008 C  
DOCKED: BRANCH  20  21
DOCKED: ATOM     21  C   UNL     1     141.093  78.029 221.880 -0.37 -0.03    +0.070 C  
DOCKED: BRANCH  21  22
DOCKED: ATOM     22  C   UNL     1     139.916  77.223 222.163 -0.31 -0.03    +0.116 A  
DOCKED: ATOM     23  N   UNL     1     139.623  75.995 222.434 -0.37 +0.03    -0.167 NA 
DOCKED: ATOM     24  S   UNL     1     138.180  77.962 222.238 -0.27 +0.01    -0.080 S  
DOCKED: ATOM     25  N   UNL     1     138.479  75.538 222.663 -0.11 +0.07    -0.251 N  
DOCKED: ATOM     26  C   UNL     1     137.406  76.383 222.635 -0.20 -0.05    +0.208 A  
DOCKED: ATOM     27  H   UNL     1     138.275  74.506 222.885 -0.52 -0.11    +0.193 HD 
DOCKED: BRANCH  26  28
DOCKED: ATOM     28  N   UNL     1     136.175  76.180 222.826 -0.15 +0.04    -0.183 NA 
DOCKED: BRANCH  28  29
DOCKED: ATOM     29  C   UNL     1     135.738  74.956 223.393 -0.17 -0.06    +0.255 C  
DOCKED: ATOM     30  O   UNL     1     136.227  73.838 223.058 -0.13 +0.09    -0.272 OA 
DOCKED: BRANCH  29  31
DOCKED: ATOM     31  C   UNL     1     134.661  75.036 224.422 -0.24 -0.02    +0.123 C  
DOCKED: ATOM     32  C   UNL     1     134.714  73.791 225.260 -0.16 -0.01    +0.243 C  
DOCKED: ATOM     33  C   UNL     1     134.737  76.307 225.224 -0.11 -0.01    +0.056 C  
DOCKED: ATOM     34  O   UNL     1     133.915  73.883 226.419 -0.69 -0.07    -0.492 OA 
DOCKED: ATOM     35  C   UNL     1     133.592  76.284 226.169 -0.34 +0.00    -0.005 A  
DOCKED: ATOM     36  C   UNL     1     133.249  75.064 226.712 -0.30 +0.01    +0.122 A  
DOCKED: ATOM     37  C   UNL     1     132.867  77.383 226.529 -0.26 -0.00    +0.007 A  
DOCKED: ATOM     38  C   UNL     1     132.195  74.986 227.596 -0.38 -0.00    +0.047 A  
DOCKED: ATOM     39  C   UNL     1     131.799  77.310 227.423 -0.28 +0.00    +0.001 A  
DOCKED: ATOM     40  C   UNL     1     131.445  76.091 227.974 -0.31 +0.00    +0.004 A  
DOCKED: ENDBRANCH  29  31
DOCKED: ENDBRANCH  28  29
DOCKED: ENDBRANCH  26  28
DOCKED: ENDBRANCH  21  22
DOCKED: ENDBRANCH  20  21
DOCKED: ENDBRANCH  19  20
DOCKED: ENDBRANCH  18  19
DOCKED: ENDBRANCH   4  18
DOCKED: TORSDOF 14
DOCKED: TER
DOCKED: ENDMDL
________________________________________________________________________________


    FINAL DOCKED STATE:
    ________________________


Run:   13 / 20
Time taken for this run:   0.127s

DOCKED: MODEL        13
DOCKED: USER    Run = 13
DOCKED: USER
DOCKED: USER    Estimated Free Energy of Binding    =  -8.39 kcal/mol  [=(1)+(2)+(3)-(4)]
DOCKED: USER
DOCKED: USER    (1) Final Intermolecular Energy     = -12.57 kcal/mol
DOCKED: USER        vdW + Hbond + desolv Energy     = -12.40 kcal/mol
DOCKED: USER        Electrostatic Energy            =  -0.17 kcal/mol
DOCKED: USER        Moving Ligand-Fixed Receptor    = -12.57 kcal/mol
DOCKED: USER        Moving Ligand-Moving Receptor   =  +0.00 kcal/mol
DOCKED: USER    (2) Final Total Internal Energy     =  -3.14 kcal/mol
DOCKED: USER    (3) Torsional Free Energy           =  +4.18 kcal/mol
DOCKED: USER    (4) Unbound System's Energy         =  -3.14 kcal/mol
DOCKED: USER
DOCKED: USER
DOCKED: REMARK SMILES C[C@H](C(=O)/N=c1\[nH]nc(CCCCc2n[nH]/c(=N\C(=O)[C@H]3COc4ccccc4C3)s2)s1)C(C)(C)CO
DOCKED: REMARK SMILES IDX 6 1 7 2 8 3 9 4 32 5 5 7 3 8 4 9 2 10 1 11 33 12 34 13 35 14
DOCKED: REMARK SMILES IDX 36 15 37 16 10 18 11 19 12 20 13 21 14 22 15 23 31 24 16 25
DOCKED: REMARK SMILES IDX 17 26 18 28 19 29 20 30 21 31 22 32 30 33 23 34 29 35 24 36
DOCKED: REMARK SMILES IDX 28 37 25 38 27 39 26 40
DOCKED: REMARK H PARENT 7 6 37 17 16 27
DOCKED: USER                              x       y       z     vdW  Elec       q    Type
DOCKED: USER                           _______ _______ _______ _____ _____    ______ ____
DOCKED: ROOT
DOCKED: ATOM      1  C   UNL     1     141.865  79.361 218.484 -0.20 -0.14    +0.208 A  
DOCKED: ATOM      2  N   UNL     1     142.965  79.016 217.804 -0.20 +0.28    -0.251 N  
DOCKED: ATOM      3  N   UNL     1     143.062  77.750 217.547 -0.22 +0.14    -0.167 NA 
DOCKED: ATOM      4  C   UNL     1     142.380  76.857 217.791 -0.19 -0.07    +0.116 A  
DOCKED: ATOM      5  S   UNL     1     140.983  77.748 218.728 -0.16 +0.04    -0.080 S  
DOCKED: ATOM      6  H   UNL     1     143.671  79.769 217.524 -0.52 -0.38    +0.193 HD 
DOCKED: ENDROOT
DOCKED: BRANCH   1   7
DOCKED: ATOM      7  N   UNL     1     141.421  80.472 218.914 -0.15 +0.09    -0.184 NA 
DOCKED: BRANCH   7   8
DOCKED: ATOM      8  C   UNL     1     140.937  80.615 220.264 -0.16 -0.09    +0.251 C  
DOCKED: ATOM      9  O   UNL     1     139.717  80.314 220.432 -0.05 +0.07    -0.272 OA 
DOCKED: BRANCH   8  10
DOCKED: ATOM     10  C   UNL     1     141.774  81.072 221.376 -0.35 -0.03    +0.086 C  
DOCKED: ATOM     11  C   UNL     1     141.115  82.307 221.953 -0.35 -0.00    +0.019 C  
DOCKED: BRANCH  10  12
DOCKED: ATOM     12  C   UNL     1     141.912  79.983 222.429 -0.55 +0.00    -0.001 C  
DOCKED: ATOM     13  C   UNL     1     143.236  80.110 223.153 -0.58 -0.00    +0.014 C  
DOCKED: ATOM     14  C   UNL     1     140.727  80.116 223.364 -0.49 -0.00    +0.014 C  
DOCKED: BRANCH  12  15
DOCKED: ATOM     15  C   UNL     1     141.817  78.616 221.779 -0.31 -0.09    +0.163 C  
DOCKED: BRANCH  15  16
DOCKED: ATOM     16  O   UNL     1     141.404  77.636 222.683 -0.23 +0.19    -0.396 OA 
DOCKED: ATOM     17  H   UNL     1     141.939  76.815 222.635 -0.42 -0.17    +0.210 HD 
DOCKED: ENDBRANCH  15  16
DOCKED: ENDBRANCH  12  15
DOCKED: ENDBRANCH  10  12
DOCKED: ENDBRANCH   8  10
DOCKED: ENDBRANCH   7   8
DOCKED: ENDBRANCH   1   7
DOCKED: BRANCH   4  18
DOCKED: ATOM     18  C   UNL     1     142.270  75.360 217.622 -0.10 -0.03    +0.070 C  
DOCKED: BRANCH  18  19
DOCKED: ATOM     19  C   UNL     1     143.593  74.700 217.412 -0.16 -0.00    +0.008 C  
DOCKED: BRANCH  19  20
DOCKED: ATOM     20  C   UNL     1     144.167  73.936 218.524 -0.20 -0.00    +0.008 C  
DOCKED: BRANCH  20  21
DOCKED: ATOM     21  C   UNL     1     144.183  74.512 219.881 -0.37 -0.03    +0.070 C  
DOCKED: BRANCH  21  22
DOCKED: ATOM     22  C   UNL     1     142.902  74.550 220.569 -0.26 -0.04    +0.116 A  
DOCKED: ATOM     23  N   UNL     1     142.049  75.427 220.983 -0.16 +0.08    -0.167 NA 
DOCKED: ATOM     24  S   UNL     1     141.995  72.983 221.103 -0.26 +0.01    -0.080 S  
DOCKED: ATOM     25  N   UNL     1     140.963  75.190 221.562 -0.23 +0.06    -0.251 N  
DOCKED: ATOM     26  C   UNL     1     140.604  73.893 221.799 -0.18 -0.01    +0.208 A  
DOCKED: ATOM     27  H   UNL     1     140.277  75.949 221.893 +0.06 -0.04    +0.193 HD 
DOCKED: BRANCH  26  28
DOCKED: ATOM     28  N   UNL     1     139.584  73.396 222.352 -0.68 +0.03    -0.183 NA 
DOCKED: BRANCH  28  29
DOCKED: ATOM     29  C   UNL     1     139.420  71.988 222.401 -0.19 -0.05    +0.255 C  
DOCKED: ATOM     30  O   UNL     1     139.262  71.285 221.360 -0.07 +0.05    -0.272 OA 
DOCKED: BRANCH  29  31
DOCKED: ATOM     31  C   UNL     1     139.440  71.353 223.750 -0.29 -0.03    +0.123 C  
DOCKED: ATOM     32  C   UNL     1     139.159  69.887 223.587 -0.18 -0.04    +0.243 C  
DOCKED: ATOM     33  C   UNL     1     140.715  71.644 224.494 -0.33 -0.01    +0.056 C  
DOCKED: ATOM     34  O   UNL     1     139.414  69.152 224.764 -0.10 +0.08    -0.492 OA 
DOCKED: ATOM     35  C   UNL     1     140.589  71.002 225.827 -0.59 +0.00    -0.005 A  
DOCKED: ATOM     36  C   UNL     1     139.941  69.787 225.879 -0.39 -0.02    +0.122 A  
DOCKED: ATOM     37  C   UNL     1     141.069  71.535 226.988 -0.75 -0.00    +0.007 A  
DOCKED: ATOM     38  C   UNL     1     139.796  69.146 227.091 -0.54 -0.01    +0.047 A  
DOCKED: ATOM     39  C   UNL     1     140.924  70.891 228.217 -0.66 -0.00    +0.001 A  
DOCKED: ATOM     40  C   UNL     1     140.276  69.671 228.283 -0.61 -0.00    +0.004 A  
DOCKED: ENDBRANCH  29  31
DOCKED: ENDBRANCH  28  29
DOCKED: ENDBRANCH  26  28
DOCKED: ENDBRANCH  21  22
DOCKED: ENDBRANCH  20  21
DOCKED: ENDBRANCH  19  20
DOCKED: ENDBRANCH  18  19
DOCKED: ENDBRANCH   4  18
DOCKED: TORSDOF 14
DOCKED: TER
DOCKED: ENDMDL
________________________________________________________________________________


    FINAL DOCKED STATE:
    ________________________


Run:   14 / 20
Time taken for this run:   0.127s

DOCKED: MODEL        14
DOCKED: USER    Run = 14
DOCKED: USER
DOCKED: USER    Estimated Free Energy of Binding    =  -3.76 kcal/mol  [=(1)+(2)+(3)-(4)]
DOCKED: USER
DOCKED: USER    (1) Final Intermolecular Energy     =  -7.93 kcal/mol
DOCKED: USER        vdW + Hbond + desolv Energy     =  -8.03 kcal/mol
DOCKED: USER        Electrostatic Energy            =  +0.09 kcal/mol
DOCKED: USER        Moving Ligand-Fixed Receptor    =  -7.93 kcal/mol
DOCKED: USER        Moving Ligand-Moving Receptor   =  +0.00 kcal/mol
DOCKED: USER    (2) Final Total Internal Energy     =  -6.77 kcal/mol
DOCKED: USER    (3) Torsional Free Energy           =  +4.18 kcal/mol
DOCKED: USER    (4) Unbound System's Energy         =  -6.77 kcal/mol
DOCKED: USER
DOCKED: USER
DOCKED: REMARK SMILES C[C@H](C(=O)/N=c1\[nH]nc(CCCCc2n[nH]/c(=N\C(=O)[C@H]3COc4ccccc4C3)s2)s1)C(C)(C)CO
DOCKED: REMARK SMILES IDX 6 1 7 2 8 3 9 4 32 5 5 7 3 8 4 9 2 10 1 11 33 12 34 13 35 14
DOCKED: REMARK SMILES IDX 36 15 37 16 10 18 11 19 12 20 13 21 14 22 15 23 31 24 16 25
DOCKED: REMARK SMILES IDX 17 26 18 28 19 29 20 30 21 31 22 32 30 33 23 34 29 35 24 36
DOCKED: REMARK SMILES IDX 28 37 25 38 27 39 26 40
DOCKED: REMARK H PARENT 7 6 37 17 16 27
DOCKED: USER                              x       y       z     vdW  Elec       q    Type
DOCKED: USER                           _______ _______ _______ _____ _____    ______ ____
DOCKED: ROOT
DOCKED: ATOM      1  C   UNL     1     138.365  76.716 221.588 -0.14 -0.04    +0.208 A  
DOCKED: ATOM      2  N   UNL     1     138.709  76.266 220.376 -0.03 +0.06    -0.251 N  
DOCKED: ATOM      3  N   UNL     1     138.326  75.053 220.126 -0.03 +0.04    -0.167 NA 
DOCKED: ATOM      4  C   UNL     1     137.744  74.282 220.748 -0.08 -0.03    +0.116 A  
DOCKED: ATOM      5  S   UNL     1     137.459  75.284 222.342 -0.24 +0.02    -0.080 S  
DOCKED: ATOM      6  H   UNL     1     139.254  76.901 219.712 +0.04 -0.05    +0.193 HD 
DOCKED: ENDROOT
DOCKED: BRANCH   1   7
DOCKED: ATOM      7  N   UNL     1     138.551  77.820 222.191 -0.16 +0.04    -0.184 NA 
DOCKED: BRANCH   7   8
DOCKED: ATOM      8  C   UNL     1     139.525  78.775 221.725 -0.13 -0.06    +0.251 C  
DOCKED: ATOM      9  O   UNL     1     140.254  78.375 220.767 -0.08 +0.09    -0.272 OA 
DOCKED: BRANCH   8  10
DOCKED: ATOM     10  C   UNL     1     139.680  80.114 222.298 -0.26 -0.02    +0.086 C  
DOCKED: ATOM     11  C   UNL     1     138.844  80.161 223.559 -0.39 -0.00    +0.019 C  
DOCKED: BRANCH  10  12
DOCKED: ATOM     12  C   UNL     1     141.142  80.404 222.599 -0.47 +0.00    -0.001 C  
DOCKED: ATOM     13  C   UNL     1     141.799  81.098 221.424 -0.40 -0.00    +0.014 C  
DOCKED: ATOM     14  C   UNL     1     141.178  81.245 223.859 -0.38 -0.00    +0.014 C  
DOCKED: BRANCH  12  15
DOCKED: ATOM     15  C   UNL     1     141.878  79.114 222.903 -0.46 -0.06    +0.163 C  
DOCKED: BRANCH  15  16
DOCKED: ATOM     16  O   UNL     1     142.574  78.635 221.792 -0.07 +0.32    -0.396 OA 
DOCKED: ATOM     17  H   UNL     1     142.220  77.786 221.450 -0.33 -0.17    +0.210 HD 
DOCKED: ENDBRANCH  15  16
DOCKED: ENDBRANCH  12  15
DOCKED: ENDBRANCH  10  12
DOCKED: ENDBRANCH   8  10
DOCKED: ENDBRANCH   7   8
DOCKED: ENDBRANCH   1   7
DOCKED: BRANCH   4  18
DOCKED: ATOM     18  C   UNL     1     137.203  72.872 220.698 -0.05 -0.01    +0.070 C  
DOCKED: BRANCH  18  19
DOCKED: ATOM     19  C   UNL     1     138.256  71.838 220.922 -0.08 -0.00    +0.008 C  
DOCKED: BRANCH  19  20
DOCKED: ATOM     20  C   UNL     1     139.215  72.054 222.011 -0.22 -0.00    +0.008 C  
DOCKED: BRANCH  20  21
DOCKED: ATOM     21  C   UNL     1     140.634  72.308 221.701 -0.25 -0.01    +0.070 C  
DOCKED: BRANCH  21  22
DOCKED: ATOM     22  C   UNL     1     140.979  73.688 221.395 -0.25 -0.01    +0.116 A  
DOCKED: ATOM     23  N   UNL     1     140.960  74.844 221.970 -0.60 +0.01    -0.167 NA 
DOCKED: ATOM     24  S   UNL     1     141.716  74.199 219.733 -0.20 +0.02    -0.080 S  
DOCKED: ATOM     25  N   UNL     1     141.345  75.927 221.471 -0.20 +0.10    -0.251 N  
DOCKED: ATOM     26  C   UNL     1     141.841  75.936 220.198 -0.19 -0.09    +0.208 A  
DOCKED: ATOM     27  H   UNL     1     141.313  76.872 221.984 -0.14 -0.10    +0.193 HD 
DOCKED: BRANCH  26  28
DOCKED: ATOM     28  N   UNL     1     142.286  76.873 219.480 -0.21 +0.11    -0.183 NA 
DOCKED: BRANCH  28  29
DOCKED: ATOM     29  C   UNL     1     141.524  77.349 218.383 -0.11 -0.13    +0.255 C  
DOCKED: ATOM     30  O   UNL     1     140.485  76.758 217.969 -0.02 +0.10    -0.272 OA 
DOCKED: BRANCH  29  31
DOCKED: ATOM     31  C   UNL     1     142.002  78.598 217.722 -0.21 -0.09    +0.123 C  
DOCKED: ATOM     32  C   UNL     1     141.733  78.485 216.248 -0.09 -0.18    +0.243 C  
DOCKED: ATOM     33  C   UNL     1     141.413  79.832 218.350 -0.21 -0.03    +0.056 C  
DOCKED: ATOM     34  O   UNL     1     141.905  79.710 215.571 -0.04 +0.46    -0.492 OA 
DOCKED: ATOM     35  C   UNL     1     142.001  80.995 217.638 -0.26 +0.00    -0.005 A  
DOCKED: ATOM     36  C   UNL     1     142.212  80.861 216.282 -0.12 -0.13    +0.122 A  
DOCKED: ATOM     37  C   UNL     1     142.341  82.174 218.236 -0.24 -0.00    +0.007 A  
DOCKED: ATOM     38  C   UNL     1     142.754  81.910 215.571 -0.15 -0.05    +0.047 A  
DOCKED: ATOM     39  C   UNL     1     142.891  83.239 217.521 -0.29 -0.00    +0.001 A  
DOCKED: ATOM     40  C   UNL     1     143.107  83.116 216.161 -0.27 -0.00    +0.004 A  
DOCKED: ENDBRANCH  29  31
DOCKED: ENDBRANCH  28  29
DOCKED: ENDBRANCH  26  28
DOCKED: ENDBRANCH  21  22
DOCKED: ENDBRANCH  20  21
DOCKED: ENDBRANCH  19  20
DOCKED: ENDBRANCH  18  19
DOCKED: ENDBRANCH   4  18
DOCKED: TORSDOF 14
DOCKED: TER
DOCKED: ENDMDL
________________________________________________________________________________


    FINAL DOCKED STATE:
    ________________________


Run:   15 / 20
Time taken for this run:   0.127s

DOCKED: MODEL        15
DOCKED: USER    Run = 15
DOCKED: USER
DOCKED: USER    Estimated Free Energy of Binding    =  -6.99 kcal/mol  [=(1)+(2)+(3)-(4)]
DOCKED: USER
DOCKED: USER    (1) Final Intermolecular Energy     = -11.17 kcal/mol
DOCKED: USER        vdW + Hbond + desolv Energy     = -11.00 kcal/mol
DOCKED: USER        Electrostatic Energy            =  -0.17 kcal/mol
DOCKED: USER        Moving Ligand-Fixed Receptor    = -11.17 kcal/mol
DOCKED: USER        Moving Ligand-Moving Receptor   =  +0.00 kcal/mol
DOCKED: USER    (2) Final Total Internal Energy     =  -4.26 kcal/mol
DOCKED: USER    (3) Torsional Free Energy           =  +4.18 kcal/mol
DOCKED: USER    (4) Unbound System's Energy         =  -4.26 kcal/mol
DOCKED: USER
DOCKED: USER
DOCKED: REMARK SMILES C[C@H](C(=O)/N=c1\[nH]nc(CCCCc2n[nH]/c(=N\C(=O)[C@H]3COc4ccccc4C3)s2)s1)C(C)(C)CO
DOCKED: REMARK SMILES IDX 6 1 7 2 8 3 9 4 32 5 5 7 3 8 4 9 2 10 1 11 33 12 34 13 35 14
DOCKED: REMARK SMILES IDX 36 15 37 16 10 18 11 19 12 20 13 21 14 22 15 23 31 24 16 25
DOCKED: REMARK SMILES IDX 17 26 18 28 19 29 20 30 21 31 22 32 30 33 23 34 29 35 24 36
DOCKED: REMARK SMILES IDX 28 37 25 38 27 39 26 40
DOCKED: REMARK H PARENT 7 6 37 17 16 27
DOCKED: USER                              x       y       z     vdW  Elec       q    Type
DOCKED: USER                           _______ _______ _______ _____ _____    ______ ____
DOCKED: ROOT
DOCKED: ATOM      1  C   UNL     1     139.857  76.025 222.350 -0.26 -0.04    +0.208 A  
DOCKED: ATOM      2  N   UNL     1     141.104  76.500 222.250 -0.24 +0.10    -0.251 N  
DOCKED: ATOM      3  N   UNL     1     141.207  77.779 222.429 -0.31 +0.07    -0.167 NA 
DOCKED: ATOM      4  C   UNL     1     140.428  78.593 222.658 -0.35 -0.03    +0.116 A  
DOCKED: ATOM      5  S   UNL     1     138.845  77.536 222.715 -0.33 +0.01    -0.080 S  
DOCKED: ATOM      6  H   UNL     1     141.909  75.829 222.039 -0.47 -0.11    +0.193 HD 
DOCKED: ENDROOT
DOCKED: BRANCH   1   7
DOCKED: ATOM      7  N   UNL     1     139.358  74.860 222.243 -0.58 +0.03    -0.184 NA 
DOCKED: BRANCH   7   8
DOCKED: ATOM      8  C   UNL     1     140.147  73.745 221.782 -0.18 -0.03    +0.251 C  
DOCKED: ATOM      9  O   UNL     1     141.398  73.864 221.957 -0.44 +0.00    -0.272 OA 
DOCKED: BRANCH   8  10
DOCKED: ATOM     10  C   UNL     1     139.571  72.553 221.157 -0.15 -0.02    +0.086 C  
DOCKED: ATOM     11  C   UNL     1     140.624  71.981 220.230 -0.12 -0.00    +0.019 C  
DOCKED: BRANCH  10  12
DOCKED: ATOM     12  C   UNL     1     139.161  71.537 222.212 -0.22 +0.00    -0.001 C  
DOCKED: ATOM     13  C   UNL     1     139.410  70.128 221.716 -0.15 -0.00    +0.014 C  
DOCKED: ATOM     14  C   UNL     1     139.949  71.855 223.466 -0.35 -0.00    +0.014 C  
DOCKED: BRANCH  12  15
DOCKED: ATOM     15  C   UNL     1     137.693  71.704 222.552 -0.13 -0.04    +0.163 C  
DOCKED: BRANCH  15  16
DOCKED: ATOM     16  O   UNL     1     137.275  73.029 222.426 -0.07 +0.13    -0.396 OA 
DOCKED: ATOM     17  H   UNL     1     137.764  73.647 223.011 -0.49 -0.14    +0.210 HD 
DOCKED: ENDBRANCH  15  16
DOCKED: ENDBRANCH  12  15
DOCKED: ENDBRANCH  10  12
DOCKED: ENDBRANCH   8  10
DOCKED: ENDBRANCH   7   8
DOCKED: ENDBRANCH   1   7
DOCKED: BRANCH   4  18
DOCKED: ATOM     18  C   UNL     1     140.291  80.079 222.893 -0.38 -0.01    +0.070 C  
DOCKED: BRANCH  18  19
DOCKED: ATOM     19  C   UNL     1     141.534  80.837 222.564 -0.51 -0.00    +0.008 C  
DOCKED: BRANCH  19  20
DOCKED: ATOM     20  C   UNL     1     141.402  82.080 221.798 -0.39 -0.00    +0.008 C  
DOCKED: BRANCH  20  21
DOCKED: ATOM     21  C   UNL     1     140.769  82.059 220.466 -0.25 -0.02    +0.070 C  
DOCKED: BRANCH  21  22
DOCKED: ATOM     22  C   UNL     1     141.500  81.350 219.428 -0.23 -0.05    +0.116 A  
DOCKED: ATOM     23  N   UNL     1     142.405  81.593 218.540 -0.16 +0.10    -0.167 NA 
DOCKED: ATOM     24  S   UNL     1     141.247  79.509 219.092 -0.25 +0.04    -0.080 S  
DOCKED: ATOM     25  N   UNL     1     142.900  80.766 217.738 -0.22 +0.27    -0.251 N  
DOCKED: ATOM     26  C   UNL     1     142.470  79.469 217.770 -0.23 -0.20    +0.208 A  
DOCKED: ATOM     27  H   UNL     1     143.654  81.008 217.011 -0.42 -0.39    +0.193 HD 
DOCKED: BRANCH  26  28
DOCKED: ATOM     28  N   UNL     1     142.800  78.462 217.085 -0.18 +0.20    -0.183 NA 
DOCKED: BRANCH  28  29
DOCKED: ATOM     29  C   UNL     1     142.231  77.195 217.368 -0.14 -0.15    +0.255 C  
DOCKED: ATOM     30  O   UNL     1     141.106  76.838 216.913 -0.03 +0.12    -0.272 OA 
DOCKED: BRANCH  29  31
DOCKED: ATOM     31  C   UNL     1     143.024  76.279 218.238 -0.24 -0.07    +0.123 C  
DOCKED: ATOM     32  C   UNL     1     142.491  76.376 219.638 -0.23 -0.14    +0.243 C  
DOCKED: ATOM     33  C   UNL     1     143.056  74.873 217.701 -0.14 -0.02    +0.056 C  
DOCKED: ATOM     34  O   UNL     1     142.993  75.364 220.482 -0.10 +0.27    -0.492 OA 
DOCKED: ATOM     35  C   UNL     1     143.909  74.082 218.624 -0.22 +0.00    -0.005 A  
DOCKED: ATOM     36  C   UNL     1     143.824  74.379 219.967 -0.33 -0.04    +0.122 A  
DOCKED: ATOM     37  C   UNL     1     144.761  73.092 218.228 -0.21 +0.00    +0.007 A  
DOCKED: ATOM     38  C   UNL     1     144.593  73.675 220.869 -0.46 -0.01    +0.047 A  
DOCKED: ATOM     39  C   UNL     1     145.542  72.377 219.137 -0.33 +0.00    +0.001 A  
DOCKED: ATOM     40  C   UNL     1     145.465  72.665 220.487 -0.53 -0.00    +0.004 A  
DOCKED: ENDBRANCH  29  31
DOCKED: ENDBRANCH  28  29
DOCKED: ENDBRANCH  26  28
DOCKED: ENDBRANCH  21  22
DOCKED: ENDBRANCH  20  21
DOCKED: ENDBRANCH  19  20
DOCKED: ENDBRANCH  18  19
DOCKED: ENDBRANCH   4  18
DOCKED: TORSDOF 14
DOCKED: TER
DOCKED: ENDMDL
________________________________________________________________________________


    FINAL DOCKED STATE:
    ________________________


Run:   16 / 20
Time taken for this run:   0.127s

DOCKED: MODEL        16
DOCKED: USER    Run = 16
DOCKED: USER
DOCKED: USER    Estimated Free Energy of Binding    =  -6.19 kcal/mol  [=(1)+(2)+(3)-(4)]
DOCKED: USER
DOCKED: USER    (1) Final Intermolecular Energy     = -10.36 kcal/mol
DOCKED: USER        vdW + Hbond + desolv Energy     = -10.21 kcal/mol
DOCKED: USER        Electrostatic Energy            =  -0.15 kcal/mol
DOCKED: USER        Moving Ligand-Fixed Receptor    = -10.36 kcal/mol
DOCKED: USER        Moving Ligand-Moving Receptor   =  +0.00 kcal/mol
DOCKED: USER    (2) Final Total Internal Energy     =  -4.75 kcal/mol
DOCKED: USER    (3) Torsional Free Energy           =  +4.18 kcal/mol
DOCKED: USER    (4) Unbound System's Energy         =  -4.75 kcal/mol
DOCKED: USER
DOCKED: USER
DOCKED: REMARK SMILES C[C@H](C(=O)/N=c1\[nH]nc(CCCCc2n[nH]/c(=N\C(=O)[C@H]3COc4ccccc4C3)s2)s1)C(C)(C)CO
DOCKED: REMARK SMILES IDX 6 1 7 2 8 3 9 4 32 5 5 7 3 8 4 9 2 10 1 11 33 12 34 13 35 14
DOCKED: REMARK SMILES IDX 36 15 37 16 10 18 11 19 12 20 13 21 14 22 15 23 31 24 16 25
DOCKED: REMARK SMILES IDX 17 26 18 28 19 29 20 30 21 31 22 32 30 33 23 34 29 35 24 36
DOCKED: REMARK SMILES IDX 28 37 25 38 27 39 26 40
DOCKED: REMARK H PARENT 7 6 37 17 16 27
DOCKED: USER                              x       y       z     vdW  Elec       q    Type
DOCKED: USER                           _______ _______ _______ _____ _____    ______ ____
DOCKED: ROOT
DOCKED: ATOM      1  C   UNL     1     139.065  76.125 221.964 -0.22 -0.04    +0.208 A  
DOCKED: ATOM      2  N   UNL     1     138.221  75.287 222.578 -0.05 +0.08    -0.251 N  
DOCKED: ATOM      3  N   UNL     1     137.076  75.809 222.885 -0.20 +0.05    -0.167 NA 
DOCKED: ATOM      4  C   UNL     1     136.640  76.861 222.733 -0.20 -0.02    +0.116 A  
DOCKED: ATOM      5  S   UNL     1     138.105  77.709 221.861 -0.23 +0.02    -0.080 S  
DOCKED: ATOM      6  H   UNL     1     138.525  74.280 222.770 -0.54 -0.10    +0.193 HD 
DOCKED: ENDROOT
DOCKED: BRANCH   1   7
DOCKED: ATOM      7  N   UNL     1     140.248  75.996 221.516 -0.25 +0.05    -0.184 NA 
DOCKED: BRANCH   7   8
DOCKED: ATOM      8  C   UNL     1     140.843  74.695 221.332 -0.21 -0.05    +0.251 C  
DOCKED: ATOM      9  O   UNL     1     140.646  73.876 222.280 -0.76 -0.02    -0.272 OA 
DOCKED: BRANCH   8  10
DOCKED: ATOM     10  C   UNL     1     141.619  74.324 220.147 -0.19 -0.02    +0.086 C  
DOCKED: ATOM     11  C   UNL     1     143.081  74.509 220.494 -0.33 -0.01    +0.019 C  
DOCKED: BRANCH  10  12
DOCKED: ATOM     12  C   UNL     1     141.330  72.887 219.743 -0.12 +0.00    -0.001 C  
DOCKED: ATOM     13  C   UNL     1     139.837  72.634 219.711 -0.06 -0.00    +0.014 C  
DOCKED: ATOM     14  C   UNL     1     141.982  72.664 218.393 -0.05 -0.00    +0.014 C  
DOCKED: BRANCH  12  15
DOCKED: ATOM     15  C   UNL     1     141.986  71.929 220.719 -0.16 -0.02    +0.163 C  
DOCKED: BRANCH  15  16
DOCKED: ATOM     16  O   UNL     1     141.048  71.267 221.512 -0.08 +0.04    -0.396 OA 
DOCKED: ATOM     17  H   UNL     1     140.414  71.874 221.950 +0.07 -0.03    +0.210 HD 
DOCKED: ENDBRANCH  15  16
DOCKED: ENDBRANCH  12  15
DOCKED: ENDBRANCH  10  12
DOCKED: ENDBRANCH   8  10
DOCKED: ENDBRANCH   7   8
DOCKED: ENDBRANCH   1   7
DOCKED: BRANCH   4  18
DOCKED: ATOM     18  C   UNL     1     135.402  77.688 222.991 -0.14 -0.01    +0.070 C  
DOCKED: BRANCH  18  19
DOCKED: ATOM     19  C   UNL     1     134.568  77.152 224.108 -0.18 -0.00    +0.008 C  
DOCKED: BRANCH  19  20
DOCKED: ATOM     20  C   UNL     1     133.201  76.719 223.801 -0.10 -0.00    +0.008 C  
DOCKED: BRANCH  20  21
DOCKED: ATOM     21  C   UNL     1     132.955  75.353 223.305 -0.05 -0.01    +0.070 C  
DOCKED: BRANCH  21  22
DOCKED: ATOM     22  C   UNL     1     134.051  74.411 223.471 -0.09 -0.02    +0.116 A  
DOCKED: ATOM     23  N   UNL     1     134.980  74.144 224.328 -0.19 +0.03    -0.167 NA 
DOCKED: ATOM     24  S   UNL     1     134.423  73.060 222.205 -0.06 +0.01    -0.080 S  
DOCKED: ATOM     25  N   UNL     1     135.830  73.227 224.240 -0.13 +0.06    -0.251 N  
DOCKED: ATOM     26  C   UNL     1     135.811  72.404 223.150 -0.11 -0.04    +0.208 A  
DOCKED: ATOM     27  H   UNL     1     136.590  73.036 224.976 -0.51 -0.07    +0.193 HD 
DOCKED: BRANCH  26  28
DOCKED: ATOM     28  N   UNL     1     136.540  71.426 222.828 -0.09 +0.04    -0.183 NA 
DOCKED: BRANCH  28  29
DOCKED: ATOM     29  C   UNL     1     137.921  71.434 223.149 -0.13 -0.07    +0.255 C  
DOCKED: ATOM     30  O   UNL     1     138.760  72.146 222.525 -0.16 +0.07    -0.272 OA 
DOCKED: BRANCH  29  31
DOCKED: ATOM     31  C   UNL     1     138.357  70.556 224.273 -0.25 -0.02    +0.123 C  
DOCKED: ATOM     32  C   UNL     1     138.204  69.125 223.843 -0.19 -0.03    +0.243 C  
DOCKED: ATOM     33  C   UNL     1     139.742  70.896 224.754 -0.42 -0.01    +0.056 C  
DOCKED: ATOM     34  O   UNL     1     138.830  68.223 224.727 -0.45 +0.02    -0.492 OA 
DOCKED: ATOM     35  C   UNL     1     140.033  69.991 225.894 -0.49 +0.00    -0.005 A  
DOCKED: ATOM     36  C   UNL     1     139.555  68.700 225.809 -0.42 -0.02    +0.122 A  
DOCKED: ATOM     37  C   UNL     1     140.735  70.354 227.007 -0.60 -0.00    +0.007 A  
DOCKED: ATOM     38  C   UNL     1     139.797  67.817 226.839 -0.62 -0.01    +0.047 A  
DOCKED: ATOM     39  C   UNL     1     140.982  69.463 228.053 -0.61 -0.00    +0.001 A  
DOCKED: ATOM     40  C   UNL     1     140.508  68.166 227.979 -0.65 -0.00    +0.004 A  
DOCKED: ENDBRANCH  29  31
DOCKED: ENDBRANCH  28  29
DOCKED: ENDBRANCH  26  28
DOCKED: ENDBRANCH  21  22
DOCKED: ENDBRANCH  20  21
DOCKED: ENDBRANCH  19  20
DOCKED: ENDBRANCH  18  19
DOCKED: ENDBRANCH   4  18
DOCKED: TORSDOF 14
DOCKED: TER
DOCKED: ENDMDL
________________________________________________________________________________


    FINAL DOCKED STATE:
    ________________________


Run:   17 / 20
Time taken for this run:   0.127s

DOCKED: MODEL        17
DOCKED: USER    Run = 17
DOCKED: USER
DOCKED: USER    Estimated Free Energy of Binding    =  -4.51 kcal/mol  [=(1)+(2)+(3)-(4)]
DOCKED: USER
DOCKED: USER    (1) Final Intermolecular Energy     =  -8.69 kcal/mol
DOCKED: USER        vdW + Hbond + desolv Energy     =  -8.64 kcal/mol
DOCKED: USER        Electrostatic Energy            =  -0.05 kcal/mol
DOCKED: USER        Moving Ligand-Fixed Receptor    =  -8.69 kcal/mol
DOCKED: USER        Moving Ligand-Moving Receptor   =  +0.00 kcal/mol
DOCKED: USER    (2) Final Total Internal Energy     =  -5.75 kcal/mol
DOCKED: USER    (3) Torsional Free Energy           =  +4.18 kcal/mol
DOCKED: USER    (4) Unbound System's Energy         =  -5.75 kcal/mol
DOCKED: USER
DOCKED: USER
DOCKED: REMARK SMILES C[C@H](C(=O)/N=c1\[nH]nc(CCCCc2n[nH]/c(=N\C(=O)[C@H]3COc4ccccc4C3)s2)s1)C(C)(C)CO
DOCKED: REMARK SMILES IDX 6 1 7 2 8 3 9 4 32 5 5 7 3 8 4 9 2 10 1 11 33 12 34 13 35 14
DOCKED: REMARK SMILES IDX 36 15 37 16 10 18 11 19 12 20 13 21 14 22 15 23 31 24 16 25
DOCKED: REMARK SMILES IDX 17 26 18 28 19 29 20 30 21 31 22 32 30 33 23 34 29 35 24 36
DOCKED: REMARK SMILES IDX 28 37 25 38 27 39 26 40
DOCKED: REMARK H PARENT 7 6 37 17 16 27
DOCKED: USER                              x       y       z     vdW  Elec       q    Type
DOCKED: USER                           _______ _______ _______ _____ _____    ______ ____
DOCKED: ROOT
DOCKED: ATOM      1  C   UNL     1     140.895  76.881 222.377 -0.29 -0.07    +0.208 A  
DOCKED: ATOM      2  N   UNL     1     141.222  75.649 221.967 -0.22 +0.07    -0.251 N  
DOCKED: ATOM      3  N   UNL     1     140.216  74.843 221.835 -0.64 +0.02    -0.167 NA 
DOCKED: ATOM      4  C   UNL     1     139.087  74.981 222.003 -0.24 -0.03    +0.116 A  
DOCKED: ATOM      5  S   UNL     1     139.051  76.801 222.560 -0.31 +0.02    -0.080 S  
DOCKED: ATOM      6  H   UNL     1     142.246  75.410 221.779 -0.44 -0.10    +0.193 HD 
DOCKED: ENDROOT
DOCKED: BRANCH   1   7
DOCKED: ATOM      7  N   UNL     1     141.576  77.927 222.617 -0.22 +0.09    -0.184 NA 
DOCKED: BRANCH   7   8
DOCKED: ATOM      8  C   UNL     1     141.019  79.031 223.358 -0.37 -0.06    +0.251 C  
DOCKED: ATOM      9  O   UNL     1     141.410  79.122 224.561 -0.31 +0.05    -0.272 OA 
DOCKED: BRANCH   8  10
DOCKED: ATOM     10  C   UNL     1     140.072  79.990 222.786 -0.34 -0.02    +0.086 C  
DOCKED: ATOM     11  C   UNL     1     139.111  80.382 223.888 -0.40 -0.00    +0.019 C  
DOCKED: BRANCH  10  12
DOCKED: ATOM     12  C   UNL     1     140.802  81.207 222.239 -0.40 +0.00    -0.001 C  
DOCKED: ATOM     13  C   UNL     1     139.821  82.313 221.912 -0.23 -0.00    +0.014 C  
DOCKED: ATOM     14  C   UNL     1     141.815  81.626 223.285 -0.50 -0.00    +0.014 C  
DOCKED: BRANCH  12  15
DOCKED: ATOM     15  C   UNL     1     141.578  80.832 220.991 -0.28 -0.05    +0.163 C  
DOCKED: BRANCH  15  16
DOCKED: ATOM     16  O   UNL     1     140.936  81.258 219.828 -0.09 +0.13    -0.396 OA 
DOCKED: ATOM     17  H   UNL     1     140.894  80.567 219.133 +0.06 -0.09    +0.210 HD 
DOCKED: ENDBRANCH  15  16
DOCKED: ENDBRANCH  12  15
DOCKED: ENDBRANCH  10  12
DOCKED: ENDBRANCH   8  10
DOCKED: ENDBRANCH   7   8
DOCKED: ENDBRANCH   1   7
DOCKED: BRANCH   4  18
DOCKED: ATOM     18  C   UNL     1     137.772  74.241 221.933 -0.15 -0.02    +0.070 C  
DOCKED: BRANCH  18  19
DOCKED: ATOM     19  C   UNL     1     136.597  75.114 222.231 -0.18 -0.00    +0.008 C  
DOCKED: BRANCH  19  20
DOCKED: ATOM     20  C   UNL     1     136.065  75.947 221.149 -0.07 -0.00    +0.008 C  
DOCKED: BRANCH  20  21
DOCKED: ATOM     21  C   UNL     1     136.095  77.416 221.268 -0.06 -0.01    +0.070 C  
DOCKED: BRANCH  21  22
DOCKED: ATOM     22  C   UNL     1     137.177  78.087 220.565 -0.04 -0.02    +0.116 A  
DOCKED: ATOM     23  N   UNL     1     137.711  79.261 220.500 -0.03 +0.03    -0.167 NA 
DOCKED: ATOM     24  S   UNL     1     138.300  77.186 219.343 -0.03 +0.02    -0.080 S  
DOCKED: ATOM     25  N   UNL     1     138.692  79.592 219.792 -0.01 +0.06    -0.251 N  
DOCKED: ATOM     26  C   UNL     1     139.286  78.655 218.997 -0.02 -0.06    +0.208 A  
DOCKED: ATOM     27  H   UNL     1     139.109  80.583 219.765 +0.03 -0.05    +0.193 HD 
DOCKED: BRANCH  26  28
DOCKED: ATOM     28  N   UNL     1     140.267  78.729 218.206 -0.03 +0.07    -0.183 NA 
DOCKED: BRANCH  28  29
DOCKED: ATOM     29  C   UNL     1     141.576  78.440 218.670 -0.14 -0.14    +0.255 C  
DOCKED: ATOM     30  O   UNL     1     142.487  79.316 218.724 -0.25 +0.22    -0.272 OA 
DOCKED: BRANCH  29  31
DOCKED: ATOM     31  C   UNL     1     141.844  77.038 219.102 -0.20 -0.06    +0.123 C  
DOCKED: ATOM     32  C   UNL     1     141.038  76.114 218.234 -0.04 -0.09    +0.243 C  
DOCKED: ATOM     33  C   UNL     1     143.314  76.721 219.117 -0.33 -0.04    +0.056 C  
DOCKED: ATOM     34  O   UNL     1     141.415  74.763 218.383 +0.02 +0.14    -0.492 OA 
DOCKED: ATOM     35  C   UNL     1     143.446  75.325 219.606 -0.39 +0.00    -0.005 A  
DOCKED: ATOM     36  C   UNL     1     142.480  74.426 219.205 -0.15 -0.04    +0.122 A  
DOCKED: ATOM     37  C   UNL     1     144.450  74.883 220.416 -0.40 -0.00    +0.007 A  
DOCKED: ATOM     38  C   UNL     1     142.554  73.116 219.628 -0.16 -0.01    +0.047 A  
DOCKED: ATOM     39  C   UNL     1     144.529  73.559 220.848 -0.49 -0.00    +0.001 A  
DOCKED: ATOM     40  C   UNL     1     143.567  72.647 220.453 -0.33 -0.00    +0.004 A  
DOCKED: ENDBRANCH  29  31
DOCKED: ENDBRANCH  28  29
DOCKED: ENDBRANCH  26  28
DOCKED: ENDBRANCH  21  22
DOCKED: ENDBRANCH  20  21
DOCKED: ENDBRANCH  19  20
DOCKED: ENDBRANCH  18  19
DOCKED: ENDBRANCH   4  18
DOCKED: TORSDOF 14
DOCKED: TER
DOCKED: ENDMDL
________________________________________________________________________________


    FINAL DOCKED STATE:
    ________________________


Run:   18 / 20
Time taken for this run:   0.127s

DOCKED: MODEL        18
DOCKED: USER    Run = 18
DOCKED: USER
DOCKED: USER    Estimated Free Energy of Binding    =  -4.83 kcal/mol  [=(1)+(2)+(3)-(4)]
DOCKED: USER
DOCKED: USER    (1) Final Intermolecular Energy     =  -9.01 kcal/mol
DOCKED: USER        vdW + Hbond + desolv Energy     =  -8.91 kcal/mol
DOCKED: USER        Electrostatic Energy            =  -0.10 kcal/mol
DOCKED: USER        Moving Ligand-Fixed Receptor    =  -9.01 kcal/mol
DOCKED: USER        Moving Ligand-Moving Receptor   =  +0.00 kcal/mol
DOCKED: USER    (2) Final Total Internal Energy     =  -5.34 kcal/mol
DOCKED: USER    (3) Torsional Free Energy           =  +4.18 kcal/mol
DOCKED: USER    (4) Unbound System's Energy         =  -5.34 kcal/mol
DOCKED: USER
DOCKED: USER
DOCKED: REMARK SMILES C[C@H](C(=O)/N=c1\[nH]nc(CCCCc2n[nH]/c(=N\C(=O)[C@H]3COc4ccccc4C3)s2)s1)C(C)(C)CO
DOCKED: REMARK SMILES IDX 6 1 7 2 8 3 9 4 32 5 5 7 3 8 4 9 2 10 1 11 33 12 34 13 35 14
DOCKED: REMARK SMILES IDX 36 15 37 16 10 18 11 19 12 20 13 21 14 22 15 23 31 24 16 25
DOCKED: REMARK SMILES IDX 17 26 18 28 19 29 20 30 21 31 22 32 30 33 23 34 29 35 24 36
DOCKED: REMARK SMILES IDX 28 37 25 38 27 39 26 40
DOCKED: REMARK H PARENT 7 6 37 17 16 27
DOCKED: USER                              x       y       z     vdW  Elec       q    Type
DOCKED: USER                           _______ _______ _______ _____ _____    ______ ____
DOCKED: ROOT
DOCKED: ATOM      1  C   UNL     1     142.476  76.765 220.220 -0.10 -0.14    +0.208 A  
DOCKED: ATOM      2  N   UNL     1     143.705  76.432 219.805 -0.25 +0.19    -0.251 N  
DOCKED: ATOM      3  N   UNL     1     143.789  75.257 219.267 -0.24 +0.09    -0.167 NA 
DOCKED: ATOM      4  C   UNL     1     143.008  74.436 219.074 -0.18 -0.04    +0.116 A  
DOCKED: ATOM      5  S   UNL     1     141.455  75.278 219.786 -0.23 +0.03    -0.080 S  
DOCKED: ATOM      6  H   UNL     1     144.510  77.123 219.935 -0.48 -0.20    +0.193 HD 
DOCKED: ENDROOT
DOCKED: BRANCH   1   7
DOCKED: ATOM      7  N   UNL     1     141.998  77.800 220.781 -0.20 +0.13    -0.184 NA 
DOCKED: BRANCH   7   8
DOCKED: ATOM      8  C   UNL     1     140.993  77.700 221.810 -0.25 -0.11    +0.251 C  
DOCKED: ATOM      9  O   UNL     1     140.927  76.573 222.388 -0.33 +0.09    -0.272 OA 
DOCKED: BRANCH   8  10
DOCKED: ATOM     10  C   UNL     1     140.103  78.803 222.179 -0.29 -0.02    +0.086 C  
DOCKED: ATOM     11  C   UNL     1     138.915  78.198 222.897 -0.27 -0.00    +0.019 C  
DOCKED: BRANCH  10  12
DOCKED: ATOM     12  C   UNL     1     140.826  79.806 223.064 -0.49 +0.00    -0.001 C  
DOCKED: ATOM     13  C   UNL     1     139.842  80.785 223.669 -0.37 -0.00    +0.014 C  
DOCKED: ATOM     14  C   UNL     1     141.573  79.012 224.117 -0.54 -0.00    +0.014 C  
DOCKED: BRANCH  12  15
DOCKED: ATOM     15  C   UNL     1     141.863  80.561 222.256 -0.42 -0.05    +0.163 C  
DOCKED: BRANCH  15  16
DOCKED: ATOM     16  O   UNL     1     143.136  80.005 222.389 -0.29 +0.18    -0.396 OA 
DOCKED: ATOM     17  H   UNL     1     143.264  79.197 221.847 -0.44 -0.19    +0.210 HD 
DOCKED: ENDBRANCH  15  16
DOCKED: ENDBRANCH  12  15
DOCKED: ENDBRANCH  10  12
DOCKED: ENDBRANCH   8  10
DOCKED: ENDBRANCH   7   8
DOCKED: ENDBRANCH   1   7
DOCKED: BRANCH   4  18
DOCKED: ATOM     18  C   UNL     1     142.854  73.047 218.502 -0.08 -0.01    +0.070 C  
DOCKED: BRANCH  18  19
DOCKED: ATOM     19  C   UNL     1     143.171  71.973 219.490 -0.18 -0.00    +0.008 C  
DOCKED: BRANCH  19  20
DOCKED: ATOM     20  C   UNL     1     142.594  72.079 220.833 -0.26 -0.00    +0.008 C  
DOCKED: BRANCH  20  21
DOCKED: ATOM     21  C   UNL     1     141.177  71.735 221.054 -0.18 -0.01    +0.070 C  
DOCKED: BRANCH  21  22
DOCKED: ATOM     22  C   UNL     1     140.296  72.848 221.372 -0.21 -0.02    +0.116 A  
DOCKED: ATOM     23  N   UNL     1     140.159  73.746 222.290 -0.80 +0.00    -0.167 NA 
DOCKED: ATOM     24  S   UNL     1     138.859  73.350 220.254 -0.09 +0.02    -0.080 S  
DOCKED: ATOM     25  N   UNL     1     139.285  74.644 222.325 -0.14 +0.05    -0.251 N  
DOCKED: ATOM     26  C   UNL     1     138.367  74.720 221.317 -0.12 -0.05    +0.208 A  
DOCKED: ATOM     27  H   UNL     1     139.203  75.375 223.109 -0.37 -0.04    +0.193 HD 
DOCKED: BRANCH  26  28
DOCKED: ATOM     28  N   UNL     1     137.405  75.512 221.119 -0.07 +0.04    -0.183 NA 
DOCKED: BRANCH  28  29
DOCKED: ATOM     29  C   UNL     1     137.316  76.231 219.900 -0.01 -0.05    +0.255 C  
DOCKED: ATOM     30  O   UNL     1     136.225  76.386 219.280 -0.00 +0.05    -0.272 OA 
DOCKED: BRANCH  29  31
DOCKED: ATOM     31  C   UNL     1     138.582  76.811 219.366 -0.02 -0.03    +0.123 C  
DOCKED: ATOM     32  C   UNL     1     138.919  76.109 218.082 -0.00 -0.06    +0.243 C  
DOCKED: ATOM     33  C   UNL     1     138.509  78.308 219.235 -0.03 -0.01    +0.056 C  
DOCKED: ATOM     34  O   UNL     1     139.947  76.754 217.364 +0.01 +0.16    -0.492 OA 
DOCKED: ATOM     35  C   UNL     1     139.836  78.759 218.744 -0.06 +0.00    -0.005 A  
DOCKED: ATOM     36  C   UNL     1     140.478  77.947 217.832 -0.05 -0.05    +0.122 A  
DOCKED: ATOM     37  C   UNL     1     140.452  79.912 219.135 -0.13 -0.00    +0.007 A  
DOCKED: ATOM     38  C   UNL     1     141.712  78.319 217.343 -0.17 -0.03    +0.047 A  
DOCKED: ATOM     39  C   UNL     1     141.701  80.292 218.643 -0.27 -0.00    +0.001 A  
DOCKED: ATOM     40  C   UNL     1     142.355  79.487 217.728 -0.30 -0.00    +0.004 A  
DOCKED: ENDBRANCH  29  31
DOCKED: ENDBRANCH  28  29
DOCKED: ENDBRANCH  26  28
DOCKED: ENDBRANCH  21  22
DOCKED: ENDBRANCH  20  21
DOCKED: ENDBRANCH  19  20
DOCKED: ENDBRANCH  18  19
DOCKED: ENDBRANCH   4  18
DOCKED: TORSDOF 14
DOCKED: TER
DOCKED: ENDMDL
________________________________________________________________________________


    FINAL DOCKED STATE:
    ________________________


Run:   19 / 20
Time taken for this run:   0.127s

DOCKED: MODEL        19
DOCKED: USER    Run = 19
DOCKED: USER
DOCKED: USER    Estimated Free Energy of Binding    =  -6.41 kcal/mol  [=(1)+(2)+(3)-(4)]
DOCKED: USER
DOCKED: USER    (1) Final Intermolecular Energy     = -10.59 kcal/mol
DOCKED: USER        vdW + Hbond + desolv Energy     = -10.53 kcal/mol
DOCKED: USER        Electrostatic Energy            =  -0.05 kcal/mol
DOCKED: USER        Moving Ligand-Fixed Receptor    = -10.59 kcal/mol
DOCKED: USER        Moving Ligand-Moving Receptor   =  +0.00 kcal/mol
DOCKED: USER    (2) Final Total Internal Energy     =  -3.91 kcal/mol
DOCKED: USER    (3) Torsional Free Energy           =  +4.18 kcal/mol
DOCKED: USER    (4) Unbound System's Energy         =  -3.91 kcal/mol
DOCKED: USER
DOCKED: USER
DOCKED: REMARK SMILES C[C@H](C(=O)/N=c1\[nH]nc(CCCCc2n[nH]/c(=N\C(=O)[C@H]3COc4ccccc4C3)s2)s1)C(C)(C)CO
DOCKED: REMARK SMILES IDX 6 1 7 2 8 3 9 4 32 5 5 7 3 8 4 9 2 10 1 11 33 12 34 13 35 14
DOCKED: REMARK SMILES IDX 36 15 37 16 10 18 11 19 12 20 13 21 14 22 15 23 31 24 16 25
DOCKED: REMARK SMILES IDX 17 26 18 28 19 29 20 30 21 31 22 32 30 33 23 34 29 35 24 36
DOCKED: REMARK SMILES IDX 28 37 25 38 27 39 26 40
DOCKED: REMARK H PARENT 7 6 37 17 16 27
DOCKED: USER                              x       y       z     vdW  Elec       q    Type
DOCKED: USER                           _______ _______ _______ _____ _____    ______ ____
DOCKED: ROOT
DOCKED: ATOM      1  C   UNL     1     133.089  70.348 226.276 -0.19 -0.01    +0.208 A  
DOCKED: ATOM      2  N   UNL     1     132.051  70.951 225.682 -0.08 +0.03    -0.251 N  
DOCKED: ATOM      3  N   UNL     1     131.760  72.117 226.167 -0.14 +0.02    -0.167 NA 
DOCKED: ATOM      4  C   UNL     1     132.223  72.740 227.014 -0.34 -0.02    +0.116 A  
DOCKED: ATOM      5  S   UNL     1     133.614  71.566 227.572 -0.49 +0.01    -0.080 S  
DOCKED: ATOM      6  H   UNL     1     131.544  70.460 224.879 +0.04 -0.02    +0.193 HD 
DOCKED: ENDROOT
DOCKED: BRANCH   1   7
DOCKED: ATOM      7  N   UNL     1     133.665  69.230 226.093 -0.70 +0.00    -0.184 NA 
DOCKED: BRANCH   7   8
DOCKED: ATOM      8  C   UNL     1     134.688  69.068 225.090 -0.16 -0.01    +0.251 C  
DOCKED: ATOM      9  O   UNL     1     134.593  68.013 224.392 -0.70 -0.01    -0.272 OA 
DOCKED: BRANCH   8  10
DOCKED: ATOM     10  C   UNL     1     135.767  70.035 224.875 -0.19 -0.01    +0.086 C  
DOCKED: ATOM     11  C   UNL     1     137.075  69.285 225.017 -0.25 -0.00    +0.019 C  
DOCKED: BRANCH  10  12
DOCKED: ATOM     12  C   UNL     1     135.649  70.674 223.500 -0.15 +0.00    -0.001 C  
DOCKED: ATOM     13  C   UNL     1     136.353  69.829 222.459 -0.10 -0.00    +0.014 C  
DOCKED: ATOM     14  C   UNL     1     134.171  70.836 223.209 -0.06 -0.00    +0.014 C  
DOCKED: BRANCH  12  15
DOCKED: ATOM     15  C   UNL     1     136.255  72.065 223.519 -0.14 -0.04    +0.163 C  
DOCKED: BRANCH  15  16
DOCKED: ATOM     16  O   UNL     1     135.334  73.041 223.138 -0.06 +0.08    -0.396 OA 
DOCKED: ATOM     17  H   UNL     1     135.739  73.780 222.635 +0.03 -0.05    +0.210 HD 
DOCKED: ENDBRANCH  15  16
DOCKED: ENDBRANCH  12  15
DOCKED: ENDBRANCH  10  12
DOCKED: ENDBRANCH   8  10
DOCKED: ENDBRANCH   7   8
DOCKED: ENDBRANCH   1   7
DOCKED: BRANCH   4  18
DOCKED: ATOM     18  C   UNL     1     132.077  74.054 227.745 -0.32 -0.01    +0.070 C  
DOCKED: BRANCH  18  19
DOCKED: ATOM     19  C   UNL     1     131.401  75.103 226.925 -0.30 -0.00    +0.008 C  
DOCKED: BRANCH  19  20
DOCKED: ATOM     20  C   UNL     1     131.938  76.466 226.970 -0.29 -0.00    +0.008 C  
DOCKED: BRANCH  20  21
DOCKED: ATOM     21  C   UNL     1     133.386  76.680 227.151 -0.34 -0.00    +0.070 C  
DOCKED: BRANCH  21  22
DOCKED: ATOM     22  C   UNL     1     134.238  76.211 226.069 -0.26 -0.01    +0.116 A  
DOCKED: ATOM     23  N   UNL     1     135.063  75.246 225.833 -0.39 +0.00    -0.167 NA 
DOCKED: ATOM     24  S   UNL     1     134.324  77.088 224.399 -0.21 +0.01    -0.080 S  
DOCKED: ATOM     25  N   UNL     1     135.686  75.049 224.763 -0.24 +0.05    -0.251 N  
DOCKED: ATOM     26  C   UNL     1     135.507  75.910 223.719 -0.19 -0.04    +0.208 A  
DOCKED: ATOM     27  H   UNL     1     136.367  74.232 224.604 -0.41 -0.09    +0.193 HD 
DOCKED: BRANCH  26  28
DOCKED: ATOM     28  N   UNL     1     136.004  75.934 222.559 -0.12 +0.04    -0.183 NA 
DOCKED: BRANCH  28  29
DOCKED: ATOM     29  C   UNL     1     137.314  75.437 222.338 -0.15 -0.07    +0.255 C  
DOCKED: ATOM     30  O   UNL     1     137.533  74.294 221.843 -0.11 +0.08    -0.272 OA 
DOCKED: BRANCH  29  31
DOCKED: ATOM     31  C   UNL     1     138.446  76.330 222.719 -0.24 -0.03    +0.123 C  
DOCKED: ATOM     32  C   UNL     1     139.707  75.777 222.118 -0.22 -0.05    +0.243 C  
DOCKED: ATOM     33  C   UNL     1     138.184  77.766 222.353 -0.24 -0.01    +0.056 C  
DOCKED: ATOM     34  O   UNL     1     140.787  76.680 222.196 -0.19 +0.16    -0.492 OA 
DOCKED: ATOM     35  C   UNL     1     139.354  78.548 222.825 -0.33 +0.00    -0.005 A  
DOCKED: ATOM     36  C   UNL     1     140.593  77.952 222.716 -0.37 -0.04    +0.122 A  
DOCKED: ATOM     37  C   UNL     1     139.280  79.804 223.352 -0.39 -0.00    +0.007 A  
DOCKED: ATOM     38  C   UNL     1     141.714  78.633 223.138 -0.53 -0.02    +0.047 A  
DOCKED: ATOM     39  C   UNL     1     140.413  80.498 223.781 -0.43 -0.00    +0.001 A  
DOCKED: ATOM     40  C   UNL     1     141.660  79.911 223.678 -0.59 -0.00    +0.004 A  
DOCKED: ENDBRANCH  29  31
DOCKED: ENDBRANCH  28  29
DOCKED: ENDBRANCH  26  28
DOCKED: ENDBRANCH  21  22
DOCKED: ENDBRANCH  20  21
DOCKED: ENDBRANCH  19  20
DOCKED: ENDBRANCH  18  19
DOCKED: ENDBRANCH   4  18
DOCKED: TORSDOF 14
DOCKED: TER
DOCKED: ENDMDL
________________________________________________________________________________


    FINAL DOCKED STATE:
    ________________________


Run:   20 / 20
Time taken for this run:   0.127s

DOCKED: MODEL        20
DOCKED: USER    Run = 20
DOCKED: USER
DOCKED: USER    Estimated Free Energy of Binding    =  -3.61 kcal/mol  [=(1)+(2)+(3)-(4)]
DOCKED: USER
DOCKED: USER    (1) Final Intermolecular Energy     =  -7.79 kcal/mol
DOCKED: USER        vdW + Hbond + desolv Energy     =  -7.77 kcal/mol
DOCKED: USER        Electrostatic Energy            =  -0.02 kcal/mol
DOCKED: USER        Moving Ligand-Fixed Receptor    =  -7.79 kcal/mol
DOCKED: USER        Moving Ligand-Moving Receptor   =  +0.00 kcal/mol
DOCKED: USER    (2) Final Total Internal Energy     =  -7.46 kcal/mol
DOCKED: USER    (3) Torsional Free Energy           =  +4.18 kcal/mol
DOCKED: USER    (4) Unbound System's Energy         =  -7.46 kcal/mol
DOCKED: USER
DOCKED: USER
DOCKED: REMARK SMILES C[C@H](C(=O)/N=c1\[nH]nc(CCCCc2n[nH]/c(=N\C(=O)[C@H]3COc4ccccc4C3)s2)s1)C(C)(C)CO
DOCKED: REMARK SMILES IDX 6 1 7 2 8 3 9 4 32 5 5 7 3 8 4 9 2 10 1 11 33 12 34 13 35 14
DOCKED: REMARK SMILES IDX 36 15 37 16 10 18 11 19 12 20 13 21 14 22 15 23 31 24 16 25
DOCKED: REMARK SMILES IDX 17 26 18 28 19 29 20 30 21 31 22 32 30 33 23 34 29 35 24 36
DOCKED: REMARK SMILES IDX 28 37 25 38 27 39 26 40
DOCKED: REMARK H PARENT 7 6 37 17 16 27
DOCKED: USER                              x       y       z     vdW  Elec       q    Type
DOCKED: USER                           _______ _______ _______ _____ _____    ______ ____
DOCKED: ROOT
DOCKED: ATOM      1  C   UNL     1     139.590  79.354 219.858 -0.05 -0.06    +0.208 A  
DOCKED: ATOM      2  N   UNL     1     140.195  78.167 219.728 -0.04 +0.09    -0.251 N  
DOCKED: ATOM      3  N   UNL     1     139.388  77.172 219.531 -0.03 +0.05    -0.167 NA 
DOCKED: ATOM      4  C   UNL     1     138.244  77.111 219.444 -0.02 -0.03    +0.116 A  
DOCKED: ATOM      5  S   UNL     1     137.790  78.945 219.677 -0.03 +0.02    -0.080 S  
DOCKED: ATOM      6  H   UNL     1     141.261  78.108 219.792 +0.08 -0.09    +0.193 HD 
DOCKED: ENDROOT
DOCKED: BRANCH   1   7
DOCKED: ATOM      7  N   UNL     1     140.022  80.533 220.056 -0.07 +0.05    -0.184 NA 
DOCKED: BRANCH   7   8
DOCKED: ATOM      8  C   UNL     1     141.368  80.773 220.513 -0.21 -0.09    +0.251 C  
DOCKED: ATOM      9  O   UNL     1     142.280  80.305 219.765 -0.22 +0.15    -0.272 OA 
DOCKED: BRANCH   8  10
DOCKED: ATOM     10  C   UNL     1     141.685  81.499 221.744 -0.37 -0.02    +0.086 C  
DOCKED: ATOM     11  C   UNL     1     140.608  82.547 221.934 -0.24 -0.00    +0.019 C  
DOCKED: BRANCH  10  12
DOCKED: ATOM     12  C   UNL     1     141.741  80.550 222.930 -0.58 +0.00    -0.001 C  
DOCKED: ATOM     13  C   UNL     1     142.195  81.283 224.175 -0.55 -0.00    +0.014 C  
DOCKED: ATOM     14  C   UNL     1     140.357  79.951 223.086 -0.44 -0.00    +0.014 C  
DOCKED: BRANCH  12  15
DOCKED: ATOM     15  C   UNL     1     142.692  79.406 222.638 -0.40 -0.08    +0.163 C  
DOCKED: BRANCH  15  16
DOCKED: ATOM     16  O   UNL     1     142.146  78.489 221.740 -0.17 +0.27    -0.396 OA 
DOCKED: ATOM     17  H   UNL     1     142.598  78.483 220.869 -0.34 -0.19    +0.210 HD 
DOCKED: ENDBRANCH  15  16
DOCKED: ENDBRANCH  12  15
DOCKED: ENDBRANCH  10  12
DOCKED: ENDBRANCH   8  10
DOCKED: ENDBRANCH   7   8
DOCKED: ENDBRANCH   1   7
DOCKED: BRANCH   4  18
DOCKED: ATOM     18  C   UNL     1     137.115  76.129 219.234 -0.01 -0.01    +0.070 C  
DOCKED: BRANCH  18  19
DOCKED: ATOM     19  C   UNL     1     136.106  76.159 220.334 -0.03 -0.00    +0.008 C  
DOCKED: BRANCH  19  20
DOCKED: ATOM     20  C   UNL     1     136.436  75.480 221.591 -0.12 -0.00    +0.008 C  
DOCKED: BRANCH  20  21
DOCKED: ATOM     21  C   UNL     1     137.405  76.085 222.522 -0.24 -0.02    +0.070 C  
DOCKED: BRANCH  21  22
DOCKED: ATOM     22  C   UNL     1     138.806  75.793 222.260 -0.26 -0.03    +0.116 A  
DOCKED: ATOM     23  N   UNL     1     139.956  76.369 222.377 -0.33 +0.03    -0.167 NA 
DOCKED: ATOM     24  S   UNL     1     139.378  74.135 221.560 -0.29 +0.02    -0.080 S  
DOCKED: ATOM     25  N   UNL     1     141.068  75.873 222.078 -0.23 +0.07    -0.251 N  
DOCKED: ATOM     26  C   UNL     1     141.118  74.602 221.578 -0.22 -0.03    +0.208 A  
DOCKED: ATOM     27  H   UNL     1     142.006  76.385 222.190 -0.50 -0.16    +0.193 HD 
DOCKED: BRANCH  26  28
DOCKED: ATOM     28  N   UNL     1     142.089  73.887 221.208 -0.17 +0.03    -0.183 NA 
DOCKED: BRANCH  28  29
DOCKED: ATOM     29  C   UNL     1     142.903  74.302 220.123 -0.20 -0.08    +0.255 C  
DOCKED: ATOM     30  O   UNL     1     143.974  73.706 219.809 -0.21 +0.06    -0.272 OA 
DOCKED: BRANCH  29  31
DOCKED: ATOM     31  C   UNL     1     142.440  75.490 219.349 -0.22 -0.05    +0.123 C  
DOCKED: ATOM     32  C   UNL     1     143.312  76.659 219.711 -0.17 -0.18    +0.243 C  
DOCKED: ATOM     33  C   UNL     1     142.382  75.217 217.871 -0.12 -0.02    +0.056 C  
DOCKED: ATOM     34  O   UNL     1     143.130  77.759 218.848 -0.08 +0.41    -0.492 OA 
DOCKED: ATOM     35  C   UNL     1     141.866  76.451 217.228 -0.12 +0.00    -0.005 A  
DOCKED: ATOM     36  C   UNL     1     142.275  77.655 217.761 -0.22 -0.08    +0.122 A  
DOCKED: ATOM     37  C   UNL     1     141.022  76.467 216.155 -0.04 -0.00    +0.007 A  
DOCKED: ATOM     38  C   UNL     1     141.828  78.833 217.202 -0.19 -0.04    +0.047 A  
DOCKED: ATOM     39  C   UNL     1     140.566  77.657 215.586 -0.04 -0.00    +0.001 A  
DOCKED: ATOM     40  C   UNL     1     140.969  78.871 216.112 -0.08 -0.00    +0.004 A  
DOCKED: ENDBRANCH  29  31
DOCKED: ENDBRANCH  28  29
DOCKED: ENDBRANCH  26  28
DOCKED: ENDBRANCH  21  22
DOCKED: ENDBRANCH  20  21
DOCKED: ENDBRANCH  19  20
DOCKED: ENDBRANCH  18  19
DOCKED: ENDBRANCH   4  18
DOCKED: TORSDOF 14
DOCKED: TER
DOCKED: ENDMDL
________________________________________________________________________________


    CLUSTERING HISTOGRAM
    ____________________


________________________________________________________________________________
     |           |     |           |     |
Clus | Lowest    | Run | Mean      | Num | Histogram
-ter | Binding   |     | Binding   | in  |
Rank | Energy    |     | Energy    | Clus|    5    10   15   20   25   30   35
_____|___________|_____|___________|_____|____:____|____:____|____:____|____:___
   1 |     -8.39 |  13 |     -8.19 |   2 |##
   2 |     -6.99 |  15 |     -6.99 |   1 |#
   3 |     -6.63 |   8 |     -6.63 |   1 |#
   4 |     -6.56 |   2 |     -6.56 |   1 |#
   5 |     -6.48 |  12 |     -6.48 |   1 |#
   6 |     -6.41 |  19 |     -6.41 |   1 |#
   7 |     -6.19 |  16 |     -6.19 |   1 |#
   8 |     -6.07 |   5 |     -4.77 |   6 |######
   9 |     -5.55 |   7 |     -4.58 |   2 |##
  10 |     -5.14 |   9 |     -5.14 |   1 |#
  11 |     -5.07 |  11 |     -5.07 |   1 |#
  12 |     -4.83 |  18 |     -4.83 |   1 |#
  13 |     -4.51 |  17 |     -4.51 |   1 |#
_____|___________|_____|___________|_____|______________________________________


    RMSD TABLE
    __________


_______________________________________________________________________
     |      |      |           |         |                 |
Rank | Sub- | Run  | Binding   | Cluster | Reference       | Grep
     | Rank |      | Energy    | RMSD    | RMSD            | Pattern
_____|______|______|___________|_________|_________________|___________
   1      1     13       -8.39      0.00    269.53           RANKING
   1      2     10       -7.98      0.78    269.41           RANKING
   2      1     15       -6.99      0.00    268.70           RANKING
   3      1      8       -6.63      0.00    269.03           RANKING
   4      1      2       -6.56      0.00    268.57           RANKING
   5      1     12       -6.48      0.00    270.62           RANKING
   6      1     19       -6.41      0.00    268.64           RANKING
   7      1     16       -6.19      0.00    268.54           RANKING
   8      1      5       -6.07      0.00    268.83           RANKING
   8      2      4       -5.97      1.04    269.00           RANKING
   8      3      1       -4.70      1.87    268.76           RANKING
   8      4      3       -4.23      1.84    268.47           RANKING
   8      5      6       -3.87      1.95    268.51           RANKING
   8      6     14       -3.76      1.44    268.48           RANKING
   9      1      7       -5.55      0.00    269.36           RANKING
   9      2     20       -3.61      1.91    268.55           RANKING
  10      1      9       -5.14      0.00    268.18           RANKING
  11      1     11       -5.07      0.00    268.98           RANKING
  12      1     18       -4.83      0.00    268.50           RANKING
  13      1     17       -4.51      0.00    268.88           RANKING

Run time 2.505 sec
Idle time 0.000 sec
