AutoDock-GPU version: v1.6

**********************************************************
**    AutoDock-GPU AUTODOCKTOOLS-COMPATIBLE DLG FILE    **
**********************************************************


    DOCKING PARAMETERS
    ________________________


Ligand file:                               /home/a/REINVENT4/ReinventStudies/pleaseWork/justRnve/graph-dock-w0wspr/graph-DockGPU/node-autodockgpu/inputs/GHRBDJAYIWVDBG-NQMLYKMBNA-N.pdbqt
Grid fld file:                             /home/a/REINVENT4/ReinventStudies/mols/Rad51/maps/rad51_receptor.maps.fld

Random seed:                               42
Number of runs:                            20
Number of energy evaluations:              5210753
Number of generations:                     42000
Size of population:                        150
Rate of crossover:                         80.000000%
Tournament selection probability limit:    60.000000%
Rate of mutation:                          2.000000%
Maximal allowed delta movement:            +/- 6.000000A
Maximal allowed delta angle:               +/- 90.000000

Rate of local search:                      100.000000%
Maximal number of local search iterations: 300
Rho lower bound:                           0.010000
Spread of local search delta movement:     2.000000A
Spread of local search delta angle:        74.999999
Limit of consecutive successes/failures:   4

Handle symmetry during clustering:         YES
RMSD tolerance:                            2.000000A

Program call in command line was:          /home/a/REINVENT4/ReinventStudies/adgpu-v1.6_linux_x64_cuda12_128wi --filelist batch.txt --heuristics 1 --nrun 20 --psize 150 --lsit 300 --seed 42 --heurmax 12000000 


    GRID PARAMETERS
    ________________________


Receptor name:                             rad51_receptor
Number of grid points (x, y, z):           53, 53, 53
Grid center (x, y, z):                     139.950000, 75.640000, 221.970000A
Grid size (x, y, z):                       19.500000, 19.500000, 19.500000A
Grid spacing:                              0.375000A


    LIGAND PARAMETERS
    ________________________


Ligand name:                               /home/a/REINVENT4/ReinventStudies/pleaseWork/justRnve/graph-dock-w0wspr/graph-DockGPU/node-autodockgpu/inputs/GHRBDJAYIWVDBG-NQMLYKMBNA-N
Number of atoms:                           40
Number of rotatable bonds:                 14
Number of atom types:                      7


    DUMMY DATA (only for ADT-compatibility)
    ________________________


DPF> outlev 1
DPF> ga_run 20
DPF> fld /home/a/REINVENT4/ReinventStudies/mols/Rad51/maps/rad51_receptor.maps.fld
DPF> move /home/a/REINVENT4/ReinventStudies/pleaseWork/justRnve/graph-dock-w0wspr/graph-DockGPU/node-autodockgpu/inputs/GHRBDJAYIWVDBG-NQMLYKMBNA-N.pdbqt


    COUNTER STATES
    ________________________


Number of energy evaluations performed:    2502499
Number of generations used:                190


    INPUT LIGAND PDBQT FILE:
    ________________________


INPUT-LIGAND-PDBQT: REMARK SMILES C[C@@H](C(=O)/N=c1\[nH]nc(CCCCc2n[nH]/c(=N\C(=O)[C@@H]3COc4ccccc4C3)s2)s1)C(C)(C)CO
INPUT-LIGAND-PDBQT: REMARK SMILES IDX 6 1 7 2 8 3 9 4 32 5 5 7 3 8 4 9 2 10 1 11 33 12 34 13 35 14
INPUT-LIGAND-PDBQT: REMARK SMILES IDX 36 15 37 16 10 18 11 19 12 20 13 21 14 22 15 23 31 24 16 25
INPUT-LIGAND-PDBQT: REMARK SMILES IDX 17 26 18 28 19 29 20 30 21 31 22 32 30 33 23 34 29 35 24 36
INPUT-LIGAND-PDBQT: REMARK SMILES IDX 28 37 25 38 27 39 26 40
INPUT-LIGAND-PDBQT: REMARK H PARENT 7 6 37 17 16 27
INPUT-LIGAND-PDBQT: ROOT
INPUT-LIGAND-PDBQT: ATOM      1  C   UNL     1       3.075   1.339   0.214  1.00  0.00     0.208 A 
INPUT-LIGAND-PDBQT: ATOM      2  N   UNL     1       3.364   1.411  -1.059  1.00  0.00    -0.251 N 
INPUT-LIGAND-PDBQT: ATOM      3  N   UNL     1       2.800   2.373  -1.726  1.00  0.00    -0.167 NA
INPUT-LIGAND-PDBQT: ATOM      4  C   UNL     1       2.063   3.203  -1.379  1.00  0.00     0.116 A 
INPUT-LIGAND-PDBQT: ATOM      5  S   UNL     1       1.919   2.743   0.468  1.00  0.00    -0.080 S 
INPUT-LIGAND-PDBQT: ATOM      6  H   UNL     1       4.029   0.719  -1.534  1.00  0.00     0.193 HD
INPUT-LIGAND-PDBQT: ENDROOT
INPUT-LIGAND-PDBQT: BRANCH   1   7
INPUT-LIGAND-PDBQT: ATOM      7  N   UNL     1       3.429   0.547   1.174  1.00  0.00    -0.184 NA
INPUT-LIGAND-PDBQT: BRANCH   7   8
INPUT-LIGAND-PDBQT: ATOM      8  C   UNL     1       4.325  -0.505   0.875  1.00  0.00     0.251 C 
INPUT-LIGAND-PDBQT: ATOM      9  O   UNL     1       3.893  -1.459   0.187  1.00  0.00    -0.272 OA
INPUT-LIGAND-PDBQT: BRANCH   8  10
INPUT-LIGAND-PDBQT: ATOM     10  C   UNL     1       5.707  -0.402   1.397  1.00  0.00     0.086 C 
INPUT-LIGAND-PDBQT: ATOM     11  C   UNL     1       6.319   0.852   0.790  1.00  0.00     0.019 C 
INPUT-LIGAND-PDBQT: BRANCH  10  12
INPUT-LIGAND-PDBQT: ATOM     12  C   UNL     1       6.535  -1.603   1.039  1.00  0.00    -0.001 C 
INPUT-LIGAND-PDBQT: ATOM     13  C   UNL     1       7.952  -1.386   1.584  1.00  0.00     0.014 C 
INPUT-LIGAND-PDBQT: ATOM     14  C   UNL     1       6.668  -1.828  -0.448  1.00  0.00     0.014 C 
INPUT-LIGAND-PDBQT: BRANCH  12  15
INPUT-LIGAND-PDBQT: ATOM     15  C   UNL     1       6.040  -2.857   1.721  1.00  0.00     0.163 C 
INPUT-LIGAND-PDBQT: BRANCH  15  16
INPUT-LIGAND-PDBQT: ATOM     16  O   UNL     1       6.885  -3.913   1.317  1.00  0.00    -0.396 OA
INPUT-LIGAND-PDBQT: ATOM     17  H   UNL     1       6.364  -4.563   0.765  1.00  0.00     0.210 HD
INPUT-LIGAND-PDBQT: ENDBRANCH  15  16
INPUT-LIGAND-PDBQT: ENDBRANCH  12  15
INPUT-LIGAND-PDBQT: ENDBRANCH  10  12
INPUT-LIGAND-PDBQT: ENDBRANCH   8  10
INPUT-LIGAND-PDBQT: ENDBRANCH   7   8
INPUT-LIGAND-PDBQT: ENDBRANCH   1   7
INPUT-LIGAND-PDBQT: BRANCH   4  18
INPUT-LIGAND-PDBQT: ATOM     18  C   UNL     1       1.286   4.379  -1.868  1.00  0.00     0.070 C 
INPUT-LIGAND-PDBQT: BRANCH  18  19
INPUT-LIGAND-PDBQT: ATOM     19  C   UNL     1      -0.062   3.855  -2.318  1.00  0.00     0.008 C 
INPUT-LIGAND-PDBQT: BRANCH  19  20
INPUT-LIGAND-PDBQT: ATOM     20  C   UNL     1       0.216   2.842  -3.433  1.00  0.00     0.008 C 
INPUT-LIGAND-PDBQT: BRANCH  20  21
INPUT-LIGAND-PDBQT: ATOM     21  C   UNL     1      -1.128   2.323  -3.876  1.00  0.00     0.070 C 
INPUT-LIGAND-PDBQT: BRANCH  21  22
INPUT-LIGAND-PDBQT: ATOM     22  C   UNL     1      -1.774   1.686  -2.690  1.00  0.00     0.116 A 
INPUT-LIGAND-PDBQT: ATOM     23  N   UNL     1      -2.457   1.876  -1.786  1.00  0.00    -0.167 NA
INPUT-LIGAND-PDBQT: ATOM     24  S   UNL     1      -1.429  -0.197  -2.428  1.00  0.00    -0.080 S 
INPUT-LIGAND-PDBQT: ATOM     25  N   UNL     1      -2.895   1.104  -0.847  1.00  0.00    -0.251 N 
INPUT-LIGAND-PDBQT: ATOM     26  C   UNL     1      -2.509  -0.139  -0.901  1.00  0.00     0.208 A 
INPUT-LIGAND-PDBQT: ATOM     27  H   UNL     1      -3.539   1.461  -0.066  1.00  0.00     0.193 HD
INPUT-LIGAND-PDBQT: BRANCH  26  28
INPUT-LIGAND-PDBQT: ATOM     28  N   UNL     1      -2.713  -1.199  -0.180  1.00  0.00    -0.183 NA
INPUT-LIGAND-PDBQT: BRANCH  28  29
INPUT-LIGAND-PDBQT: ATOM     29  C   UNL     1      -3.559  -1.089   0.990  1.00  0.00     0.255 C 
INPUT-LIGAND-PDBQT: ATOM     30  O   UNL     1      -3.127  -0.622   2.074  1.00  0.00    -0.272 OA
INPUT-LIGAND-PDBQT: BRANCH  29  31
INPUT-LIGAND-PDBQT: ATOM     31  C   UNL     1      -4.966  -1.567   0.818  1.00  0.00     0.123 C 
INPUT-LIGAND-PDBQT: ATOM     32  C   UNL     1      -5.676  -0.786  -0.265  1.00  0.00     0.243 C 
INPUT-LIGAND-PDBQT: ATOM     33  C   UNL     1      -5.707  -1.597   2.115  1.00  0.00     0.056 C 
INPUT-LIGAND-PDBQT: ATOM     34  O   UNL     1      -6.966  -1.349  -0.416  1.00  0.00    -0.492 OA
INPUT-LIGAND-PDBQT: ATOM     35  C   UNL     1      -7.178  -1.521   1.948  1.00  0.00    -0.005 A 
INPUT-LIGAND-PDBQT: ATOM     36  C   UNL     1      -7.775  -1.401   0.711  1.00  0.00     0.122 A 
INPUT-LIGAND-PDBQT: ATOM     37  C   UNL     1      -7.939  -1.577   3.105  1.00  0.00     0.007 A 
INPUT-LIGAND-PDBQT: ATOM     38  C   UNL     1      -9.164  -1.335   0.630  1.00  0.00     0.047 A 
INPUT-LIGAND-PDBQT: ATOM     39  C   UNL     1      -9.313  -1.510   3.000  1.00  0.00     0.001 A 
INPUT-LIGAND-PDBQT: ATOM     40  C   UNL     1      -9.960  -1.388   1.772  1.00  0.00     0.004 A 
INPUT-LIGAND-PDBQT: ENDBRANCH  29  31
INPUT-LIGAND-PDBQT: ENDBRANCH  28  29
INPUT-LIGAND-PDBQT: ENDBRANCH  26  28
INPUT-LIGAND-PDBQT: ENDBRANCH  21  22
INPUT-LIGAND-PDBQT: ENDBRANCH  20  21
INPUT-LIGAND-PDBQT: ENDBRANCH  19  20
INPUT-LIGAND-PDBQT: ENDBRANCH  18  19
INPUT-LIGAND-PDBQT: ENDBRANCH   4  18
INPUT-LIGAND-PDBQT: TORSDOF 14


    FINAL DOCKED STATE:
    ________________________


Run:   1 / 20
Time taken for this run:   0.177s

DOCKED: MODEL        1
DOCKED: USER    Run = 1
DOCKED: USER
DOCKED: USER    Estimated Free Energy of Binding    =  -7.18 kcal/mol  [=(1)+(2)+(3)-(4)]
DOCKED: USER
DOCKED: USER    (1) Final Intermolecular Energy     = -11.36 kcal/mol
DOCKED: USER        vdW + Hbond + desolv Energy     = -11.19 kcal/mol
DOCKED: USER        Electrostatic Energy            =  -0.17 kcal/mol
DOCKED: USER        Moving Ligand-Fixed Receptor    = -11.36 kcal/mol
DOCKED: USER        Moving Ligand-Moving Receptor   =  +0.00 kcal/mol
DOCKED: USER    (2) Final Total Internal Energy     =  -4.35 kcal/mol
DOCKED: USER    (3) Torsional Free Energy           =  +4.18 kcal/mol
DOCKED: USER    (4) Unbound System's Energy         =  -4.35 kcal/mol
DOCKED: USER
DOCKED: USER
DOCKED: REMARK SMILES C[C@@H](C(=O)/N=c1\[nH]nc(CCCCc2n[nH]/c(=N\C(=O)[C@@H]3COc4ccccc4C3)s2)s1)C(C)(C)CO
DOCKED: REMARK SMILES IDX 6 1 7 2 8 3 9 4 32 5 5 7 3 8 4 9 2 10 1 11 33 12 34 13 35 14
DOCKED: REMARK SMILES IDX 36 15 37 16 10 18 11 19 12 20 13 21 14 22 15 23 31 24 16 25
DOCKED: REMARK SMILES IDX 17 26 18 28 19 29 20 30 21 31 22 32 30 33 23 34 29 35 24 36
DOCKED: REMARK SMILES IDX 28 37 25 38 27 39 26 40
DOCKED: REMARK H PARENT 7 6 37 17 16 27
DOCKED: USER                              x       y       z     vdW  Elec       q    Type
DOCKED: USER                           _______ _______ _______ _____ _____    ______ ____
DOCKED: ROOT
DOCKED: ATOM      1  C   UNL     1     134.888  75.844 222.824 -0.09 -0.03    +0.208 A  
DOCKED: ATOM      2  N   UNL     1     133.896  75.060 222.494 -0.02 +0.04    -0.251 N  
DOCKED: ATOM      3  N   UNL     1     132.975  74.883 223.393 -0.03 +0.02    -0.167 NA 
DOCKED: ATOM      4  C   UNL     1     132.877  75.311 224.470 -0.09 -0.01    +0.116 A  
DOCKED: ATOM      5  S   UNL     1     134.471  76.359 224.537 -0.27 +0.01    -0.080 S  
DOCKED: ATOM      6  H   UNL     1     133.838  74.585 221.535 +0.02 -0.03    +0.193 HD 
DOCKED: ENDROOT
DOCKED: BRANCH   1   7
DOCKED: ATOM      7  N   UNL     1     135.957  76.249 222.217 -0.09 +0.03    -0.184 NA 
DOCKED: BRANCH   7   8
DOCKED: ATOM      8  C   UNL     1     137.176  75.594 222.504 -0.15 -0.07    +0.251 C  
DOCKED: ATOM      9  O   UNL     1     137.165  74.343 222.559 -0.07 +0.10    -0.272 OA 
DOCKED: BRANCH   8  10
DOCKED: ATOM     10  C   UNL     1     138.376  76.435 222.717 -0.26 -0.02    +0.086 C  
DOCKED: ATOM     11  C   UNL     1     137.905  77.882 222.749 -0.23 -0.00    +0.019 C  
DOCKED: BRANCH  10  12
DOCKED: ATOM     12  C   UNL     1     139.394  76.251 221.628 -0.29 +0.00    -0.001 C  
DOCKED: ATOM     13  C   UNL     1     140.771  76.620 222.194 -0.39 -0.00    +0.014 C  
DOCKED: ATOM     14  C   UNL     1     139.164  77.134 220.425 -0.11 -0.00    +0.014 C  
DOCKED: BRANCH  12  15
DOCKED: ATOM     15  C   UNL     1     139.518  74.805 221.207 -0.19 -0.03    +0.163 C  
DOCKED: BRANCH  15  16
DOCKED: ATOM     16  O   UNL     1     139.967  74.080 222.331 -0.79 +0.01    -0.396 OA 
DOCKED: ATOM     17  H   UNL     1     139.180  73.757 222.855 -0.49 -0.08    +0.210 HD 
DOCKED: ENDBRANCH  15  16
DOCKED: ENDBRANCH  12  15
DOCKED: ENDBRANCH  10  12
DOCKED: ENDBRANCH   8  10
DOCKED: ENDBRANCH   7   8
DOCKED: ENDBRANCH   1   7
DOCKED: BRANCH   4  18
DOCKED: ATOM     18  C   UNL     1     131.997  75.301 225.674 -0.16 -0.01    +0.070 C  
DOCKED: BRANCH  18  19
DOCKED: ATOM     19  C   UNL     1     132.728  74.514 226.742 -0.37 -0.00    +0.008 C  
DOCKED: BRANCH  19  20
DOCKED: ATOM     20  C   UNL     1     132.204  73.077 226.658 -0.36 -0.00    +0.008 C  
DOCKED: BRANCH  20  21
DOCKED: ATOM     21  C   UNL     1     133.351  72.185 227.060 -0.39 -0.01    +0.070 C  
DOCKED: BRANCH  21  22
DOCKED: ATOM     22  C   UNL     1     134.352  72.219 225.952 -0.18 -0.00    +0.116 A  
DOCKED: ATOM     23  N   UNL     1     135.057  72.899 225.352 -0.08 +0.01    -0.167 NA 
DOCKED: ATOM     24  S   UNL     1     134.727  70.537 225.078 -0.25 +0.01    -0.080 S  
DOCKED: ATOM     25  N   UNL     1     135.875  72.667 224.379 -0.10 +0.05    -0.251 N  
DOCKED: ATOM     26  C   UNL     1     135.941  71.432 223.970 -0.13 -0.03    +0.208 A  
DOCKED: ATOM     27  H   UNL     1     136.466  73.442 223.930 -0.45 -0.09    +0.193 HD 
DOCKED: BRANCH  26  28
DOCKED: ATOM     28  N   UNL     1     136.608  70.800 223.053 -0.09 +0.03    -0.183 NA 
DOCKED: BRANCH  28  29
DOCKED: ATOM     29  C   UNL     1     138.039  71.007 222.971 -0.13 -0.06    +0.255 C  
DOCKED: ATOM     30  O   UNL     1     138.535  71.893 222.231 -0.11 +0.07    -0.272 OA 
DOCKED: BRANCH  29  31
DOCKED: ATOM     31  C   UNL     1     138.874  70.100 223.819 -0.25 -0.02    +0.123 C  
DOCKED: ATOM     32  C   UNL     1     138.056  68.941 224.342 -0.20 -0.02    +0.243 C  
DOCKED: ATOM     33  C   UNL     1     139.599  70.849 224.889 -0.42 -0.01    +0.056 C  
DOCKED: ATOM     34  O   UNL     1     138.933  68.096 225.064 -0.53 +0.01    -0.492 OA 
DOCKED: ATOM     35  C   UNL     1     139.973  69.999 226.045 -0.50 +0.00    -0.005 A  
DOCKED: ATOM     36  C   UNL     1     139.642  68.662 226.115 -0.45 -0.02    +0.122 A  
DOCKED: ATOM     37  C   UNL     1     140.679  70.613 227.066 -0.63 -0.00    +0.007 A  
DOCKED: ATOM     38  C   UNL     1     140.026  67.924 227.232 -0.60 -0.01    +0.047 A  
DOCKED: ATOM     39  C   UNL     1     141.049  69.863 228.163 -0.59 -0.00    +0.001 A  
DOCKED: ATOM     40  C   UNL     1     140.736  68.510 228.278 -0.67 -0.00    +0.004 A  
DOCKED: ENDBRANCH  29  31
DOCKED: ENDBRANCH  28  29
DOCKED: ENDBRANCH  26  28
DOCKED: ENDBRANCH  21  22
DOCKED: ENDBRANCH  20  21
DOCKED: ENDBRANCH  19  20
DOCKED: ENDBRANCH  18  19
DOCKED: ENDBRANCH   4  18
DOCKED: TORSDOF 14
DOCKED: TER
DOCKED: ENDMDL
________________________________________________________________________________


    FINAL DOCKED STATE:
    ________________________


Run:   2 / 20
Time taken for this run:   0.177s

DOCKED: MODEL        2
DOCKED: USER    Run = 2
DOCKED: USER
DOCKED: USER    Estimated Free Energy of Binding    =  -4.08 kcal/mol  [=(1)+(2)+(3)-(4)]
DOCKED: USER
DOCKED: USER    (1) Final Intermolecular Energy     =  -8.25 kcal/mol
DOCKED: USER        vdW + Hbond + desolv Energy     =  -8.36 kcal/mol
DOCKED: USER        Electrostatic Energy            =  +0.11 kcal/mol
DOCKED: USER        Moving Ligand-Fixed Receptor    =  -8.25 kcal/mol
DOCKED: USER        Moving Ligand-Moving Receptor   =  +0.00 kcal/mol
DOCKED: USER    (2) Final Total Internal Energy     =  -7.19 kcal/mol
DOCKED: USER    (3) Torsional Free Energy           =  +4.18 kcal/mol
DOCKED: USER    (4) Unbound System's Energy         =  -7.19 kcal/mol
DOCKED: USER
DOCKED: USER
DOCKED: REMARK SMILES C[C@@H](C(=O)/N=c1\[nH]nc(CCCCc2n[nH]/c(=N\C(=O)[C@@H]3COc4ccccc4C3)s2)s1)C(C)(C)CO
DOCKED: REMARK SMILES IDX 6 1 7 2 8 3 9 4 32 5 5 7 3 8 4 9 2 10 1 11 33 12 34 13 35 14
DOCKED: REMARK SMILES IDX 36 15 37 16 10 18 11 19 12 20 13 21 14 22 15 23 31 24 16 25
DOCKED: REMARK SMILES IDX 17 26 18 28 19 29 20 30 21 31 22 32 30 33 23 34 29 35 24 36
DOCKED: REMARK SMILES IDX 28 37 25 38 27 39 26 40
DOCKED: REMARK H PARENT 7 6 37 17 16 27
DOCKED: USER                              x       y       z     vdW  Elec       q    Type
DOCKED: USER                           _______ _______ _______ _____ _____    ______ ____
DOCKED: ROOT
DOCKED: ATOM      1  C   UNL     1     140.457  76.772 222.340 -0.31 -0.06    +0.208 A  
DOCKED: ATOM      2  N   UNL     1     141.221  75.826 221.860 -0.22 +0.08    -0.251 N  
DOCKED: ATOM      3  N   UNL     1     140.679  74.651 221.740 -0.61 +0.02    -0.167 NA 
DOCKED: ATOM      4  C   UNL     1     139.605  74.284 221.992 -0.23 -0.02    +0.116 A  
DOCKED: ATOM      5  S   UNL     1     138.859  75.918 222.638 -0.25 +0.02    -0.080 S  
DOCKED: ATOM      6  H   UNL     1     142.239  76.001 221.578 -0.50 -0.15    +0.193 HD 
DOCKED: ENDROOT
DOCKED: BRANCH   1   7
DOCKED: ATOM      7  N   UNL     1     140.633  78.028 222.596 -0.29 +0.06    -0.184 NA 
DOCKED: BRANCH   7   8
DOCKED: ATOM      8  C   UNL     1     141.616  78.727 221.860 -0.28 -0.12    +0.251 C  
DOCKED: ATOM      9  O   UNL     1     142.190  78.116 220.929 -0.22 +0.20    -0.272 OA 
DOCKED: BRANCH   8  10
DOCKED: ATOM     10  C   UNL     1     141.895  80.131 222.243 -0.47 -0.03    +0.086 C  
DOCKED: ATOM     11  C   UNL     1     141.575  80.258 223.725 -0.56 -0.00    +0.019 C  
DOCKED: BRANCH  10  12
DOCKED: ATOM     12  C   UNL     1     141.068  81.105 221.453 -0.37 +0.00    -0.001 C  
DOCKED: ATOM     13  C   UNL     1     141.392  82.519 221.950 -0.29 -0.00    +0.014 C  
DOCKED: ATOM     14  C   UNL     1     139.580  80.913 221.619 -0.21 -0.00    +0.014 C  
DOCKED: BRANCH  12  15
DOCKED: ATOM     15  C   UNL     1     141.440  81.108 219.989 -0.23 -0.06    +0.163 C  
DOCKED: BRANCH  15  16
DOCKED: ATOM     16  O   UNL     1     140.776  80.018 219.386 -0.05 +0.16    -0.396 OA 
DOCKED: ATOM     17  H   UNL     1     141.413  79.255 219.285 +0.08 -0.11    +0.210 HD 
DOCKED: ENDBRANCH  15  16
DOCKED: ENDBRANCH  12  15
DOCKED: ENDBRANCH  10  12
DOCKED: ENDBRANCH   8  10
DOCKED: ENDBRANCH   7   8
DOCKED: ENDBRANCH   1   7
DOCKED: BRANCH   4  18
DOCKED: ATOM     18  C   UNL     1     138.729  73.077 221.971 -0.18 -0.02    +0.070 C  
DOCKED: BRANCH  18  19
DOCKED: ATOM     19  C   UNL     1     138.146  72.985 220.575 -0.08 -0.00    +0.008 C  
DOCKED: BRANCH  19  20
DOCKED: ATOM     20  C   UNL     1     137.192  74.174 220.424 -0.06 -0.00    +0.008 C  
DOCKED: BRANCH  20  21
DOCKED: ATOM     21  C   UNL     1     137.370  74.681 219.016 -0.01 -0.01    +0.070 C  
DOCKED: BRANCH  21  22
DOCKED: ATOM     22  C   UNL     1     138.431  75.730 219.048 -0.02 -0.03    +0.116 A  
DOCKED: ATOM     23  N   UNL     1     138.899  76.563 219.686 -0.02 +0.04    -0.167 NA 
DOCKED: ATOM     24  S   UNL     1     139.548  75.876 217.479 -0.02 +0.02    -0.080 S  
DOCKED: ATOM     25  N   UNL     1     139.877  77.381 219.471 -0.02 +0.08    -0.251 N  
DOCKED: ATOM     26  C   UNL     1     140.472  77.271 218.318 -0.03 -0.08    +0.208 A  
DOCKED: ATOM     27  H   UNL     1     140.183  78.110 220.196 +0.07 -0.07    +0.193 HD 
DOCKED: BRANCH  26  28
DOCKED: ATOM     28  N   UNL     1     141.458  77.876 217.729 -0.09 +0.10    -0.183 NA 
DOCKED: BRANCH  28  29
DOCKED: ATOM     29  C   UNL     1     142.695  77.151 217.526 -0.19 -0.17    +0.255 C  
DOCKED: ATOM     30  O   UNL     1     143.534  77.507 216.661 -0.20 +0.28    -0.272 OA 
DOCKED: BRANCH  29  31
DOCKED: ATOM     31  C   UNL     1     142.898  75.960 218.409 -0.22 -0.06    +0.123 C  
DOCKED: ATOM     32  C   UNL     1     143.699  76.326 219.638 -0.19 -0.18    +0.243 C  
DOCKED: ATOM     33  C   UNL     1     143.459  74.797 217.657 -0.16 -0.02    +0.056 C  
DOCKED: ATOM     34  O   UNL     1     143.779  75.170 220.452 -0.15 +0.28    -0.492 OA 
DOCKED: ATOM     35  C   UNL     1     144.173  73.831 218.525 -0.21 +0.00    -0.005 A  
DOCKED: ATOM     36  C   UNL     1     144.320  74.026 219.882 -0.34 -0.04    +0.122 A  
DOCKED: ATOM     37  C   UNL     1     144.693  72.706 217.905 -0.17 +0.00    +0.007 A  
DOCKED: ATOM     38  C   UNL     1     145.003  73.075 220.635 -0.50 -0.01    +0.047 A  
DOCKED: ATOM     39  C   UNL     1     145.366  71.777 218.672 -0.24 +0.00    +0.001 A  
DOCKED: ATOM     40  C   UNL     1     145.540  71.932 220.046 -0.31 +0.00    +0.004 A  
DOCKED: ENDBRANCH  29  31
DOCKED: ENDBRANCH  28  29
DOCKED: ENDBRANCH  26  28
DOCKED: ENDBRANCH  21  22
DOCKED: ENDBRANCH  20  21
DOCKED: ENDBRANCH  19  20
DOCKED: ENDBRANCH  18  19
DOCKED: ENDBRANCH   4  18
DOCKED: TORSDOF 14
DOCKED: TER
DOCKED: ENDMDL
________________________________________________________________________________


    FINAL DOCKED STATE:
    ________________________


Run:   3 / 20
Time taken for this run:   0.177s

DOCKED: MODEL        3
DOCKED: USER    Run = 3
DOCKED: USER
DOCKED: USER    Estimated Free Energy of Binding    =  -6.87 kcal/mol  [=(1)+(2)+(3)-(4)]
DOCKED: USER
DOCKED: USER    (1) Final Intermolecular Energy     = -11.04 kcal/mol
DOCKED: USER        vdW + Hbond + desolv Energy     = -10.95 kcal/mol
DOCKED: USER        Electrostatic Energy            =  -0.09 kcal/mol
DOCKED: USER        Moving Ligand-Fixed Receptor    = -11.04 kcal/mol
DOCKED: USER        Moving Ligand-Moving Receptor   =  +0.00 kcal/mol
DOCKED: USER    (2) Final Total Internal Energy     =  -5.61 kcal/mol
DOCKED: USER    (3) Torsional Free Energy           =  +4.18 kcal/mol
DOCKED: USER    (4) Unbound System's Energy         =  -5.61 kcal/mol
DOCKED: USER
DOCKED: USER
DOCKED: REMARK SMILES C[C@@H](C(=O)/N=c1\[nH]nc(CCCCc2n[nH]/c(=N\C(=O)[C@@H]3COc4ccccc4C3)s2)s1)C(C)(C)CO
DOCKED: REMARK SMILES IDX 6 1 7 2 8 3 9 4 32 5 5 7 3 8 4 9 2 10 1 11 33 12 34 13 35 14
DOCKED: REMARK SMILES IDX 36 15 37 16 10 18 11 19 12 20 13 21 14 22 15 23 31 24 16 25
DOCKED: REMARK SMILES IDX 17 26 18 28 19 29 20 30 21 31 22 32 30 33 23 34 29 35 24 36
DOCKED: REMARK SMILES IDX 28 37 25 38 27 39 26 40
DOCKED: REMARK H PARENT 7 6 37 17 16 27
DOCKED: USER                              x       y       z     vdW  Elec       q    Type
DOCKED: USER                           _______ _______ _______ _____ _____    ______ ____
DOCKED: ROOT
DOCKED: ATOM      1  C   UNL     1     137.748  76.568 222.652 -0.21 -0.04    +0.208 A  
DOCKED: ATOM      2  N   UNL     1     138.817  75.830 222.794 -0.14 +0.06    -0.251 N  
DOCKED: ATOM      3  N   UNL     1     139.959  76.436 222.667 -0.29 +0.03    -0.167 NA 
DOCKED: ATOM      4  C   UNL     1     140.202  77.551 222.441 -0.33 -0.03    +0.116 A  
DOCKED: ATOM      5  S   UNL     1     138.427  78.240 222.311 -0.28 +0.01    -0.080 S  
DOCKED: ATOM      6  H   UNL     1     138.764  74.781 223.006 -0.51 -0.09    +0.193 HD 
DOCKED: ENDROOT
DOCKED: BRANCH   1   7
DOCKED: ATOM      7  N   UNL     1     136.477  76.331 222.706 -0.16 +0.04    -0.184 NA 
DOCKED: BRANCH   7   8
DOCKED: ATOM      8  C   UNL     1     136.037  75.001 222.518 -0.12 -0.06    +0.251 C  
DOCKED: ATOM      9  O   UNL     1     136.825  74.201 221.963 -0.09 +0.07    -0.272 OA 
DOCKED: BRANCH   8  10
DOCKED: ATOM     10  C   UNL     1     134.678  74.651 222.991 -0.11 -0.01    +0.086 C  
DOCKED: ATOM     11  C   UNL     1     133.792  75.861 222.732 -0.07 -0.00    +0.019 C  
DOCKED: BRANCH  10  12
DOCKED: ATOM     12  C   UNL     1     134.661  74.306 224.453 -0.28 +0.00    -0.001 C  
DOCKED: ATOM     13  C   UNL     1     133.215  74.412 224.953 -0.19 -0.00    +0.014 C  
DOCKED: ATOM     14  C   UNL     1     135.488  75.238 225.306 -0.29 -0.00    +0.014 C  
DOCKED: BRANCH  12  15
DOCKED: ATOM     15  C   UNL     1     135.059  72.870 224.701 -0.16 -0.02    +0.163 C  
DOCKED: BRANCH  15  16
DOCKED: ATOM     16  O   UNL     1     136.054  72.543 223.756 -0.11 +0.10    -0.396 OA 
DOCKED: ATOM     17  H   UNL     1     136.828  73.167 223.859 -0.51 -0.12    +0.210 HD 
DOCKED: ENDBRANCH  15  16
DOCKED: ENDBRANCH  12  15
DOCKED: ENDBRANCH  10  12
DOCKED: ENDBRANCH   8  10
DOCKED: ENDBRANCH   7   8
DOCKED: ENDBRANCH   1   7
DOCKED: BRANCH   4  18
DOCKED: ATOM     18  C   UNL     1     141.336  78.501 222.245 -0.41 -0.03    +0.070 C  
DOCKED: BRANCH  18  19
DOCKED: ATOM     19  C   UNL     1     141.330  78.890 220.781 -0.32 -0.00    +0.008 C  
DOCKED: BRANCH  19  20
DOCKED: ATOM     20  C   UNL     1     142.194  77.856 220.053 -0.25 -0.01    +0.008 C  
DOCKED: BRANCH  20  21
DOCKED: ATOM     21  C   UNL     1     141.275  77.130 219.105 -0.16 -0.03    +0.070 C  
DOCKED: BRANCH  21  22
DOCKED: ATOM     22  C   UNL     1     140.746  75.932 219.823 -0.12 -0.04    +0.116 A  
DOCKED: ATOM     23  N   UNL     1     139.802  75.314 220.037 -0.06 +0.04    -0.167 NA 
DOCKED: ATOM     24  S   UNL     1     142.026  74.904 220.842 -0.34 +0.03    -0.080 S  
DOCKED: ATOM     25  N   UNL     1     139.597  74.248 220.737 -0.08 +0.05    -0.251 N  
DOCKED: ATOM     26  C   UNL     1     140.641  73.745 221.333 -0.21 -0.03    +0.208 A  
DOCKED: ATOM     27  H   UNL     1     138.627  73.799 220.826 +0.04 -0.04    +0.193 HD 
DOCKED: BRANCH  26  28
DOCKED: ATOM     28  N   UNL     1     140.859  72.723 222.102 -0.37 +0.01    -0.183 NA 
DOCKED: BRANCH  28  29
DOCKED: ATOM     29  C   UNL     1     139.743  72.146 222.821 -0.20 -0.05    +0.255 C  
DOCKED: ATOM     30  O   UNL     1     138.578  72.605 222.708 -0.13 +0.10    -0.272 OA 
DOCKED: BRANCH  29  31
DOCKED: ATOM     31  C   UNL     1     140.072  70.980 223.699 -0.30 -0.02    +0.123 C  
DOCKED: ATOM     32  C   UNL     1     138.876  70.069 223.862 -0.20 -0.04    +0.243 C  
DOCKED: ATOM     33  C   UNL     1     140.674  71.412 224.996 -0.48 -0.01    +0.056 C  
DOCKED: ATOM     34  O   UNL     1     139.292  68.959 224.636 -0.12 +0.07    -0.492 OA 
DOCKED: ATOM     35  C   UNL     1     140.511  70.410 226.077 -0.56 +0.00    -0.005 A  
DOCKED: ATOM     36  C   UNL     1     139.836  69.223 225.886 -0.39 -0.02    +0.122 A  
DOCKED: ATOM     37  C   UNL     1     141.072  70.722 227.305 -0.64 -0.00    +0.007 A  
DOCKED: ATOM     38  C   UNL     1     139.722  68.328 226.948 -0.58 -0.01    +0.047 A  
DOCKED: ATOM     39  C   UNL     1     140.946  69.821 228.341 -0.58 -0.00    +0.001 A  
DOCKED: ATOM     40  C   UNL     1     140.274  68.609 228.196 -0.66 -0.00    +0.004 A  
DOCKED: ENDBRANCH  29  31
DOCKED: ENDBRANCH  28  29
DOCKED: ENDBRANCH  26  28
DOCKED: ENDBRANCH  21  22
DOCKED: ENDBRANCH  20  21
DOCKED: ENDBRANCH  19  20
DOCKED: ENDBRANCH  18  19
DOCKED: ENDBRANCH   4  18
DOCKED: TORSDOF 14
DOCKED: TER
DOCKED: ENDMDL
________________________________________________________________________________


    FINAL DOCKED STATE:
    ________________________


Run:   4 / 20
Time taken for this run:   0.177s

DOCKED: MODEL        4
DOCKED: USER    Run = 4
DOCKED: USER
DOCKED: USER    Estimated Free Energy of Binding    =  -5.27 kcal/mol  [=(1)+(2)+(3)-(4)]
DOCKED: USER
DOCKED: USER    (1) Final Intermolecular Energy     =  -9.45 kcal/mol
DOCKED: USER        vdW + Hbond + desolv Energy     =  -9.33 kcal/mol
DOCKED: USER        Electrostatic Energy            =  -0.12 kcal/mol
DOCKED: USER        Moving Ligand-Fixed Receptor    =  -9.45 kcal/mol
DOCKED: USER        Moving Ligand-Moving Receptor   =  +0.00 kcal/mol
DOCKED: USER    (2) Final Total Internal Energy     =  -5.90 kcal/mol
DOCKED: USER    (3) Torsional Free Energy           =  +4.18 kcal/mol
DOCKED: USER    (4) Unbound System's Energy         =  -5.90 kcal/mol
DOCKED: USER
DOCKED: USER
DOCKED: REMARK SMILES C[C@@H](C(=O)/N=c1\[nH]nc(CCCCc2n[nH]/c(=N\C(=O)[C@@H]3COc4ccccc4C3)s2)s1)C(C)(C)CO
DOCKED: REMARK SMILES IDX 6 1 7 2 8 3 9 4 32 5 5 7 3 8 4 9 2 10 1 11 33 12 34 13 35 14
DOCKED: REMARK SMILES IDX 36 15 37 16 10 18 11 19 12 20 13 21 14 22 15 23 31 24 16 25
DOCKED: REMARK SMILES IDX 17 26 18 28 19 29 20 30 21 31 22 32 30 33 23 34 29 35 24 36
DOCKED: REMARK SMILES IDX 28 37 25 38 27 39 26 40
DOCKED: REMARK H PARENT 7 6 37 17 16 27
DOCKED: USER                              x       y       z     vdW  Elec       q    Type
DOCKED: USER                           _______ _______ _______ _____ _____    ______ ____
DOCKED: ROOT
DOCKED: ATOM      1  C   UNL     1     139.223  75.001 222.320 -0.14 -0.04    +0.208 A  
DOCKED: ATOM      2  N   UNL     1     139.576  73.759 222.526 +0.07 +0.04    -0.251 N  
DOCKED: ATOM      3  N   UNL     1     140.690  73.376 221.977 -0.67 +0.01    -0.167 NA 
DOCKED: ATOM      4  C   UNL     1     141.447  73.960 221.315 -0.22 -0.02    +0.116 A  
DOCKED: ATOM      5  S   UNL     1     140.577  75.659 221.268 -0.36 +0.02    -0.080 S  
DOCKED: ATOM      6  H   UNL     1     138.986  73.088 223.116 -0.45 -0.09    +0.193 HD 
DOCKED: ENDROOT
DOCKED: BRANCH   1   7
DOCKED: ATOM      7  N   UNL     1     138.215  75.723 222.689 -0.20 +0.05    -0.184 NA 
DOCKED: BRANCH   7   8
DOCKED: ATOM      8  C   UNL     1     136.934  75.381 222.201 -0.14 -0.06    +0.251 C  
DOCKED: ATOM      9  O   UNL     1     136.215  76.306 221.756 -0.06 +0.05    -0.272 OA 
DOCKED: BRANCH   8  10
DOCKED: ATOM     10  C   UNL     1     136.535  73.956 222.251 -0.13 -0.02    +0.086 C  
DOCKED: ATOM     11  C   UNL     1     135.833  73.644 220.937 -0.05 -0.00    +0.019 C  
DOCKED: BRANCH  10  12
DOCKED: ATOM     12  C   UNL     1     135.618  73.668 223.405 -0.20 +0.00    -0.001 C  
DOCKED: ATOM     13  C   UNL     1     134.209  73.432 222.847 -0.08 -0.00    +0.014 C  
DOCKED: ATOM     14  C   UNL     1     135.513  74.802 224.395 -0.30 -0.00    +0.014 C  
DOCKED: BRANCH  12  15
DOCKED: ATOM     15  C   UNL     1     135.981  72.382 224.110 -0.10 -0.04    +0.163 C  
DOCKED: BRANCH  15  16
DOCKED: ATOM     16  O   UNL     1     137.231  71.967 223.604 -0.07 +0.13    -0.396 OA 
DOCKED: ATOM     17  H   UNL     1     137.956  72.265 224.223 -0.37 -0.13    +0.210 HD 
DOCKED: ENDBRANCH  15  16
DOCKED: ENDBRANCH  12  15
DOCKED: ENDBRANCH  10  12
DOCKED: ENDBRANCH   8  10
DOCKED: ENDBRANCH   7   8
DOCKED: ENDBRANCH   1   7
DOCKED: BRANCH   4  18
DOCKED: ATOM     18  C   UNL     1     142.736  73.815 220.578 -0.25 -0.02    +0.070 C  
DOCKED: BRANCH  18  19
DOCKED: ATOM     19  C   UNL     1     142.386  73.400 219.164 -0.14 -0.00    +0.008 C  
DOCKED: BRANCH  19  20
DOCKED: ATOM     20  C   UNL     1     141.657  72.057 219.274 -0.09 -0.00    +0.008 C  
DOCKED: BRANCH  20  21
DOCKED: ATOM     21  C   UNL     1     140.268  72.286 218.735 -0.03 -0.01    +0.070 C  
DOCKED: BRANCH  21  22
DOCKED: ATOM     22  C   UNL     1     139.310  71.652 219.689 -0.03 -0.02    +0.116 A  
DOCKED: ATOM     23  N   UNL     1     138.352  71.823 220.299 -0.02 +0.03    -0.167 NA 
DOCKED: ATOM     24  S   UNL     1     139.680  69.825 220.198 -0.11 +0.01    -0.080 S  
DOCKED: ATOM     25  N   UNL     1     137.681  71.063 221.100 -0.02 +0.05    -0.251 N  
DOCKED: ATOM     26  C   UNL     1     138.150  69.860 221.274 -0.05 -0.04    +0.208 A  
DOCKED: ATOM     27  H   UNL     1     136.789  71.397 221.594 +0.03 -0.04    +0.193 HD 
DOCKED: BRANCH  26  28
DOCKED: ATOM     28  N   UNL     1     137.792  68.823 221.969 -0.08 +0.03    -0.183 NA 
DOCKED: BRANCH  28  29
DOCKED: ATOM     29  C   UNL     1     138.546  68.495 223.161 -0.17 -0.04    +0.255 C  
DOCKED: ATOM     30  O   UNL     1     138.940  67.323 223.389 -0.37 +0.03    -0.272 OA 
DOCKED: BRANCH  29  31
DOCKED: ATOM     31  C   UNL     1     138.817  69.635 224.090 -0.26 -0.02    +0.123 C  
DOCKED: ATOM     32  C   UNL     1     139.874  70.557 223.525 -0.18 -0.04    +0.243 C  
DOCKED: ATOM     33  C   UNL     1     139.114  69.166 225.477 -0.41 -0.01    +0.056 C  
DOCKED: ATOM     34  O   UNL     1     140.013  71.642 224.423 -0.19 +0.10    -0.492 OA 
DOCKED: ATOM     35  C   UNL     1     139.900  70.143 226.267 -0.50 +0.00    -0.005 A  
DOCKED: ATOM     36  C   UNL     1     140.330  71.343 225.741 -0.47 -0.02    +0.122 A  
DOCKED: ATOM     37  C   UNL     1     140.189  69.795 227.577 -0.61 -0.00    +0.007 A  
DOCKED: ATOM     38  C   UNL     1     141.065  72.213 226.543 -0.55 -0.01    +0.047 A  
DOCKED: ATOM     39  C   UNL     1     140.918  70.673 228.353 -0.58 -0.00    +0.001 A  
DOCKED: ATOM     40  C   UNL     1     141.373  71.896 227.863 -0.78 -0.00    +0.004 A  
DOCKED: ENDBRANCH  29  31
DOCKED: ENDBRANCH  28  29
DOCKED: ENDBRANCH  26  28
DOCKED: ENDBRANCH  21  22
DOCKED: ENDBRANCH  20  21
DOCKED: ENDBRANCH  19  20
DOCKED: ENDBRANCH  18  19
DOCKED: ENDBRANCH   4  18
DOCKED: TORSDOF 14
DOCKED: TER
DOCKED: ENDMDL
________________________________________________________________________________


    FINAL DOCKED STATE:
    ________________________


Run:   5 / 20
Time taken for this run:   0.177s

DOCKED: MODEL        5
DOCKED: USER    Run = 5
DOCKED: USER
DOCKED: USER    Estimated Free Energy of Binding    =  -5.35 kcal/mol  [=(1)+(2)+(3)-(4)]
DOCKED: USER
DOCKED: USER    (1) Final Intermolecular Energy     =  -9.53 kcal/mol
DOCKED: USER        vdW + Hbond + desolv Energy     =  -9.39 kcal/mol
DOCKED: USER        Electrostatic Energy            =  -0.14 kcal/mol
DOCKED: USER        Moving Ligand-Fixed Receptor    =  -9.53 kcal/mol
DOCKED: USER        Moving Ligand-Moving Receptor   =  +0.00 kcal/mol
DOCKED: USER    (2) Final Total Internal Energy     =  -5.16 kcal/mol
DOCKED: USER    (3) Torsional Free Energy           =  +4.18 kcal/mol
DOCKED: USER    (4) Unbound System's Energy         =  -5.16 kcal/mol
DOCKED: USER
DOCKED: USER
DOCKED: REMARK SMILES C[C@@H](C(=O)/N=c1\[nH]nc(CCCCc2n[nH]/c(=N\C(=O)[C@@H]3COc4ccccc4C3)s2)s1)C(C)(C)CO
DOCKED: REMARK SMILES IDX 6 1 7 2 8 3 9 4 32 5 5 7 3 8 4 9 2 10 1 11 33 12 34 13 35 14
DOCKED: REMARK SMILES IDX 36 15 37 16 10 18 11 19 12 20 13 21 14 22 15 23 31 24 16 25
DOCKED: REMARK SMILES IDX 17 26 18 28 19 29 20 30 21 31 22 32 30 33 23 34 29 35 24 36
DOCKED: REMARK SMILES IDX 28 37 25 38 27 39 26 40
DOCKED: REMARK H PARENT 7 6 37 17 16 27
DOCKED: USER                              x       y       z     vdW  Elec       q    Type
DOCKED: USER                           _______ _______ _______ _____ _____    ______ ____
DOCKED: ROOT
DOCKED: ATOM      1  C   UNL     1     135.309  73.375 223.150 -0.11 -0.04    +0.208 A  
DOCKED: ATOM      2  N   UNL     1     135.860  73.151 224.315 -0.10 +0.06    -0.251 N  
DOCKED: ATOM      3  N   UNL     1     135.056  73.103 225.334 -0.11 +0.01    -0.167 NA 
DOCKED: ATOM      4  C   UNL     1     133.901  73.227 225.393 -0.23 -0.01    +0.116 A  
DOCKED: ATOM      5  S   UNL     1     133.523  73.526 223.546 -0.10 +0.01    -0.080 S  
DOCKED: ATOM      6  H   UNL     1     136.915  73.013 224.431 -0.54 -0.12    +0.193 HD 
DOCKED: ENDROOT
DOCKED: BRANCH   1   7
DOCKED: ATOM      7  N   UNL     1     135.767  73.488 221.945 -0.05 +0.04    -0.184 NA 
DOCKED: BRANCH   7   8
DOCKED: ATOM      8  C   UNL     1     136.913  74.290 221.739 -0.09 -0.06    +0.251 C  
DOCKED: ATOM      9  O   UNL     1     137.344  74.950 222.714 -0.11 +0.10    -0.272 OA 
DOCKED: BRANCH   8  10
DOCKED: ATOM     10  C   UNL     1     137.519  74.291 220.388 -0.06 -0.02    +0.086 C  
DOCKED: ATOM     11  C   UNL     1     136.707  73.327 219.536 -0.02 -0.00    +0.019 C  
DOCKED: BRANCH  10  12
DOCKED: ATOM     12  C   UNL     1     138.959  73.863 220.417 -0.11 +0.00    -0.001 C  
DOCKED: ATOM     13  C   UNL     1     139.599  74.252 219.079 -0.04 -0.00    +0.014 C  
DOCKED: ATOM     14  C   UNL     1     139.148  72.374 220.576 -0.10 -0.00    +0.014 C  
DOCKED: BRANCH  12  15
DOCKED: ATOM     15  C   UNL     1     139.752  74.611 221.463 -0.22 -0.03    +0.163 C  
DOCKED: BRANCH  15  16
DOCKED: ATOM     16  O   UNL     1     139.914  73.742 222.564 -0.71 +0.01    -0.396 OA 
DOCKED: ATOM     17  H   UNL     1     139.048  73.666 223.057 -0.50 -0.10    +0.210 HD 
DOCKED: ENDBRANCH  15  16
DOCKED: ENDBRANCH  12  15
DOCKED: ENDBRANCH  10  12
DOCKED: ENDBRANCH   8  10
DOCKED: ENDBRANCH   7   8
DOCKED: ENDBRANCH   1   7
DOCKED: BRANCH   4  18
DOCKED: ATOM     18  C   UNL     1     132.755  73.226 226.349 -0.31 -0.00    +0.070 C  
DOCKED: BRANCH  18  19
DOCKED: ATOM     19  C   UNL     1     132.495  71.780 226.717 -0.36 -0.00    +0.008 C  
DOCKED: BRANCH  19  20
DOCKED: ATOM     20  C   UNL     1     131.072  71.462 226.248 -0.23 -0.00    +0.008 C  
DOCKED: BRANCH  20  21
DOCKED: ATOM     21  C   UNL     1     130.875  69.984 226.470 -0.16 -0.01    +0.070 C  
DOCKED: BRANCH  21  22
DOCKED: ATOM     22  C   UNL     1     132.136  69.299 226.058 -0.13 -0.01    +0.116 A  
DOCKED: ATOM     23  N   UNL     1     132.978  68.603 226.414 -0.59 -0.02    -0.167 NA 
DOCKED: ATOM     24  S   UNL     1     132.723  69.592 224.240 -0.10 +0.01    -0.080 S  
DOCKED: ATOM     25  N   UNL     1     134.024  68.128 225.822 -0.20 +0.02    -0.251 N  
DOCKED: ATOM     26  C   UNL     1     134.191  68.484 224.581 -0.14 -0.01    +0.208 A  
DOCKED: ATOM     27  H   UNL     1     134.718  67.477 226.321 +0.08 -0.03    +0.193 HD 
DOCKED: BRANCH  26  28
DOCKED: ATOM     28  N   UNL     1     135.077  68.239 223.663 -0.56 -0.00    -0.183 NA 
DOCKED: BRANCH  28  29
DOCKED: ATOM     29  C   UNL     1     135.680  69.356 222.967 -0.07 -0.03    +0.255 C  
DOCKED: ATOM     30  O   UNL     1     135.387  69.625 221.774 -0.02 +0.04    -0.272 OA 
DOCKED: BRANCH  29  31
DOCKED: ATOM     31  C   UNL     1     136.665  70.157 223.758 -0.17 -0.02    +0.123 C  
DOCKED: ATOM     32  C   UNL     1     137.600  70.921 222.847 -0.11 -0.05    +0.243 C  
DOCKED: ATOM     33  C   UNL     1     137.374  69.321 224.774 -0.27 -0.00    +0.056 C  
DOCKED: ATOM     34  O   UNL     1     138.443  71.706 223.670 -0.02 +0.17    -0.492 OA 
DOCKED: ATOM     35  C   UNL     1     138.684  69.883 225.180 -0.35 +0.00    -0.005 A  
DOCKED: ATOM     36  C   UNL     1     139.190  71.044 224.634 -0.32 -0.03    +0.122 A  
DOCKED: ATOM     37  C   UNL     1     139.389  69.183 226.146 -0.48 -0.00    +0.007 A  
DOCKED: ATOM     38  C   UNL     1     140.429  71.513 225.064 -0.49 -0.01    +0.047 A  
DOCKED: ATOM     39  C   UNL     1     140.614  69.667 226.556 -0.55 -0.00    +0.001 A  
DOCKED: ATOM     40  C   UNL     1     141.165  70.835 226.032 -0.61 -0.00    +0.004 A  
DOCKED: ENDBRANCH  29  31
DOCKED: ENDBRANCH  28  29
DOCKED: ENDBRANCH  26  28
DOCKED: ENDBRANCH  21  22
DOCKED: ENDBRANCH  20  21
DOCKED: ENDBRANCH  19  20
DOCKED: ENDBRANCH  18  19
DOCKED: ENDBRANCH   4  18
DOCKED: TORSDOF 14
DOCKED: TER
DOCKED: ENDMDL
________________________________________________________________________________


    FINAL DOCKED STATE:
    ________________________


Run:   6 / 20
Time taken for this run:   0.177s

DOCKED: MODEL        6
DOCKED: USER    Run = 6
DOCKED: USER
DOCKED: USER    Estimated Free Energy of Binding    =  -6.87 kcal/mol  [=(1)+(2)+(3)-(4)]
DOCKED: USER
DOCKED: USER    (1) Final Intermolecular Energy     = -11.05 kcal/mol
DOCKED: USER        vdW + Hbond + desolv Energy     = -10.96 kcal/mol
DOCKED: USER        Electrostatic Energy            =  -0.09 kcal/mol
DOCKED: USER        Moving Ligand-Fixed Receptor    = -11.05 kcal/mol
DOCKED: USER        Moving Ligand-Moving Receptor   =  +0.00 kcal/mol
DOCKED: USER    (2) Final Total Internal Energy     =  -5.28 kcal/mol
DOCKED: USER    (3) Torsional Free Energy           =  +4.18 kcal/mol
DOCKED: USER    (4) Unbound System's Energy         =  -5.28 kcal/mol
DOCKED: USER
DOCKED: USER
DOCKED: REMARK SMILES C[C@@H](C(=O)/N=c1\[nH]nc(CCCCc2n[nH]/c(=N\C(=O)[C@@H]3COc4ccccc4C3)s2)s1)C(C)(C)CO
DOCKED: REMARK SMILES IDX 6 1 7 2 8 3 9 4 32 5 5 7 3 8 4 9 2 10 1 11 33 12 34 13 35 14
DOCKED: REMARK SMILES IDX 36 15 37 16 10 18 11 19 12 20 13 21 14 22 15 23 31 24 16 25
DOCKED: REMARK SMILES IDX 17 26 18 28 19 29 20 30 21 31 22 32 30 33 23 34 29 35 24 36
DOCKED: REMARK SMILES IDX 28 37 25 38 27 39 26 40
DOCKED: REMARK H PARENT 7 6 37 17 16 27
DOCKED: USER                              x       y       z     vdW  Elec       q    Type
DOCKED: USER                           _______ _______ _______ _____ _____    ______ ____
DOCKED: ROOT
DOCKED: ATOM      1  C   UNL     1     137.915  76.963 222.724 -0.21 -0.04    +0.208 A  
DOCKED: ATOM      2  N   UNL     1     139.010  76.260 222.853 -0.12 +0.05    -0.251 N  
DOCKED: ATOM      3  N   UNL     1     140.120  76.855 222.532 -0.28 +0.04    -0.167 NA 
DOCKED: ATOM      4  C   UNL     1     140.314  77.932 222.139 -0.30 -0.03    +0.116 A  
DOCKED: ATOM      5  S   UNL     1     138.520  78.581 222.101 -0.25 +0.02    -0.080 S  
DOCKED: ATOM      6  H   UNL     1     139.002  75.249 223.205 -0.46 -0.06    +0.193 HD 
DOCKED: ENDROOT
DOCKED: BRANCH   1   7
DOCKED: ATOM      7  N   UNL     1     136.662  76.724 222.938 -0.17 +0.03    -0.184 NA 
DOCKED: BRANCH   7   8
DOCKED: ATOM      8  C   UNL     1     136.257  75.379 223.100 -0.16 -0.07    +0.251 C  
DOCKED: ATOM      9  O   UNL     1     137.037  74.485 222.698 -0.09 +0.10    -0.272 OA 
DOCKED: BRANCH   8  10
DOCKED: ATOM     10  C   UNL     1     134.942  75.127 223.732 -0.21 -0.01    +0.086 C  
DOCKED: ATOM     11  C   UNL     1     135.049  75.587 225.179 -0.36 -0.00    +0.019 C  
DOCKED: BRANCH  10  12
DOCKED: ATOM     12  C   UNL     1     134.562  73.675 223.681 -0.17 +0.00    -0.001 C  
DOCKED: ATOM     13  C   UNL     1     134.837  73.159 222.263 -0.07 -0.00    +0.014 C  
DOCKED: ATOM     14  C   UNL     1     133.101  73.419 223.964 -0.09 -0.00    +0.014 C  
DOCKED: BRANCH  12  15
DOCKED: ATOM     15  C   UNL     1     135.431  72.829 224.582 -0.13 -0.02    +0.163 C  
DOCKED: BRANCH  15  16
DOCKED: ATOM     16  O   UNL     1     136.443  72.265 223.777 -0.11 +0.11    -0.396 OA 
DOCKED: ATOM     17  H   UNL     1     137.067  72.986 223.474 -0.50 -0.11    +0.210 HD 
DOCKED: ENDBRANCH  15  16
DOCKED: ENDBRANCH  12  15
DOCKED: ENDBRANCH  10  12
DOCKED: ENDBRANCH   8  10
DOCKED: ENDBRANCH   7   8
DOCKED: ENDBRANCH   1   7
DOCKED: BRANCH   4  18
DOCKED: ATOM     18  C   UNL     1     141.401  78.858 221.706 -0.37 -0.03    +0.070 C  
DOCKED: BRANCH  18  19
DOCKED: ATOM     19  C   UNL     1     141.459  78.787 220.194 -0.29 -0.00    +0.008 C  
DOCKED: BRANCH  19  20
DOCKED: ATOM     20  C   UNL     1     142.173  77.477 219.848 -0.31 -0.01    +0.008 C  
DOCKED: BRANCH  20  21
DOCKED: ATOM     21  C   UNL     1     141.215  76.688 218.993 -0.13 -0.03    +0.070 C  
DOCKED: BRANCH  21  22
DOCKED: ATOM     22  C   UNL     1     140.573  75.664 219.870 -0.11 -0.03    +0.116 A  
DOCKED: ATOM     23  N   UNL     1     139.585  75.129 220.110 -0.05 +0.04    -0.167 NA 
DOCKED: ATOM     24  S   UNL     1     141.716  74.801 221.167 -0.30 +0.02    -0.080 S  
DOCKED: ATOM     25  N   UNL     1     139.273  74.219 220.973 -0.09 +0.05    -0.251 N  
DOCKED: ATOM     26  C   UNL     1     140.241  73.802 221.739 -0.21 -0.02    +0.208 A  
DOCKED: ATOM     27  H   UNL     1     138.277  73.828 221.059 +0.04 -0.04    +0.193 HD 
DOCKED: BRANCH  26  28
DOCKED: ATOM     28  N   UNL     1     140.346  72.934 222.698 -0.63 +0.01    -0.183 NA 
DOCKED: BRANCH  28  29
DOCKED: ATOM     29  C   UNL     1     139.374  71.864 222.775 -0.20 -0.06    +0.255 C  
DOCKED: ATOM     30  O   UNL     1     138.297  71.904 222.129 -0.10 +0.06    -0.272 OA 
DOCKED: BRANCH  29  31
DOCKED: ATOM     31  C   UNL     1     139.738  70.722 223.670 -0.29 -0.02    +0.123 C  
DOCKED: ATOM     32  C   UNL     1     138.532  69.858 223.967 -0.20 -0.04    +0.243 C  
DOCKED: ATOM     33  C   UNL     1     140.458  71.182 224.896 -0.48 -0.01    +0.056 C  
DOCKED: ATOM     34  O   UNL     1     138.976  68.766 224.750 -0.18 +0.05    -0.492 OA 
DOCKED: ATOM     35  C   UNL     1     140.353  70.228 226.026 -0.53 +0.00    -0.005 A  
DOCKED: ATOM     36  C   UNL     1     139.629  69.058 225.940 -0.40 -0.02    +0.122 A  
DOCKED: ATOM     37  C   UNL     1     141.023  70.568 227.191 -0.62 -0.00    +0.007 A  
DOCKED: ATOM     38  C   UNL     1     139.575  68.209 227.043 -0.57 -0.01    +0.047 A  
DOCKED: ATOM     39  C   UNL     1     140.955  69.711 228.270 -0.59 -0.00    +0.001 A  
DOCKED: ATOM     40  C   UNL     1     140.236  68.518 228.229 -0.65 -0.00    +0.004 A  
DOCKED: ENDBRANCH  29  31
DOCKED: ENDBRANCH  28  29
DOCKED: ENDBRANCH  26  28
DOCKED: ENDBRANCH  21  22
DOCKED: ENDBRANCH  20  21
DOCKED: ENDBRANCH  19  20
DOCKED: ENDBRANCH  18  19
DOCKED: ENDBRANCH   4  18
DOCKED: TORSDOF 14
DOCKED: TER
DOCKED: ENDMDL
________________________________________________________________________________


    FINAL DOCKED STATE:
    ________________________


Run:   7 / 20
Time taken for this run:   0.177s

DOCKED: MODEL        7
DOCKED: USER    Run = 7
DOCKED: USER
DOCKED: USER    Estimated Free Energy of Binding    =  -7.42 kcal/mol  [=(1)+(2)+(3)-(4)]
DOCKED: USER
DOCKED: USER    (1) Final Intermolecular Energy     = -11.60 kcal/mol
DOCKED: USER        vdW + Hbond + desolv Energy     = -11.54 kcal/mol
DOCKED: USER        Electrostatic Energy            =  -0.05 kcal/mol
DOCKED: USER        Moving Ligand-Fixed Receptor    = -11.60 kcal/mol
DOCKED: USER        Moving Ligand-Moving Receptor   =  +0.00 kcal/mol
DOCKED: USER    (2) Final Total Internal Energy     =  -4.32 kcal/mol
DOCKED: USER    (3) Torsional Free Energy           =  +4.18 kcal/mol
DOCKED: USER    (4) Unbound System's Energy         =  -4.32 kcal/mol
DOCKED: USER
DOCKED: USER
DOCKED: REMARK SMILES C[C@@H](C(=O)/N=c1\[nH]nc(CCCCc2n[nH]/c(=N\C(=O)[C@@H]3COc4ccccc4C3)s2)s1)C(C)(C)CO
DOCKED: REMARK SMILES IDX 6 1 7 2 8 3 9 4 32 5 5 7 3 8 4 9 2 10 1 11 33 12 34 13 35 14
DOCKED: REMARK SMILES IDX 36 15 37 16 10 18 11 19 12 20 13 21 14 22 15 23 31 24 16 25
DOCKED: REMARK SMILES IDX 17 26 18 28 19 29 20 30 21 31 22 32 30 33 23 34 29 35 24 36
DOCKED: REMARK SMILES IDX 28 37 25 38 27 39 26 40
DOCKED: REMARK H PARENT 7 6 37 17 16 27
DOCKED: USER                              x       y       z     vdW  Elec       q    Type
DOCKED: USER                           _______ _______ _______ _____ _____    ______ ____
DOCKED: ROOT
DOCKED: ATOM      1  C   UNL     1     142.186  78.108 219.310 -0.20 -0.14    +0.208 A  
DOCKED: ATOM      2  N   UNL     1     142.851  77.148 219.897 -0.18 +0.20    -0.251 N  
DOCKED: ATOM      3  N   UNL     1     143.419  76.277 219.117 -0.28 +0.11    -0.167 NA 
DOCKED: ATOM      4  C   UNL     1     143.438  76.200 217.957 -0.22 -0.07    +0.116 A  
DOCKED: ATOM      5  S   UNL     1     142.388  77.735 217.523 -0.30 +0.06    -0.080 S  
DOCKED: ATOM      6  H   UNL     1     142.930  77.077 220.963 -0.39 -0.22    +0.193 HD 
DOCKED: ENDROOT
DOCKED: BRANCH   1   7
DOCKED: ATOM      7  N   UNL     1     141.510  79.126 219.735 -0.17 +0.10    -0.184 NA 
DOCKED: BRANCH   7   8
DOCKED: ATOM      8  C   UNL     1     141.259  79.227 221.123 -0.21 -0.11    +0.251 C  
DOCKED: ATOM      9  O   UNL     1     142.245  79.208 221.895 -0.32 +0.15    -0.272 OA 
DOCKED: BRANCH   8  10
DOCKED: ATOM     10  C   UNL     1     139.849  79.348 221.560 -0.19 -0.02    +0.086 C  
DOCKED: ATOM     11  C   UNL     1     139.854  80.132 222.864 -0.37 -0.00    +0.019 C  
DOCKED: BRANCH  10  12
DOCKED: ATOM     12  C   UNL     1     139.208  78.006 221.770 -0.24 +0.00    -0.001 C  
DOCKED: ATOM     13  C   UNL     1     139.189  77.271 220.424 -0.11 -0.00    +0.014 C  
DOCKED: ATOM     14  C   UNL     1     137.777  78.084 222.246 -0.21 -0.00    +0.014 C  
DOCKED: BRANCH  12  15
DOCKED: ATOM     15  C   UNL     1     140.022  77.125 222.688 -0.17 -0.04    +0.163 C  
DOCKED: BRANCH  15  16
DOCKED: ATOM     16  O   UNL     1     141.052  76.553 221.910 -0.23 +0.15    -0.396 OA 
DOCKED: ATOM     17  H   UNL     1     141.892  77.082 222.030 -0.45 -0.16    +0.210 HD 
DOCKED: ENDBRANCH  15  16
DOCKED: ENDBRANCH  12  15
DOCKED: ENDBRANCH  10  12
DOCKED: ENDBRANCH   8  10
DOCKED: ENDBRANCH   7   8
DOCKED: ENDBRANCH   1   7
DOCKED: BRANCH   4  18
DOCKED: ATOM     18  C   UNL     1     143.966  75.375 216.832 -0.16 -0.03    +0.070 C  
DOCKED: BRANCH  18  19
DOCKED: ATOM     19  C   UNL     1     143.610  73.936 217.143 -0.11 -0.00    +0.008 C  
DOCKED: BRANCH  19  20
DOCKED: ATOM     20  C   UNL     1     144.831  73.328 217.841 -0.19 +0.00    +0.008 C  
DOCKED: BRANCH  20  21
DOCKED: ATOM     21  C   UNL     1     144.297  72.287 218.791 -0.18 +0.00    +0.070 C  
DOCKED: BRANCH  21  22
DOCKED: ATOM     22  C   UNL     1     143.408  72.986 219.766 -0.20 -0.02    +0.116 A  
DOCKED: ATOM     23  N   UNL     1     143.253  73.960 220.354 -0.23 +0.05    -0.167 NA 
DOCKED: ATOM     24  S   UNL     1     141.862  72.003 220.381 -0.21 +0.01    -0.080 S  
DOCKED: ATOM     25  N   UNL     1     142.342  74.340 221.187 -0.09 +0.06    -0.251 N  
DOCKED: ATOM     26  C   UNL     1     141.397  73.478 221.434 -0.17 -0.02    +0.208 A  
DOCKED: ATOM     27  H   UNL     1     142.357  75.308 221.651 -0.41 -0.10    +0.193 HD 
DOCKED: BRANCH  26  28
DOCKED: ATOM     28  N   UNL     1     140.335  73.464 222.181 -0.74 +0.01    -0.183 NA 
DOCKED: BRANCH  28  29
DOCKED: ATOM     29  C   UNL     1     139.546  72.251 222.241 -0.19 -0.05    +0.255 C  
DOCKED: ATOM     30  O   UNL     1     138.558  72.070 221.485 -0.07 +0.06    -0.272 OA 
DOCKED: BRANCH  29  31
DOCKED: ATOM     31  C   UNL     1     139.985  71.243 223.255 -0.29 -0.02    +0.123 C  
DOCKED: ATOM     32  C   UNL     1     138.870  70.273 223.574 -0.19 -0.04    +0.243 C  
DOCKED: ATOM     33  C   UNL     1     140.577  71.890 224.465 -0.24 -0.01    +0.056 C  
DOCKED: ATOM     34  O   UNL     1     139.389  69.314 224.476 -0.08 +0.08    -0.492 OA 
DOCKED: ATOM     35  C   UNL     1     140.516  71.034 225.673 -0.58 +0.00    -0.005 A  
DOCKED: ATOM     36  C   UNL     1     139.935  69.783 225.663 -0.38 -0.02    +0.122 A  
DOCKED: ATOM     37  C   UNL     1     141.076  71.551 226.831 -0.74 -0.00    +0.007 A  
DOCKED: ATOM     38  C   UNL     1     139.914  69.034 226.837 -0.54 -0.01    +0.047 A  
DOCKED: ATOM     39  C   UNL     1     141.043  70.790 227.981 -0.69 -0.00    +0.001 A  
DOCKED: ATOM     40  C   UNL     1     140.466  69.522 228.018 -0.63 -0.00    +0.004 A  
DOCKED: ENDBRANCH  29  31
DOCKED: ENDBRANCH  28  29
DOCKED: ENDBRANCH  26  28
DOCKED: ENDBRANCH  21  22
DOCKED: ENDBRANCH  20  21
DOCKED: ENDBRANCH  19  20
DOCKED: ENDBRANCH  18  19
DOCKED: ENDBRANCH   4  18
DOCKED: TORSDOF 14
DOCKED: TER
DOCKED: ENDMDL
________________________________________________________________________________


    FINAL DOCKED STATE:
    ________________________


Run:   8 / 20
Time taken for this run:   0.177s

DOCKED: MODEL        8
DOCKED: USER    Run = 8
DOCKED: USER
DOCKED: USER    Estimated Free Energy of Binding    =  -4.99 kcal/mol  [=(1)+(2)+(3)-(4)]
DOCKED: USER
DOCKED: USER    (1) Final Intermolecular Energy     =  -9.17 kcal/mol
DOCKED: USER        vdW + Hbond + desolv Energy     =  -9.07 kcal/mol
DOCKED: USER        Electrostatic Energy            =  -0.09 kcal/mol
DOCKED: USER        Moving Ligand-Fixed Receptor    =  -9.17 kcal/mol
DOCKED: USER        Moving Ligand-Moving Receptor   =  +0.00 kcal/mol
DOCKED: USER    (2) Final Total Internal Energy     =  -6.86 kcal/mol
DOCKED: USER    (3) Torsional Free Energy           =  +4.18 kcal/mol
DOCKED: USER    (4) Unbound System's Energy         =  -6.86 kcal/mol
DOCKED: USER
DOCKED: USER
DOCKED: REMARK SMILES C[C@@H](C(=O)/N=c1\[nH]nc(CCCCc2n[nH]/c(=N\C(=O)[C@@H]3COc4ccccc4C3)s2)s1)C(C)(C)CO
DOCKED: REMARK SMILES IDX 6 1 7 2 8 3 9 4 32 5 5 7 3 8 4 9 2 10 1 11 33 12 34 13 35 14
DOCKED: REMARK SMILES IDX 36 15 37 16 10 18 11 19 12 20 13 21 14 22 15 23 31 24 16 25
DOCKED: REMARK SMILES IDX 17 26 18 28 19 29 20 30 21 31 22 32 30 33 23 34 29 35 24 36
DOCKED: REMARK SMILES IDX 28 37 25 38 27 39 26 40
DOCKED: REMARK H PARENT 7 6 37 17 16 27
DOCKED: USER                              x       y       z     vdW  Elec       q    Type
DOCKED: USER                           _______ _______ _______ _____ _____    ______ ____
DOCKED: ROOT
DOCKED: ATOM      1  C   UNL     1     143.687  75.449 219.074 -0.22 -0.11    +0.208 A  
DOCKED: ATOM      2  N   UNL     1     143.724  75.044 220.316 -0.23 +0.13    -0.251 N  
DOCKED: ATOM      3  N   UNL     1     144.242  73.872 220.527 -0.32 +0.05    -0.167 NA 
DOCKED: ATOM      4  C   UNL     1     144.691  73.098 219.784 -0.33 -0.01    +0.116 A  
DOCKED: ATOM      5  S   UNL     1     144.446  74.055 218.150 -0.15 +0.02    -0.080 S  
DOCKED: ATOM      6  H   UNL     1     143.349  75.641 221.123 -0.27 -0.18    +0.193 HD 
DOCKED: ENDROOT
DOCKED: BRANCH   1   7
DOCKED: ATOM      7  N   UNL     1     143.262  76.521 218.488 -0.24 +0.12    -0.184 NA 
DOCKED: BRANCH   7   8
DOCKED: ATOM      8  C   UNL     1     142.302  77.312 219.161 -0.20 -0.16    +0.251 C  
DOCKED: ATOM      9  O   UNL     1     141.781  76.839 220.197 -0.18 +0.15    -0.272 OA 
DOCKED: BRANCH   8  10
DOCKED: ATOM     10  C   UNL     1     141.982  78.641 218.590 -0.25 -0.06    +0.086 C  
DOCKED: ATOM     11  C   UNL     1     141.793  79.594 219.761 -0.29 -0.01    +0.019 C  
DOCKED: BRANCH  10  12
DOCKED: ATOM     12  C   UNL     1     140.739  78.608 217.748 -0.10 +0.00    -0.001 C  
DOCKED: ATOM     13  C   UNL     1     140.966  77.618 216.599 -0.07 -0.01    +0.014 C  
DOCKED: ATOM     14  C   UNL     1     140.395  79.937 217.120 -0.07 -0.01    +0.014 C  
DOCKED: BRANCH  12  15
DOCKED: ATOM     15  C   UNL     1     139.553  78.061 218.509 -0.02 -0.05    +0.163 C  
DOCKED: BRANCH  15  16
DOCKED: ATOM     16  O   UNL     1     139.641  76.653 218.462 +0.01 +0.12    -0.396 OA 
DOCKED: ATOM     17  H   UNL     1     139.863  76.303 219.371 +0.05 -0.06    +0.210 HD 
DOCKED: ENDBRANCH  15  16
DOCKED: ENDBRANCH  12  15
DOCKED: ENDBRANCH  10  12
DOCKED: ENDBRANCH   8  10
DOCKED: ENDBRANCH   7   8
DOCKED: ENDBRANCH   1   7
DOCKED: BRANCH   4  18
DOCKED: ATOM     18  C   UNL     1     145.326  71.750 219.714 -0.29 +0.02    +0.070 C  
DOCKED: BRANCH  18  19
DOCKED: ATOM     19  C   UNL     1     144.422  70.885 218.861 -0.21 +0.00    +0.008 C  
DOCKED: BRANCH  19  20
DOCKED: ATOM     20  C   UNL     1     143.323  70.358 219.789 -0.19 -0.00    +0.008 C  
DOCKED: BRANCH  20  21
DOCKED: ATOM     21  C   UNL     1     142.014  70.649 219.101 -0.08 -0.01    +0.070 C  
DOCKED: BRANCH  21  22
DOCKED: ATOM     22  C   UNL     1     141.573  72.008 219.534 -0.08 -0.02    +0.116 A  
DOCKED: ATOM     23  N   UNL     1     141.386  73.085 219.180 -0.04 +0.03    -0.167 NA 
DOCKED: ATOM     24  S   UNL     1     141.091  72.205 221.395 -0.29 +0.01    -0.080 S  
DOCKED: ATOM     25  N   UNL     1     140.977  74.145 219.794 -0.05 +0.06    -0.251 N  
DOCKED: ATOM     26  C   UNL     1     140.716  74.008 221.063 -0.19 -0.03    +0.208 A  
DOCKED: ATOM     27  H   UNL     1     140.857  75.087 219.293 +0.05 -0.06    +0.193 HD 
DOCKED: BRANCH  26  28
DOCKED: ATOM     28  N   UNL     1     140.300  74.794 222.008 -0.72 +0.01    -0.183 NA 
DOCKED: BRANCH  28  29
DOCKED: ATOM     29  C   UNL     1     139.411  75.884 221.663 -0.20 -0.06    +0.255 C  
DOCKED: ATOM     30  O   UNL     1     138.565  75.777 220.739 -0.06 +0.06    -0.272 OA 
DOCKED: BRANCH  29  31
DOCKED: ATOM     31  C   UNL     1     139.573  77.132 222.472 -0.25 -0.03    +0.123 C  
DOCKED: ATOM     32  C   UNL     1     138.794  78.277 221.865 -0.14 -0.05    +0.243 C  
DOCKED: ATOM     33  C   UNL     1     141.010  77.453 222.720 -0.38 -0.02    +0.056 C  
DOCKED: ATOM     34  O   UNL     1     138.936  79.390 222.728 -0.07 +0.08    -0.492 OA 
DOCKED: ATOM     35  C   UNL     1     141.245  78.888 223.010 -0.53 +0.00    -0.005 A  
DOCKED: ATOM     36  C   UNL     1     140.227  79.817 223.010 -0.34 -0.02    +0.122 A  
DOCKED: ATOM     37  C   UNL     1     142.551  79.261 223.284 -0.55 -0.00    +0.007 A  
DOCKED: ATOM     38  C   UNL     1     140.522  81.149 223.291 -0.37 -0.01    +0.047 A  
DOCKED: ATOM     39  C   UNL     1     142.819  80.586 223.560 -0.68 -0.00    +0.001 A  
DOCKED: ATOM     40  C   UNL     1     141.823  81.560 223.571 -0.54 -0.00    +0.004 A  
DOCKED: ENDBRANCH  29  31
DOCKED: ENDBRANCH  28  29
DOCKED: ENDBRANCH  26  28
DOCKED: ENDBRANCH  21  22
DOCKED: ENDBRANCH  20  21
DOCKED: ENDBRANCH  19  20
DOCKED: ENDBRANCH  18  19
DOCKED: ENDBRANCH   4  18
DOCKED: TORSDOF 14
DOCKED: TER
DOCKED: ENDMDL
________________________________________________________________________________


    FINAL DOCKED STATE:
    ________________________


Run:   9 / 20
Time taken for this run:   0.177s

DOCKED: MODEL        9
DOCKED: USER    Run = 9
DOCKED: USER
DOCKED: USER    Estimated Free Energy of Binding    =  -4.90 kcal/mol  [=(1)+(2)+(3)-(4)]
DOCKED: USER
DOCKED: USER    (1) Final Intermolecular Energy     =  -9.08 kcal/mol
DOCKED: USER        vdW + Hbond + desolv Energy     =  -8.98 kcal/mol
DOCKED: USER        Electrostatic Energy            =  -0.10 kcal/mol
DOCKED: USER        Moving Ligand-Fixed Receptor    =  -9.08 kcal/mol
DOCKED: USER        Moving Ligand-Moving Receptor   =  +0.00 kcal/mol
DOCKED: USER    (2) Final Total Internal Energy     =  -6.95 kcal/mol
DOCKED: USER    (3) Torsional Free Energy           =  +4.18 kcal/mol
DOCKED: USER    (4) Unbound System's Energy         =  -6.95 kcal/mol
DOCKED: USER
DOCKED: USER
DOCKED: REMARK SMILES C[C@@H](C(=O)/N=c1\[nH]nc(CCCCc2n[nH]/c(=N\C(=O)[C@@H]3COc4ccccc4C3)s2)s1)C(C)(C)CO
DOCKED: REMARK SMILES IDX 6 1 7 2 8 3 9 4 32 5 5 7 3 8 4 9 2 10 1 11 33 12 34 13 35 14
DOCKED: REMARK SMILES IDX 36 15 37 16 10 18 11 19 12 20 13 21 14 22 15 23 31 24 16 25
DOCKED: REMARK SMILES IDX 17 26 18 28 19 29 20 30 21 31 22 32 30 33 23 34 29 35 24 36
DOCKED: REMARK SMILES IDX 28 37 25 38 27 39 26 40
DOCKED: REMARK H PARENT 7 6 37 17 16 27
DOCKED: USER                              x       y       z     vdW  Elec       q    Type
DOCKED: USER                           _______ _______ _______ _____ _____    ______ ____
DOCKED: ROOT
DOCKED: ATOM      1  C   UNL     1     143.617  75.450 219.131 -0.23 -0.11    +0.208 A  
DOCKED: ATOM      2  N   UNL     1     143.572  74.993 220.355 -0.23 +0.13    -0.251 N  
DOCKED: ATOM      3  N   UNL     1     144.091  73.819 220.553 -0.30 +0.05    -0.167 NA 
DOCKED: ATOM      4  C   UNL     1     144.602  73.083 219.812 -0.32 -0.01    +0.116 A  
DOCKED: ATOM      5  S   UNL     1     144.459  74.106 218.206 -0.13 +0.02    -0.080 S  
DOCKED: ATOM      6  H   UNL     1     143.133  75.551 221.158 -0.32 -0.16    +0.193 HD 
DOCKED: ENDROOT
DOCKED: BRANCH   1   7
DOCKED: ATOM      7  N   UNL     1     143.218  76.542 218.563 -0.24 +0.11    -0.184 NA 
DOCKED: BRANCH   7   8
DOCKED: ATOM      8  C   UNL     1     142.117  77.225 219.129 -0.19 -0.15    +0.251 C  
DOCKED: ATOM      9  O   UNL     1     141.533  76.686 220.097 -0.15 +0.13    -0.272 OA 
DOCKED: BRANCH   8  10
DOCKED: ATOM     10  C   UNL     1     141.736  78.528 218.536 -0.22 -0.05    +0.086 C  
DOCKED: ATOM     11  C   UNL     1     141.810  79.562 219.650 -0.29 -0.01    +0.019 C  
DOCKED: BRANCH  10  12
DOCKED: ATOM     12  C   UNL     1     140.352  78.497 217.953 -0.07 +0.00    -0.001 C  
DOCKED: ATOM     13  C   UNL     1     140.297  79.508 216.801 -0.06 -0.01    +0.014 C  
DOCKED: ATOM     14  C   UNL     1     139.272  78.890 218.932 -0.05 -0.00    +0.014 C  
DOCKED: BRANCH  12  15
DOCKED: ATOM     15  C   UNL     1     140.032  77.163 217.320 -0.02 -0.06    +0.163 C  
DOCKED: BRANCH  15  16
DOCKED: ATOM     16  O   UNL     1     139.373  76.386 218.296 +0.01 +0.11    -0.396 OA 
DOCKED: ATOM     17  H   UNL     1     139.773  76.569 219.193 +0.04 -0.06    +0.210 HD 
DOCKED: ENDBRANCH  15  16
DOCKED: ENDBRANCH  12  15
DOCKED: ENDBRANCH  10  12
DOCKED: ENDBRANCH   8  10
DOCKED: ENDBRANCH   7   8
DOCKED: ENDBRANCH   1   7
DOCKED: BRANCH   4  18
DOCKED: ATOM     18  C   UNL     1     145.260  71.746 219.731 -0.28 +0.02    +0.070 C  
DOCKED: BRANCH  18  19
DOCKED: ATOM     19  C   UNL     1     144.344  70.857 218.917 -0.21 +0.00    +0.008 C  
DOCKED: BRANCH  19  20
DOCKED: ATOM     20  C   UNL     1     143.282  70.326 219.885 -0.16 -0.00    +0.008 C  
DOCKED: BRANCH  20  21
DOCKED: ATOM     21  C   UNL     1     141.951  70.545 219.212 -0.09 -0.01    +0.070 C  
DOCKED: BRANCH  21  22
DOCKED: ATOM     22  C   UNL     1     141.450  71.885 219.640 -0.08 -0.02    +0.116 A  
DOCKED: ATOM     23  N   UNL     1     141.174  72.939 219.273 -0.03 +0.03    -0.167 NA 
DOCKED: ATOM     24  S   UNL     1     141.062  72.100 221.521 -0.29 +0.01    -0.080 S  
DOCKED: ATOM     25  N   UNL     1     140.734  73.987 219.886 -0.05 +0.06    -0.251 N  
DOCKED: ATOM     26  C   UNL     1     140.554  73.867 221.170 -0.19 -0.03    +0.208 A  
DOCKED: ATOM     27  H   UNL     1     140.527  74.906 219.371 +0.05 -0.05    +0.193 HD 
DOCKED: BRANCH  26  28
DOCKED: ATOM     28  N   UNL     1     140.143  74.650 222.120 -0.73 +0.01    -0.183 NA 
DOCKED: BRANCH  28  29
DOCKED: ATOM     29  C   UNL     1     139.373  75.824 221.766 -0.21 -0.05    +0.255 C  
DOCKED: ATOM     30  O   UNL     1     138.568  75.817 220.801 -0.06 +0.06    -0.272 OA 
DOCKED: BRANCH  29  31
DOCKED: ATOM     31  C   UNL     1     139.602  77.031 222.620 -0.19 -0.02    +0.123 C  
DOCKED: ATOM     32  C   UNL     1     138.713  78.176 222.191 -0.16 -0.05    +0.243 C  
DOCKED: ATOM     33  C   UNL     1     141.050  77.394 222.693 -0.38 -0.02    +0.056 C  
DOCKED: ATOM     34  O   UNL     1     138.936  79.245 223.093 -0.10 +0.08    -0.492 OA 
DOCKED: ATOM     35  C   UNL     1     141.276  78.819 223.034 -0.53 +0.00    -0.005 A  
DOCKED: ATOM     36  C   UNL     1     140.238  79.706 223.225 -0.36 -0.02    +0.122 A  
DOCKED: ATOM     37  C   UNL     1     142.595  79.228 223.154 -0.54 -0.00    +0.007 A  
DOCKED: ATOM     38  C   UNL     1     140.527  81.031 223.543 -0.37 -0.01    +0.047 A  
DOCKED: ATOM     39  C   UNL     1     142.856  80.545 223.469 -0.68 -0.00    +0.001 A  
DOCKED: ATOM     40  C   UNL     1     141.840  81.477 223.671 -0.56 -0.00    +0.004 A  
DOCKED: ENDBRANCH  29  31
DOCKED: ENDBRANCH  28  29
DOCKED: ENDBRANCH  26  28
DOCKED: ENDBRANCH  21  22
DOCKED: ENDBRANCH  20  21
DOCKED: ENDBRANCH  19  20
DOCKED: ENDBRANCH  18  19
DOCKED: ENDBRANCH   4  18
DOCKED: TORSDOF 14
DOCKED: TER
DOCKED: ENDMDL
________________________________________________________________________________


    FINAL DOCKED STATE:
    ________________________


Run:   10 / 20
Time taken for this run:   0.177s

DOCKED: MODEL        10
DOCKED: USER    Run = 10
DOCKED: USER
DOCKED: USER    Estimated Free Energy of Binding    =  -3.84 kcal/mol  [=(1)+(2)+(3)-(4)]
DOCKED: USER
DOCKED: USER    (1) Final Intermolecular Energy     =  -8.01 kcal/mol
DOCKED: USER        vdW + Hbond + desolv Energy     =  -8.13 kcal/mol
DOCKED: USER        Electrostatic Energy            =  +0.12 kcal/mol
DOCKED: USER        Moving Ligand-Fixed Receptor    =  -8.01 kcal/mol
DOCKED: USER        Moving Ligand-Moving Receptor   =  +0.00 kcal/mol
DOCKED: USER    (2) Final Total Internal Energy     =  -7.18 kcal/mol
DOCKED: USER    (3) Torsional Free Energy           =  +4.18 kcal/mol
DOCKED: USER    (4) Unbound System's Energy         =  -7.18 kcal/mol
DOCKED: USER
DOCKED: USER
DOCKED: REMARK SMILES C[C@@H](C(=O)/N=c1\[nH]nc(CCCCc2n[nH]/c(=N\C(=O)[C@@H]3COc4ccccc4C3)s2)s1)C(C)(C)CO
DOCKED: REMARK SMILES IDX 6 1 7 2 8 3 9 4 32 5 5 7 3 8 4 9 2 10 1 11 33 12 34 13 35 14
DOCKED: REMARK SMILES IDX 36 15 37 16 10 18 11 19 12 20 13 21 14 22 15 23 31 24 16 25
DOCKED: REMARK SMILES IDX 17 26 18 28 19 29 20 30 21 31 22 32 30 33 23 34 29 35 24 36
DOCKED: REMARK SMILES IDX 28 37 25 38 27 39 26 40
DOCKED: REMARK H PARENT 7 6 37 17 16 27
DOCKED: USER                              x       y       z     vdW  Elec       q    Type
DOCKED: USER                           _______ _______ _______ _____ _____    ______ ____
DOCKED: ROOT
DOCKED: ATOM      1  C   UNL     1     142.461  76.385 218.268 -0.17 -0.11    +0.208 A  
DOCKED: ATOM      2  N   UNL     1     142.754  76.637 219.517 -0.23 +0.16    -0.251 N  
DOCKED: ATOM      3  N   UNL     1     143.562  75.803 220.100 -0.27 +0.11    -0.167 NA 
DOCKED: ATOM      4  C   UNL     1     144.083  74.846 219.695 -0.33 -0.05    +0.116 A  
DOCKED: ATOM      5  S   UNL     1     143.406  74.853 217.910 -0.22 +0.03    -0.080 S  
DOCKED: ATOM      6  H   UNL     1     142.354  77.483 220.039 -0.01 -0.14    +0.193 HD 
DOCKED: ENDROOT
DOCKED: BRANCH   1   7
DOCKED: ATOM      7  N   UNL     1     141.718  76.968 217.383 -0.07 +0.09    -0.184 NA 
DOCKED: BRANCH   7   8
DOCKED: ATOM      8  C   UNL     1     140.827  77.975 217.818 -0.05 -0.11    +0.251 C  
DOCKED: ATOM      9  O   UNL     1     140.205  77.779 218.888 -0.03 +0.10    -0.272 OA 
DOCKED: BRANCH   8  10
DOCKED: ATOM     10  C   UNL     1     140.694  79.187 216.978 -0.07 -0.04    +0.086 C  
DOCKED: ATOM     11  C   UNL     1     141.185  78.819 215.586 -0.08 -0.01    +0.019 C  
DOCKED: BRANCH  10  12
DOCKED: ATOM     12  C   UNL     1     141.495  80.337 217.518 -0.20 +0.00    -0.001 C  
DOCKED: ATOM     13  C   UNL     1     140.611  81.115 218.501 -0.13 -0.01    +0.014 C  
DOCKED: ATOM     14  C   UNL     1     141.940  81.318 216.460 -0.18 -0.01    +0.014 C  
DOCKED: BRANCH  12  15
DOCKED: ATOM     15  C   UNL     1     142.676  79.871 218.336 -0.19 -0.15    +0.163 C  
DOCKED: BRANCH  15  16
DOCKED: ATOM     16  O   UNL     1     142.217  79.670 219.656 -0.15 +0.26    -0.396 OA 
DOCKED: ATOM     17  H   UNL     1     141.903  78.727 219.759 +0.05 -0.13    +0.210 HD 
DOCKED: ENDBRANCH  15  16
DOCKED: ENDBRANCH  12  15
DOCKED: ENDBRANCH  10  12
DOCKED: ENDBRANCH   8  10
DOCKED: ENDBRANCH   7   8
DOCKED: ENDBRANCH   1   7
DOCKED: BRANCH   4  18
DOCKED: ATOM     18  C   UNL     1     145.009  73.743 220.086 -0.47 -0.01    +0.070 C  
DOCKED: BRANCH  18  19
DOCKED: ATOM     19  C   UNL     1     144.283  72.444 219.805 -0.32 -0.00    +0.008 C  
DOCKED: BRANCH  19  20
DOCKED: ATOM     20  C   UNL     1     143.231  72.286 220.907 -0.23 -0.00    +0.008 C  
DOCKED: BRANCH  20  21
DOCKED: ATOM     21  C   UNL     1     141.969  71.826 220.223 -0.16 -0.01    +0.070 C  
DOCKED: BRANCH  21  22
DOCKED: ATOM     22  C   UNL     1     141.119  73.032 219.995 -0.10 -0.02    +0.116 A  
DOCKED: ATOM     23  N   UNL     1     140.943  73.930 219.301 -0.04 +0.04    -0.167 NA 
DOCKED: ATOM     24  S   UNL     1     139.715  73.353 221.282 -0.25 +0.01    -0.080 S  
DOCKED: ATOM     25  N   UNL     1     140.082  74.894 219.325 -0.02 +0.06    -0.251 N  
DOCKED: ATOM     26  C   UNL     1     139.233  74.879 220.312 -0.07 -0.05    +0.208 A  
DOCKED: ATOM     27  H   UNL     1     140.064  75.664 218.577 +0.03 -0.05    +0.193 HD 
DOCKED: BRANCH  26  28
DOCKED: ATOM     28  N   UNL     1     138.246  75.633 220.690 -0.06 +0.04    -0.183 NA 
DOCKED: BRANCH  28  29
DOCKED: ATOM     29  C   UNL     1     138.430  76.488 221.845 -0.17 -0.05    +0.255 C  
DOCKED: ATOM     30  O   UNL     1     137.722  76.364 222.876 -0.23 +0.06    -0.272 OA 
DOCKED: BRANCH  29  31
DOCKED: ATOM     31  C   UNL     1     139.510  77.517 221.722 -0.22 -0.03    +0.123 C  
DOCKED: ATOM     32  C   UNL     1     140.877  76.890 221.878 -0.25 -0.09    +0.243 C  
DOCKED: ATOM     33  C   UNL     1     139.278  78.678 222.633 -0.30 -0.01    +0.056 C  
DOCKED: ATOM     34  O   UNL     1     141.836  77.911 221.673 -0.06 +0.32    -0.492 OA 
DOCKED: ATOM     35  C   UNL     1     140.520  79.419 222.960 -0.43 +0.00    -0.005 A  
DOCKED: ATOM     36  C   UNL     1     141.756  79.034 222.485 -0.43 -0.05    +0.122 A  
DOCKED: ATOM     37  C   UNL     1     140.384  80.532 223.775 -0.42 -0.00    +0.007 A  
DOCKED: ATOM     38  C   UNL     1     142.880  79.778 222.834 -0.58 -0.02    +0.047 A  
DOCKED: ATOM     39  C   UNL     1     141.512  81.254 224.107 -0.39 -0.00    +0.001 A  
DOCKED: ATOM     40  C   UNL     1     142.781  80.902 223.651 -0.65 -0.00    +0.004 A  
DOCKED: ENDBRANCH  29  31
DOCKED: ENDBRANCH  28  29
DOCKED: ENDBRANCH  26  28
DOCKED: ENDBRANCH  21  22
DOCKED: ENDBRANCH  20  21
DOCKED: ENDBRANCH  19  20
DOCKED: ENDBRANCH  18  19
DOCKED: ENDBRANCH   4  18
DOCKED: TORSDOF 14
DOCKED: TER
DOCKED: ENDMDL
________________________________________________________________________________


    FINAL DOCKED STATE:
    ________________________


Run:   11 / 20
Time taken for this run:   0.177s

DOCKED: MODEL        11
DOCKED: USER    Run = 11
DOCKED: USER
DOCKED: USER    Estimated Free Energy of Binding    =  -6.15 kcal/mol  [=(1)+(2)+(3)-(4)]
DOCKED: USER
DOCKED: USER    (1) Final Intermolecular Energy     = -10.33 kcal/mol
DOCKED: USER        vdW + Hbond + desolv Energy     = -10.15 kcal/mol
DOCKED: USER        Electrostatic Energy            =  -0.18 kcal/mol
DOCKED: USER        Moving Ligand-Fixed Receptor    = -10.33 kcal/mol
DOCKED: USER        Moving Ligand-Moving Receptor   =  +0.00 kcal/mol
DOCKED: USER    (2) Final Total Internal Energy     =  -5.41 kcal/mol
DOCKED: USER    (3) Torsional Free Energy           =  +4.18 kcal/mol
DOCKED: USER    (4) Unbound System's Energy         =  -5.41 kcal/mol
DOCKED: USER
DOCKED: USER
DOCKED: REMARK SMILES C[C@@H](C(=O)/N=c1\[nH]nc(CCCCc2n[nH]/c(=N\C(=O)[C@@H]3COc4ccccc4C3)s2)s1)C(C)(C)CO
DOCKED: REMARK SMILES IDX 6 1 7 2 8 3 9 4 32 5 5 7 3 8 4 9 2 10 1 11 33 12 34 13 35 14
DOCKED: REMARK SMILES IDX 36 15 37 16 10 18 11 19 12 20 13 21 14 22 15 23 31 24 16 25
DOCKED: REMARK SMILES IDX 17 26 18 28 19 29 20 30 21 31 22 32 30 33 23 34 29 35 24 36
DOCKED: REMARK SMILES IDX 28 37 25 38 27 39 26 40
DOCKED: REMARK H PARENT 7 6 37 17 16 27
DOCKED: USER                              x       y       z     vdW  Elec       q    Type
DOCKED: USER                           _______ _______ _______ _____ _____    ______ ____
DOCKED: ROOT
DOCKED: ATOM      1  C   UNL     1     139.749  76.380 222.416 -0.25 -0.04    +0.208 A  
DOCKED: ATOM      2  N   UNL     1     140.998  76.724 222.594 -0.26 +0.09    -0.251 N  
DOCKED: ATOM      3  N   UNL     1     141.215  77.965 222.911 -0.36 +0.06    -0.167 NA 
DOCKED: ATOM      4  C   UNL     1     140.473  78.847 223.069 -0.38 -0.03    +0.116 A  
DOCKED: ATOM      5  S   UNL     1     138.830  77.940 222.724 -0.34 +0.01    -0.080 S  
DOCKED: ATOM      6  H   UNL     1     141.804  76.027 222.486 -0.48 -0.10    +0.193 HD 
DOCKED: ENDROOT
DOCKED: BRANCH   1   7
DOCKED: ATOM      7  N   UNL     1     139.157  75.273 222.103 -0.36 +0.04    -0.184 NA 
DOCKED: BRANCH   7   8
DOCKED: ATOM      8  C   UNL     1     139.957  74.173 221.718 -0.18 -0.03    +0.251 C  
DOCKED: ATOM      9  O   UNL     1     141.028  73.987 222.341 -0.52 -0.03    -0.272 OA 
DOCKED: BRANCH   8  10
DOCKED: ATOM     10  C   UNL     1     139.472  73.324 220.606 -0.11 -0.02    +0.086 C  
DOCKED: ATOM     11  C   UNL     1     137.953  73.292 220.702 -0.09 -0.00    +0.019 C  
DOCKED: BRANCH  10  12
DOCKED: ATOM     12  C   UNL     1     140.021  71.928 220.684 -0.13 +0.00    -0.001 C  
DOCKED: ATOM     13  C   UNL     1     139.178  71.031 219.768 -0.05 -0.00    +0.014 C  
DOCKED: ATOM     14  C   UNL     1     139.956  71.325 222.066 -0.24 -0.00    +0.014 C  
DOCKED: BRANCH  12  15
DOCKED: ATOM     15  C   UNL     1     141.426  71.840 220.135 -0.10 -0.02    +0.163 C  
DOCKED: BRANCH  15  16
DOCKED: ATOM     16  O   UNL     1     142.310  72.035 221.217 -0.11 +0.04    -0.396 OA 
DOCKED: ATOM     17  H   UNL     1     142.336  73.006 221.454 +0.09 -0.02    +0.210 HD 
DOCKED: ENDBRANCH  15  16
DOCKED: ENDBRANCH  12  15
DOCKED: ENDBRANCH  10  12
DOCKED: ENDBRANCH   8  10
DOCKED: ENDBRANCH   7   8
DOCKED: ENDBRANCH   1   7
DOCKED: BRANCH   4  18
DOCKED: ATOM     18  C   UNL     1     140.411  80.297 223.416 -0.43 -0.01    +0.070 C  
DOCKED: BRANCH  18  19
DOCKED: ATOM     19  C   UNL     1     141.830  80.738 223.706 -0.60 -0.00    +0.008 C  
DOCKED: BRANCH  19  20
DOCKED: ATOM     20  C   UNL     1     142.604  80.601 222.391 -0.55 -0.00    +0.008 C  
DOCKED: BRANCH  20  21
DOCKED: ATOM     21  C   UNL     1     141.720  81.183 221.318 -0.35 -0.02    +0.070 C  
DOCKED: BRANCH  21  22
DOCKED: ATOM     22  C   UNL     1     141.990  80.428 220.059 -0.24 -0.06    +0.116 A  
DOCKED: ATOM     23  N   UNL     1     142.575  80.442 219.070 -0.20 +0.11    -0.167 NA 
DOCKED: ATOM     24  S   UNL     1     141.072  78.740 219.852 -0.26 +0.04    -0.080 S  
DOCKED: ATOM     25  N   UNL     1     142.640  79.610 218.084 -0.22 +0.24    -0.251 N  
DOCKED: ATOM     26  C   UNL     1     141.914  78.534 218.194 -0.18 -0.14    +0.208 A  
DOCKED: ATOM     27  H   UNL     1     143.254  79.791 217.222 -0.50 -0.35    +0.193 HD 
DOCKED: BRANCH  26  28
DOCKED: ATOM     28  N   UNL     1     141.700  77.488 217.456 -0.09 +0.10    -0.183 NA 
DOCKED: BRANCH  28  29
DOCKED: ATOM     29  C   UNL     1     140.917  76.401 218.005 -0.03 -0.09    +0.255 C  
DOCKED: ATOM     30  O   UNL     1     139.680  76.313 217.805 -0.01 +0.08    -0.272 OA 
DOCKED: BRANCH  29  31
DOCKED: ATOM     31  C   UNL     1     141.678  75.403 218.819 -0.11 -0.04    +0.123 C  
DOCKED: ATOM     32  C   UNL     1     142.189  76.024 220.100 -0.20 -0.12    +0.243 C  
DOCKED: ATOM     33  C   UNL     1     142.743  74.726 218.019 -0.13 -0.02    +0.056 C  
DOCKED: ATOM     34  O   UNL     1     142.826  75.001 220.842 -0.08 +0.23    -0.492 OA 
DOCKED: ATOM     35  C   UNL     1     143.838  74.175 218.853 -0.24 +0.00    -0.005 A  
DOCKED: ATOM     36  C   UNL     1     143.864  74.316 220.224 -0.34 -0.04    +0.122 A  
DOCKED: ATOM     37  C   UNL     1     144.849  73.501 218.186 -0.20 -0.00    +0.007 A  
DOCKED: ATOM     38  C   UNL     1     144.925  73.772 220.944 -0.49 -0.01    +0.047 A  
DOCKED: ATOM     39  C   UNL     1     145.889  72.970 218.920 -0.23 +0.00    +0.001 A  
DOCKED: ATOM     40  C   UNL     1     145.958  73.089 220.306 -0.59 +0.00    +0.004 A  
DOCKED: ENDBRANCH  29  31
DOCKED: ENDBRANCH  28  29
DOCKED: ENDBRANCH  26  28
DOCKED: ENDBRANCH  21  22
DOCKED: ENDBRANCH  20  21
DOCKED: ENDBRANCH  19  20
DOCKED: ENDBRANCH  18  19
DOCKED: ENDBRANCH   4  18
DOCKED: TORSDOF 14
DOCKED: TER
DOCKED: ENDMDL
________________________________________________________________________________


    FINAL DOCKED STATE:
    ________________________


Run:   12 / 20
Time taken for this run:   0.177s

DOCKED: MODEL        12
DOCKED: USER    Run = 12
DOCKED: USER
DOCKED: USER    Estimated Free Energy of Binding    =  -4.83 kcal/mol  [=(1)+(2)+(3)-(4)]
DOCKED: USER
DOCKED: USER    (1) Final Intermolecular Energy     =  -9.00 kcal/mol
DOCKED: USER        vdW + Hbond + desolv Energy     =  -8.91 kcal/mol
DOCKED: USER        Electrostatic Energy            =  -0.09 kcal/mol
DOCKED: USER        Moving Ligand-Fixed Receptor    =  -9.00 kcal/mol
DOCKED: USER        Moving Ligand-Moving Receptor   =  +0.00 kcal/mol
DOCKED: USER    (2) Final Total Internal Energy     =  -7.05 kcal/mol
DOCKED: USER    (3) Torsional Free Energy           =  +4.18 kcal/mol
DOCKED: USER    (4) Unbound System's Energy         =  -7.05 kcal/mol
DOCKED: USER
DOCKED: USER
DOCKED: REMARK SMILES C[C@@H](C(=O)/N=c1\[nH]nc(CCCCc2n[nH]/c(=N\C(=O)[C@@H]3COc4ccccc4C3)s2)s1)C(C)(C)CO
DOCKED: REMARK SMILES IDX 6 1 7 2 8 3 9 4 32 5 5 7 3 8 4 9 2 10 1 11 33 12 34 13 35 14
DOCKED: REMARK SMILES IDX 36 15 37 16 10 18 11 19 12 20 13 21 14 22 15 23 31 24 16 25
DOCKED: REMARK SMILES IDX 17 26 18 28 19 29 20 30 21 31 22 32 30 33 23 34 29 35 24 36
DOCKED: REMARK SMILES IDX 28 37 25 38 27 39 26 40
DOCKED: REMARK H PARENT 7 6 37 17 16 27
DOCKED: USER                              x       y       z     vdW  Elec       q    Type
DOCKED: USER                           _______ _______ _______ _____ _____    ______ ____
DOCKED: ROOT
DOCKED: ATOM      1  C   UNL     1     143.590  75.361 219.216 -0.24 -0.11    +0.208 A  
DOCKED: ATOM      2  N   UNL     1     143.473  74.857 220.416 -0.24 +0.12    -0.251 N  
DOCKED: ATOM      3  N   UNL     1     143.961  73.666 220.592 -0.28 +0.04    -0.167 NA 
DOCKED: ATOM      4  C   UNL     1     144.497  72.950 219.848 -0.31 -0.01    +0.116 A  
DOCKED: ATOM      5  S   UNL     1     144.455  74.039 218.281 -0.16 +0.02    -0.080 S  
DOCKED: ATOM      6  H   UNL     1     143.003  75.391 221.217 -0.35 -0.14    +0.193 HD 
DOCKED: ENDROOT
DOCKED: BRANCH   1   7
DOCKED: ATOM      7  N   UNL     1     143.240  76.482 218.672 -0.25 +0.11    -0.184 NA 
DOCKED: BRANCH   7   8
DOCKED: ATOM      8  C   UNL     1     142.141  77.178 219.226 -0.20 -0.15    +0.251 C  
DOCKED: ATOM      9  O   UNL     1     141.529  76.637 220.177 -0.15 +0.13    -0.272 OA 
DOCKED: BRANCH   8  10
DOCKED: ATOM     10  C   UNL     1     141.793  78.494 218.643 -0.23 -0.05    +0.086 C  
DOCKED: ATOM     11  C   UNL     1     141.810  79.503 219.781 -0.29 -0.01    +0.019 C  
DOCKED: BRANCH  10  12
DOCKED: ATOM     12  C   UNL     1     140.441  78.480 217.988 -0.08 +0.00    -0.001 C  
DOCKED: ATOM     13  C   UNL     1     140.502  79.380 216.748 -0.07 -0.01    +0.014 C  
DOCKED: ATOM     14  C   UNL     1     139.336  79.018 218.865 -0.05 -0.00    +0.014 C  
DOCKED: BRANCH  12  15
DOCKED: ATOM     15  C   UNL     1     140.080  77.111 217.462 -0.02 -0.06    +0.163 C  
DOCKED: BRANCH  15  16
DOCKED: ATOM     16  O   UNL     1     139.254  76.497 218.429 +0.01 +0.11    -0.396 OA 
DOCKED: ATOM     17  H   UNL     1     139.660  76.614 219.334 +0.04 -0.06    +0.210 HD 
DOCKED: ENDBRANCH  15  16
DOCKED: ENDBRANCH  12  15
DOCKED: ENDBRANCH  10  12
DOCKED: ENDBRANCH   8  10
DOCKED: ENDBRANCH   7   8
DOCKED: ENDBRANCH   1   7
DOCKED: BRANCH   4  18
DOCKED: ATOM     18  C   UNL     1     145.135  71.605 219.747 -0.25 +0.01    +0.070 C  
DOCKED: BRANCH  18  19
DOCKED: ATOM     19  C   UNL     1     144.020  70.585 219.853 -0.23 +0.00    +0.008 C  
DOCKED: BRANCH  19  20
DOCKED: ATOM     20  C   UNL     1     143.099  70.822 218.653 -0.10 -0.00    +0.008 C  
DOCKED: BRANCH  20  21
DOCKED: ATOM     21  C   UNL     1     141.690  70.660 219.164 -0.08 -0.01    +0.070 C  
DOCKED: BRANCH  21  22
DOCKED: ATOM     22  C   UNL     1     141.219  72.004 219.612 -0.07 -0.02    +0.116 A  
DOCKED: ATOM     23  N   UNL     1     140.929  73.057 219.256 -0.03 +0.03    -0.167 NA 
DOCKED: ATOM     24  S   UNL     1     140.936  72.229 221.510 -0.30 +0.01    -0.080 S  
DOCKED: ATOM     25  N   UNL     1     140.527  74.111 219.887 -0.04 +0.06    -0.251 N  
DOCKED: ATOM     26  C   UNL     1     140.418  73.997 221.180 -0.19 -0.03    +0.208 A  
DOCKED: ATOM     27  H   UNL     1     140.297  75.028 219.380 +0.04 -0.05    +0.193 HD 
DOCKED: BRANCH  26  28
DOCKED: ATOM     28  N   UNL     1     140.063  74.787 222.147 -0.71 +0.01    -0.183 NA 
DOCKED: BRANCH  28  29
DOCKED: ATOM     29  C   UNL     1     139.265  75.953 221.832 -0.21 -0.06    +0.255 C  
DOCKED: ATOM     30  O   UNL     1     138.400  75.933 220.920 -0.06 +0.06    -0.272 OA 
DOCKED: BRANCH  29  31
DOCKED: ATOM     31  C   UNL     1     139.543  77.169 222.657 -0.18 -0.02    +0.123 C  
DOCKED: ATOM     32  C   UNL     1     138.726  78.348 222.180 -0.16 -0.05    +0.243 C  
DOCKED: ATOM     33  C   UNL     1     141.006  77.457 222.751 -0.37 -0.02    +0.056 C  
DOCKED: ATOM     34  O   UNL     1     138.988  79.428 223.057 -0.10 +0.08    -0.492 OA 
DOCKED: ATOM     35  C   UNL     1     141.303  78.876 223.058 -0.54 +0.00    -0.005 A  
DOCKED: ATOM     36  C   UNL     1     140.311  79.823 223.204 -0.36 -0.02    +0.122 A  
DOCKED: ATOM     37  C   UNL     1     142.640  79.217 223.194 -0.50 -0.00    +0.007 A  
DOCKED: ATOM     38  C   UNL     1     140.664  81.139 223.492 -0.38 -0.01    +0.047 A  
DOCKED: ATOM     39  C   UNL     1     142.965  80.527 223.480 -0.69 -0.00    +0.001 A  
DOCKED: ATOM     40  C   UNL     1     141.997  81.517 223.636 -0.56 -0.00    +0.004 A  
DOCKED: ENDBRANCH  29  31
DOCKED: ENDBRANCH  28  29
DOCKED: ENDBRANCH  26  28
DOCKED: ENDBRANCH  21  22
DOCKED: ENDBRANCH  20  21
DOCKED: ENDBRANCH  19  20
DOCKED: ENDBRANCH  18  19
DOCKED: ENDBRANCH   4  18
DOCKED: TORSDOF 14
DOCKED: TER
DOCKED: ENDMDL
________________________________________________________________________________


    FINAL DOCKED STATE:
    ________________________


Run:   13 / 20
Time taken for this run:   0.177s

DOCKED: MODEL        13
DOCKED: USER    Run = 13
DOCKED: USER
DOCKED: USER    Estimated Free Energy of Binding    =  -6.35 kcal/mol  [=(1)+(2)+(3)-(4)]
DOCKED: USER
DOCKED: USER    (1) Final Intermolecular Energy     = -10.53 kcal/mol
DOCKED: USER        vdW + Hbond + desolv Energy     = -10.46 kcal/mol
DOCKED: USER        Electrostatic Energy            =  -0.06 kcal/mol
DOCKED: USER        Moving Ligand-Fixed Receptor    = -10.53 kcal/mol
DOCKED: USER        Moving Ligand-Moving Receptor   =  +0.00 kcal/mol
DOCKED: USER    (2) Final Total Internal Energy     =  -6.07 kcal/mol
DOCKED: USER    (3) Torsional Free Energy           =  +4.18 kcal/mol
DOCKED: USER    (4) Unbound System's Energy         =  -6.07 kcal/mol
DOCKED: USER
DOCKED: USER
DOCKED: REMARK SMILES C[C@@H](C(=O)/N=c1\[nH]nc(CCCCc2n[nH]/c(=N\C(=O)[C@@H]3COc4ccccc4C3)s2)s1)C(C)(C)CO
DOCKED: REMARK SMILES IDX 6 1 7 2 8 3 9 4 32 5 5 7 3 8 4 9 2 10 1 11 33 12 34 13 35 14
DOCKED: REMARK SMILES IDX 36 15 37 16 10 18 11 19 12 20 13 21 14 22 15 23 31 24 16 25
DOCKED: REMARK SMILES IDX 17 26 18 28 19 29 20 30 21 31 22 32 30 33 23 34 29 35 24 36
DOCKED: REMARK SMILES IDX 28 37 25 38 27 39 26 40
DOCKED: REMARK H PARENT 7 6 37 17 16 27
DOCKED: USER                              x       y       z     vdW  Elec       q    Type
DOCKED: USER                           _______ _______ _______ _____ _____    ______ ____
DOCKED: ROOT
DOCKED: ATOM      1  C   UNL     1     137.474  76.488 222.719 -0.21 -0.04    +0.208 A  
DOCKED: ATOM      2  N   UNL     1     138.604  75.833 222.789 -0.14 +0.06    -0.251 N  
DOCKED: ATOM      3  N   UNL     1     139.689  76.544 222.719 -0.26 +0.03    -0.167 NA 
DOCKED: ATOM      4  C   UNL     1     139.835  77.692 222.601 -0.28 -0.03    +0.116 A  
DOCKED: ATOM      5  S   UNL     1     138.007  78.237 222.541 -0.27 +0.01    -0.080 S  
DOCKED: ATOM      6  H   UNL     1     138.641  74.769 222.899 -0.50 -0.09    +0.193 HD 
DOCKED: ENDROOT
DOCKED: BRANCH   1   7
DOCKED: ATOM      7  N   UNL     1     136.229  76.140 222.753 -0.15 +0.04    -0.184 NA 
DOCKED: BRANCH   7   8
DOCKED: ATOM      8  C   UNL     1     135.895  74.817 222.384 -0.10 -0.06    +0.251 C  
DOCKED: ATOM      9  O   UNL     1     136.783  74.126 221.831 -0.08 +0.07    -0.272 OA 
DOCKED: BRANCH   8  10
DOCKED: ATOM     10  C   UNL     1     134.523  74.345 222.678 -0.08 -0.01    +0.086 C  
DOCKED: ATOM     11  C   UNL     1     133.672  75.581 222.929 -0.07 -0.00    +0.019 C  
DOCKED: BRANCH  10  12
DOCKED: ATOM     12  C   UNL     1     134.483  73.441 223.877 -0.18 +0.00    -0.001 C  
DOCKED: ATOM     13  C   UNL     1     133.032  72.989 224.086 -0.09 -0.00    +0.014 C  
DOCKED: ATOM     14  C   UNL     1     134.922  74.110 225.157 -0.25 -0.00    +0.014 C  
DOCKED: BRANCH  12  15
DOCKED: ATOM     15  C   UNL     1     135.263  72.166 223.652 -0.13 -0.03    +0.163 C  
DOCKED: BRANCH  15  16
DOCKED: ATOM     16  O   UNL     1     136.545  72.358 224.211 -0.05 +0.12    -0.396 OA 
DOCKED: ATOM     17  H   UNL     1     137.039  73.046 223.681 -0.52 -0.12    +0.210 HD 
DOCKED: ENDBRANCH  15  16
DOCKED: ENDBRANCH  12  15
DOCKED: ENDBRANCH  10  12
DOCKED: ENDBRANCH   8  10
DOCKED: ENDBRANCH   7   8
DOCKED: ENDBRANCH   1   7
DOCKED: BRANCH   4  18
DOCKED: ATOM     18  C   UNL     1     140.882  78.749 222.496 -0.41 -0.02    +0.070 C  
DOCKED: BRANCH  18  19
DOCKED: ATOM     19  C   UNL     1     141.850  78.300 221.421 -0.30 -0.00    +0.008 C  
DOCKED: BRANCH  19  20
DOCKED: ATOM     20  C   UNL     1     141.156  78.552 220.079 -0.25 -0.00    +0.008 C  
DOCKED: BRANCH  20  21
DOCKED: ATOM     21  C   UNL     1     141.473  77.362 219.210 -0.20 -0.03    +0.070 C  
DOCKED: BRANCH  21  22
DOCKED: ATOM     22  C   UNL     1     140.921  76.153 219.890 -0.14 -0.04    +0.116 A  
DOCKED: ATOM     23  N   UNL     1     139.960  75.562 220.107 -0.06 +0.04    -0.167 NA 
DOCKED: ATOM     24  S   UNL     1     142.192  75.029 220.814 -0.30 +0.03    -0.080 S  
DOCKED: ATOM     25  N   UNL     1     139.737  74.472 220.764 -0.09 +0.05    -0.251 N  
DOCKED: ATOM     26  C   UNL     1     140.779  73.902 221.298 -0.21 -0.03    +0.208 A  
DOCKED: ATOM     27  H   UNL     1     138.752  74.057 220.866 +0.04 -0.04    +0.193 HD 
DOCKED: BRANCH  26  28
DOCKED: ATOM     28  N   UNL     1     140.982  72.836 222.010 -0.37 +0.01    -0.183 NA 
DOCKED: BRANCH  28  29
DOCKED: ATOM     29  C   UNL     1     139.855  72.234 222.693 -0.22 -0.04    +0.255 C  
DOCKED: ATOM     30  O   UNL     1     138.681  72.647 222.518 -0.15 +0.09    -0.272 OA 
DOCKED: BRANCH  29  31
DOCKED: ATOM     31  C   UNL     1     140.186  71.100 223.611 -0.30 -0.02    +0.123 C  
DOCKED: ATOM     32  C   UNL     1     139.023  70.142 223.731 -0.20 -0.04    +0.243 C  
DOCKED: ATOM     33  C   UNL     1     140.700  71.582 224.929 -0.43 -0.01    +0.056 C  
DOCKED: ATOM     34  O   UNL     1     139.443  69.066 224.550 -0.09 +0.08    -0.492 OA 
DOCKED: ATOM     35  C   UNL     1     140.522  70.595 226.020 -0.57 +0.00    -0.005 A  
DOCKED: ATOM     36  C   UNL     1     139.909  69.376 225.820 -0.39 -0.02    +0.122 A  
DOCKED: ATOM     37  C   UNL     1     141.005  70.955 227.269 -0.68 -0.00    +0.007 A  
DOCKED: ATOM     38  C   UNL     1     139.776  68.498 226.894 -0.57 -0.01    +0.047 A  
DOCKED: ATOM     39  C   UNL     1     140.862  70.069 228.317 -0.57 -0.00    +0.001 A  
DOCKED: ATOM     40  C   UNL     1     140.249  68.827 228.162 -0.65 -0.00    +0.004 A  
DOCKED: ENDBRANCH  29  31
DOCKED: ENDBRANCH  28  29
DOCKED: ENDBRANCH  26  28
DOCKED: ENDBRANCH  21  22
DOCKED: ENDBRANCH  20  21
DOCKED: ENDBRANCH  19  20
DOCKED: ENDBRANCH  18  19
DOCKED: ENDBRANCH   4  18
DOCKED: TORSDOF 14
DOCKED: TER
DOCKED: ENDMDL
________________________________________________________________________________


    FINAL DOCKED STATE:
    ________________________


Run:   14 / 20
Time taken for this run:   0.177s

DOCKED: MODEL        14
DOCKED: USER    Run = 14
DOCKED: USER
DOCKED: USER    Estimated Free Energy of Binding    =  -4.95 kcal/mol  [=(1)+(2)+(3)-(4)]
DOCKED: USER
DOCKED: USER    (1) Final Intermolecular Energy     =  -9.12 kcal/mol
DOCKED: USER        vdW + Hbond + desolv Energy     =  -8.69 kcal/mol
DOCKED: USER        Electrostatic Energy            =  -0.43 kcal/mol
DOCKED: USER        Moving Ligand-Fixed Receptor    =  -9.12 kcal/mol
DOCKED: USER        Moving Ligand-Moving Receptor   =  +0.00 kcal/mol
DOCKED: USER    (2) Final Total Internal Energy     =  -6.46 kcal/mol
DOCKED: USER    (3) Torsional Free Energy           =  +4.18 kcal/mol
DOCKED: USER    (4) Unbound System's Energy         =  -6.46 kcal/mol
DOCKED: USER
DOCKED: USER
DOCKED: REMARK SMILES C[C@@H](C(=O)/N=c1\[nH]nc(CCCCc2n[nH]/c(=N\C(=O)[C@@H]3COc4ccccc4C3)s2)s1)C(C)(C)CO
DOCKED: REMARK SMILES IDX 6 1 7 2 8 3 9 4 32 5 5 7 3 8 4 9 2 10 1 11 33 12 34 13 35 14
DOCKED: REMARK SMILES IDX 36 15 37 16 10 18 11 19 12 20 13 21 14 22 15 23 31 24 16 25
DOCKED: REMARK SMILES IDX 17 26 18 28 19 29 20 30 21 31 22 32 30 33 23 34 29 35 24 36
DOCKED: REMARK SMILES IDX 28 37 25 38 27 39 26 40
DOCKED: REMARK H PARENT 7 6 37 17 16 27
DOCKED: USER                              x       y       z     vdW  Elec       q    Type
DOCKED: USER                           _______ _______ _______ _____ _____    ______ ____
DOCKED: ROOT
DOCKED: ATOM      1  C   UNL     1     139.788  76.337 222.325 -0.27 -0.04    +0.208 A  
DOCKED: ATOM      2  N   UNL     1     141.061  76.511 222.085 -0.25 +0.10    -0.251 N  
DOCKED: ATOM      3  N   UNL     1     141.503  77.730 222.169 -0.19 +0.09    -0.167 NA 
DOCKED: ATOM      4  C   UNL     1     140.949  78.719 222.428 -0.36 -0.04    +0.116 A  
DOCKED: ATOM      5  S   UNL     1     139.188  78.032 222.695 -0.35 +0.01    -0.080 S  
DOCKED: ATOM      6  H   UNL     1     141.711  75.699 221.832 -0.28 -0.08    +0.193 HD 
DOCKED: ENDROOT
DOCKED: BRANCH   1   7
DOCKED: ATOM      7  N   UNL     1     139.008  75.305 222.338 -0.37 +0.04    -0.184 NA 
DOCKED: BRANCH   7   8
DOCKED: ATOM      8  C   UNL     1     139.561  74.045 222.011 -0.14 -0.04    +0.251 C  
DOCKED: ATOM      9  O   UNL     1     140.808  73.932 222.046 -0.73 -0.00    -0.272 OA 
DOCKED: BRANCH   8  10
DOCKED: ATOM     10  C   UNL     1     138.626  72.955 221.652 -0.16 -0.02    +0.086 C  
DOCKED: ATOM     11  C   UNL     1     138.759  71.883 222.724 -0.23 -0.01    +0.019 C  
DOCKED: BRANCH  10  12
DOCKED: ATOM     12  C   UNL     1     138.934  72.372 220.302 -0.08 +0.00    -0.001 C  
DOCKED: ATOM     13  C   UNL     1     137.638  71.788 219.726 -0.03 -0.00    +0.014 C  
DOCKED: ATOM     14  C   UNL     1     139.940  71.247 220.341 -0.10 -0.00    +0.014 C  
DOCKED: BRANCH  12  15
DOCKED: ATOM     15  C   UNL     1     139.362  73.429 219.311 -0.03 -0.03    +0.163 C  
DOCKED: BRANCH  15  16
DOCKED: ATOM     16  O   UNL     1     140.772  73.399 219.252 -0.00 +0.08    -0.396 OA 
DOCKED: ATOM     17  H   UNL     1     141.146  74.058 219.903 +0.06 -0.05    +0.210 HD 
DOCKED: ENDBRANCH  15  16
DOCKED: ENDBRANCH  12  15
DOCKED: ENDBRANCH  10  12
DOCKED: ENDBRANCH   8  10
DOCKED: ENDBRANCH   7   8
DOCKED: ENDBRANCH   1   7
DOCKED: BRANCH   4  18
DOCKED: ATOM     18  C   UNL     1     141.159  80.187 222.597 -0.43 -0.02    +0.070 C  
DOCKED: BRANCH  18  19
DOCKED: ATOM     19  C   UNL     1     140.764  80.838 221.288 -0.31 -0.00    +0.008 C  
DOCKED: BRANCH  19  20
DOCKED: ATOM     20  C   UNL     1     141.758  80.337 220.236 -0.33 -0.00    +0.008 C  
DOCKED: BRANCH  20  21
DOCKED: ATOM     21  C   UNL     1     140.935  79.900 219.052 -0.17 -0.03    +0.070 C  
DOCKED: BRANCH  21  22
DOCKED: ATOM     22  C   UNL     1     141.059  78.416 218.944 -0.13 -0.05    +0.116 A  
DOCKED: ATOM     23  N   UNL     1     140.469  77.436 218.841 -0.04 +0.06    -0.167 NA 
DOCKED: ATOM     24  S   UNL     1     142.852  77.697 218.971 -0.19 +0.06    -0.080 S  
DOCKED: ATOM     25  N   UNL     1     140.838  76.200 218.763 -0.03 +0.09    -0.251 N  
DOCKED: ATOM     26  C   UNL     1     142.122  75.983 218.805 -0.14 -0.09    +0.208 A  
DOCKED: ATOM     27  H   UNL     1     140.133  75.397 218.668 +0.03 -0.05    +0.193 HD 
DOCKED: BRANCH  26  28
DOCKED: ATOM     28  N   UNL     1     142.879  74.929 218.760 -0.13 +0.07    -0.183 NA 
DOCKED: BRANCH  28  29
DOCKED: ATOM     29  C   UNL     1     143.323  74.341 220.006 -0.22 -0.09    +0.255 C  
DOCKED: ATOM     30  O   UNL     1     142.878  74.732 221.115 -0.11 +0.11    -0.272 OA 
DOCKED: BRANCH  29  31
DOCKED: ATOM     31  C   UNL     1     144.337  73.248 219.880 -0.32 -0.02    +0.123 C  
DOCKED: ATOM     32  C   UNL     1     144.952  73.235 218.499 -0.14 +0.01    +0.243 C  
DOCKED: ATOM     33  C   UNL     1     143.786  71.925 220.301 -0.28 -0.01    +0.056 C  
DOCKED: ATOM     34  O   UNL     1     145.949  72.230 218.489 -0.55 -0.58    -0.492 OA 
DOCKED: ATOM     35  C   UNL     1     144.508  70.776 219.704 -0.24 -0.00    -0.005 A  
DOCKED: ATOM     36  C   UNL     1     145.558  70.941 218.825 -0.23 +0.07    +0.122 A  
DOCKED: ATOM     37  C   UNL     1     144.078  69.511 220.072 -0.20 +0.00    +0.007 A  
DOCKED: ATOM     38  C   UNL     1     146.190  69.815 218.302 -0.26 +0.03    +0.047 A  
DOCKED: ATOM     39  C   UNL     1     144.719  68.411 219.542 -0.38 +0.00    +0.001 A  
DOCKED: ATOM     40  C   UNL     1     145.783  68.528 218.650 -0.38 +0.00    +0.004 A  
DOCKED: ENDBRANCH  29  31
DOCKED: ENDBRANCH  28  29
DOCKED: ENDBRANCH  26  28
DOCKED: ENDBRANCH  21  22
DOCKED: ENDBRANCH  20  21
DOCKED: ENDBRANCH  19  20
DOCKED: ENDBRANCH  18  19
DOCKED: ENDBRANCH   4  18
DOCKED: TORSDOF 14
DOCKED: TER
DOCKED: ENDMDL
________________________________________________________________________________


    FINAL DOCKED STATE:
    ________________________


Run:   15 / 20
Time taken for this run:   0.177s

DOCKED: MODEL        15
DOCKED: USER    Run = 15
DOCKED: USER
DOCKED: USER    Estimated Free Energy of Binding    =  -5.68 kcal/mol  [=(1)+(2)+(3)-(4)]
DOCKED: USER
DOCKED: USER    (1) Final Intermolecular Energy     =  -9.86 kcal/mol
DOCKED: USER        vdW + Hbond + desolv Energy     =  -9.98 kcal/mol
DOCKED: USER        Electrostatic Energy            =  +0.13 kcal/mol
DOCKED: USER        Moving Ligand-Fixed Receptor    =  -9.86 kcal/mol
DOCKED: USER        Moving Ligand-Moving Receptor   =  +0.00 kcal/mol
DOCKED: USER    (2) Final Total Internal Energy     =  -6.32 kcal/mol
DOCKED: USER    (3) Torsional Free Energy           =  +4.18 kcal/mol
DOCKED: USER    (4) Unbound System's Energy         =  -6.32 kcal/mol
DOCKED: USER
DOCKED: USER
DOCKED: REMARK SMILES C[C@@H](C(=O)/N=c1\[nH]nc(CCCCc2n[nH]/c(=N\C(=O)[C@@H]3COc4ccccc4C3)s2)s1)C(C)(C)CO
DOCKED: REMARK SMILES IDX 6 1 7 2 8 3 9 4 32 5 5 7 3 8 4 9 2 10 1 11 33 12 34 13 35 14
DOCKED: REMARK SMILES IDX 36 15 37 16 10 18 11 19 12 20 13 21 14 22 15 23 31 24 16 25
DOCKED: REMARK SMILES IDX 17 26 18 28 19 29 20 30 21 31 22 32 30 33 23 34 29 35 24 36
DOCKED: REMARK SMILES IDX 28 37 25 38 27 39 26 40
DOCKED: REMARK H PARENT 7 6 37 17 16 27
DOCKED: USER                              x       y       z     vdW  Elec       q    Type
DOCKED: USER                           _______ _______ _______ _____ _____    ______ ____
DOCKED: ROOT
DOCKED: ATOM      1  C   UNL     1     142.616  76.925 218.555 -0.23 -0.13    +0.208 A  
DOCKED: ATOM      2  N   UNL     1     141.668  76.845 219.452 -0.12 +0.12    -0.251 N  
DOCKED: ATOM      3  N   UNL     1     141.098  77.963 219.792 -0.13 +0.08    -0.167 NA 
DOCKED: ATOM      4  C   UNL     1     141.290  79.051 219.427 -0.19 -0.06    +0.116 A  
DOCKED: ATOM      5  S   UNL     1     142.693  78.720 218.176 -0.33 +0.07    -0.080 S  
DOCKED: ATOM      6  H   UNL     1     141.371  75.914 219.888 +0.07 -0.07    +0.193 HD 
DOCKED: ENDROOT
DOCKED: BRANCH   1   7
DOCKED: ATOM      7  N   UNL     1     143.388  76.060 217.982 -0.19 +0.10    -0.184 NA 
DOCKED: BRANCH   7   8
DOCKED: ATOM      8  C   UNL     1     143.050  74.691 218.088 -0.09 -0.09    +0.251 C  
DOCKED: ATOM      9  O   UNL     1     141.834  74.389 218.074 -0.02 +0.08    -0.272 OA 
DOCKED: BRANCH   8  10
DOCKED: ATOM     10  C   UNL     1     144.158  73.715 218.207 -0.16 -0.02    +0.086 C  
DOCKED: ATOM     11  C   UNL     1     143.692  72.430 217.537 -0.07 -0.00    +0.019 C  
DOCKED: BRANCH  10  12
DOCKED: ATOM     12  C   UNL     1     144.518  73.446 219.640 -0.39 +0.00    -0.001 C  
DOCKED: ATOM     13  C   UNL     1     145.993  73.026 219.691 -0.44 +0.01    +0.014 C  
DOCKED: ATOM     14  C   UNL     1     143.723  72.326 220.267 -0.31 -0.00    +0.014 C  
DOCKED: BRANCH  12  15
DOCKED: ATOM     15  C   UNL     1     144.435  74.692 220.490 -0.25 -0.07    +0.163 C  
DOCKED: BRANCH  15  16
DOCKED: ATOM     16  O   UNL     1     143.079  74.869 220.840 -0.15 +0.18    -0.396 OA 
DOCKED: ATOM     17  H   UNL     1     142.549  75.080 220.019 +0.07 -0.09    +0.210 HD 
DOCKED: ENDBRANCH  15  16
DOCKED: ENDBRANCH  12  15
DOCKED: ENDBRANCH  10  12
DOCKED: ENDBRANCH   8  10
DOCKED: ENDBRANCH   7   8
DOCKED: ENDBRANCH   1   7
DOCKED: BRANCH   4  18
DOCKED: ATOM     18  C   UNL     1     140.835  80.460 219.610 -0.19 -0.03    +0.070 C  
DOCKED: BRANCH  18  19
DOCKED: ATOM     19  C   UNL     1     141.305  80.896 220.982 -0.35 -0.00    +0.008 C  
DOCKED: BRANCH  19  20
DOCKED: ATOM     20  C   UNL     1     140.133  80.655 221.939 -0.29 -0.00    +0.008 C  
DOCKED: BRANCH  20  21
DOCKED: ATOM     21  C   UNL     1     140.709  79.953 223.142 -0.44 -0.01    +0.070 C  
DOCKED: BRANCH  21  22
DOCKED: ATOM     22  C   UNL     1     140.745  78.492 222.831 -0.39 -0.03    +0.116 A  
DOCKED: ATOM     23  N   UNL     1     141.438  77.602 222.617 -0.26 +0.08    -0.167 NA 
DOCKED: ATOM     24  S   UNL     1     139.038  77.595 222.709 -0.33 +0.01    -0.080 S  
DOCKED: ATOM     25  N   UNL     1     141.203  76.356 222.364 -0.16 +0.10    -0.251 N  
DOCKED: ATOM     26  C   UNL     1     139.949  76.003 222.338 -0.26 -0.04    +0.208 A  
DOCKED: ATOM     27  H   UNL     1     141.991  75.650 222.184 -0.46 -0.10    +0.193 HD 
DOCKED: BRANCH  26  28
DOCKED: ATOM     28  N   UNL     1     139.309  74.894 222.128 -0.51 +0.04    -0.183 NA 
DOCKED: BRANCH  28  29
DOCKED: ATOM     29  C   UNL     1     140.008  73.801 221.485 -0.19 -0.04    +0.255 C  
DOCKED: ATOM     30  O   UNL     1     140.741  73.988 220.481 -0.11 +0.06    -0.272 OA 
DOCKED: BRANCH  29  31
DOCKED: ATOM     31  C   UNL     1     139.796  72.451 222.093 -0.24 -0.02    +0.123 C  
DOCKED: ATOM     32  C   UNL     1     138.334  72.218 222.402 -0.11 -0.07    +0.243 C  
DOCKED: ATOM     33  C   UNL     1     140.697  72.219 223.262 -0.14 -0.00    +0.056 C  
DOCKED: ATOM     34  O   UNL     1     138.212  70.898 222.899 -0.05 +0.10    -0.492 OA 
DOCKED: ATOM     35  C   UNL     1     140.180  71.196 224.203 -0.45 +0.00    -0.005 A  
DOCKED: ATOM     36  C   UNL     1     138.971  70.563 224.012 -0.28 -0.02    +0.122 A  
DOCKED: ATOM     37  C   UNL     1     140.977  70.899 225.298 -0.55 -0.00    +0.007 A  
DOCKED: ATOM     38  C   UNL     1     138.548  69.612 224.938 -0.34 -0.01    +0.047 A  
DOCKED: ATOM     39  C   UNL     1     140.537  69.954 226.201 -0.53 -0.00    +0.001 A  
DOCKED: ATOM     40  C   UNL     1     139.322  69.288 226.050 -0.47 -0.00    +0.004 A  
DOCKED: ENDBRANCH  29  31
DOCKED: ENDBRANCH  28  29
DOCKED: ENDBRANCH  26  28
DOCKED: ENDBRANCH  21  22
DOCKED: ENDBRANCH  20  21
DOCKED: ENDBRANCH  19  20
DOCKED: ENDBRANCH  18  19
DOCKED: ENDBRANCH   4  18
DOCKED: TORSDOF 14
DOCKED: TER
DOCKED: ENDMDL
________________________________________________________________________________


    FINAL DOCKED STATE:
    ________________________


Run:   16 / 20
Time taken for this run:   0.177s

DOCKED: MODEL        16
DOCKED: USER    Run = 16
DOCKED: USER
DOCKED: USER    Estimated Free Energy of Binding    =  -6.51 kcal/mol  [=(1)+(2)+(3)-(4)]
DOCKED: USER
DOCKED: USER    (1) Final Intermolecular Energy     = -10.69 kcal/mol
DOCKED: USER        vdW + Hbond + desolv Energy     = -10.62 kcal/mol
DOCKED: USER        Electrostatic Energy            =  -0.07 kcal/mol
DOCKED: USER        Moving Ligand-Fixed Receptor    = -10.69 kcal/mol
DOCKED: USER        Moving Ligand-Moving Receptor   =  +0.00 kcal/mol
DOCKED: USER    (2) Final Total Internal Energy     =  -6.02 kcal/mol
DOCKED: USER    (3) Torsional Free Energy           =  +4.18 kcal/mol
DOCKED: USER    (4) Unbound System's Energy         =  -6.02 kcal/mol
DOCKED: USER
DOCKED: USER
DOCKED: REMARK SMILES C[C@@H](C(=O)/N=c1\[nH]nc(CCCCc2n[nH]/c(=N\C(=O)[C@@H]3COc4ccccc4C3)s2)s1)C(C)(C)CO
DOCKED: REMARK SMILES IDX 6 1 7 2 8 3 9 4 32 5 5 7 3 8 4 9 2 10 1 11 33 12 34 13 35 14
DOCKED: REMARK SMILES IDX 36 15 37 16 10 18 11 19 12 20 13 21 14 22 15 23 31 24 16 25
DOCKED: REMARK SMILES IDX 17 26 18 28 19 29 20 30 21 31 22 32 30 33 23 34 29 35 24 36
DOCKED: REMARK SMILES IDX 28 37 25 38 27 39 26 40
DOCKED: REMARK H PARENT 7 6 37 17 16 27
DOCKED: USER                              x       y       z     vdW  Elec       q    Type
DOCKED: USER                           _______ _______ _______ _____ _____    ______ ____
DOCKED: ROOT
DOCKED: ATOM      1  C   UNL     1     137.589  76.637 222.893 -0.19 -0.04    +0.208 A  
DOCKED: ATOM      2  N   UNL     1     138.684  75.924 222.841 -0.13 +0.06    -0.251 N  
DOCKED: ATOM      3  N   UNL     1     139.795  76.582 222.696 -0.26 +0.03    -0.167 NA 
DOCKED: ATOM      4  C   UNL     1     139.991  77.725 222.602 -0.30 -0.03    +0.116 A  
DOCKED: ATOM      5  S   UNL     1     138.195  78.362 222.723 -0.30 +0.01    -0.080 S  
DOCKED: ATOM      6  H   UNL     1     138.674  74.856 222.913 -0.49 -0.08    +0.193 HD 
DOCKED: ENDROOT
DOCKED: BRANCH   1   7
DOCKED: ATOM      7  N   UNL     1     136.334  76.351 223.027 -0.18 +0.04    -0.184 NA 
DOCKED: BRANCH   7   8
DOCKED: ATOM      8  C   UNL     1     135.888  75.084 222.584 -0.12 -0.06    +0.251 C  
DOCKED: ATOM      9  O   UNL     1     136.720  74.340 222.015 -0.09 +0.07    -0.272 OA 
DOCKED: BRANCH   8  10
DOCKED: ATOM     10  C   UNL     1     134.470  74.730 222.825 -0.09 -0.01    +0.086 C  
DOCKED: ATOM     11  C   UNL     1     133.749  76.017 223.202 -0.09 -0.00    +0.019 C  
DOCKED: BRANCH  10  12
DOCKED: ATOM     12  C   UNL     1     134.322  73.717 223.924 -0.18 +0.00    -0.001 C  
DOCKED: ATOM     13  C   UNL     1     132.842  73.322 224.013 -0.08 -0.00    +0.014 C  
DOCKED: ATOM     14  C   UNL     1     134.719  74.235 225.286 -0.31 -0.00    +0.014 C  
DOCKED: BRANCH  12  15
DOCKED: ATOM     15  C   UNL     1     135.053  72.432 223.614 -0.12 -0.03    +0.163 C  
DOCKED: BRANCH  15  16
DOCKED: ATOM     16  O   UNL     1     136.303  72.495 224.267 -0.06 +0.11    -0.396 OA 
DOCKED: ATOM     17  H   UNL     1     136.926  73.071 223.739 -0.52 -0.12    +0.210 HD 
DOCKED: ENDBRANCH  15  16
DOCKED: ENDBRANCH  12  15
DOCKED: ENDBRANCH  10  12
DOCKED: ENDBRANCH   8  10
DOCKED: ENDBRANCH   7   8
DOCKED: ENDBRANCH   1   7
DOCKED: BRANCH   4  18
DOCKED: ATOM     18  C   UNL     1     141.079  78.732 222.437 -0.42 -0.02    +0.070 C  
DOCKED: BRANCH  18  19
DOCKED: ATOM     19  C   UNL     1     141.831  78.359 221.176 -0.34 -0.00    +0.008 C  
DOCKED: BRANCH  19  20
DOCKED: ATOM     20  C   UNL     1     140.829  78.475 220.023 -0.21 -0.00    +0.008 C  
DOCKED: BRANCH  20  21
DOCKED: ATOM     21  C   UNL     1     141.073  77.284 219.131 -0.14 -0.03    +0.070 C  
DOCKED: BRANCH  21  22
DOCKED: ATOM     22  C   UNL     1     140.569  76.077 219.851 -0.11 -0.04    +0.116 A  
DOCKED: ATOM     23  N   UNL     1     139.638  75.439 220.064 -0.05 +0.04    -0.167 NA 
DOCKED: ATOM     24  S   UNL     1     141.870  75.078 220.873 -0.33 +0.03    -0.080 S  
DOCKED: ATOM     25  N   UNL     1     139.456  74.369 220.766 -0.08 +0.05    -0.251 N  
DOCKED: ATOM     26  C   UNL     1     140.509  73.890 221.363 -0.21 -0.03    +0.208 A  
DOCKED: ATOM     27  H   UNL     1     138.495  73.899 220.854 +0.04 -0.04    +0.193 HD 
DOCKED: BRANCH  26  28
DOCKED: ATOM     28  N   UNL     1     140.749  72.874 222.135 -0.47 +0.01    -0.183 NA 
DOCKED: BRANCH  28  29
DOCKED: ATOM     29  C   UNL     1     139.637  72.245 222.817 -0.17 -0.05    +0.255 C  
DOCKED: ATOM     30  O   UNL     1     138.460  72.663 222.683 -0.10 +0.10    -0.272 OA 
DOCKED: BRANCH  29  31
DOCKED: ATOM     31  C   UNL     1     139.988  71.078 223.685 -0.32 -0.02    +0.123 C  
DOCKED: ATOM     32  C   UNL     1     138.811  70.140 223.834 -0.20 -0.04    +0.243 C  
DOCKED: ATOM     33  C   UNL     1     140.575  71.510 224.989 -0.47 -0.01    +0.056 C  
DOCKED: ATOM     34  O   UNL     1     139.248  69.032 224.600 -0.11 +0.07    -0.492 OA 
DOCKED: ATOM     35  C   UNL     1     140.428  70.494 226.059 -0.56 +0.00    -0.005 A  
DOCKED: ATOM     36  C   UNL     1     139.781  69.294 225.854 -0.39 -0.02    +0.122 A  
DOCKED: ATOM     37  C   UNL     1     140.978  70.807 227.293 -0.66 -0.00    +0.007 A  
DOCKED: ATOM     38  C   UNL     1     139.681  68.387 226.907 -0.57 -0.01    +0.047 A  
DOCKED: ATOM     39  C   UNL     1     140.867  69.893 228.320 -0.58 -0.00    +0.001 A  
DOCKED: ATOM     40  C   UNL     1     140.222  68.668 228.160 -0.65 -0.00    +0.004 A  
DOCKED: ENDBRANCH  29  31
DOCKED: ENDBRANCH  28  29
DOCKED: ENDBRANCH  26  28
DOCKED: ENDBRANCH  21  22
DOCKED: ENDBRANCH  20  21
DOCKED: ENDBRANCH  19  20
DOCKED: ENDBRANCH  18  19
DOCKED: ENDBRANCH   4  18
DOCKED: TORSDOF 14
DOCKED: TER
DOCKED: ENDMDL
________________________________________________________________________________


    FINAL DOCKED STATE:
    ________________________


Run:   17 / 20
Time taken for this run:   0.177s

DOCKED: MODEL        17
DOCKED: USER    Run = 17
DOCKED: USER
DOCKED: USER    Estimated Free Energy of Binding    =  -4.65 kcal/mol  [=(1)+(2)+(3)-(4)]
DOCKED: USER
DOCKED: USER    (1) Final Intermolecular Energy     =  -8.82 kcal/mol
DOCKED: USER        vdW + Hbond + desolv Energy     =  -8.97 kcal/mol
DOCKED: USER        Electrostatic Energy            =  +0.14 kcal/mol
DOCKED: USER        Moving Ligand-Fixed Receptor    =  -8.82 kcal/mol
DOCKED: USER        Moving Ligand-Moving Receptor   =  +0.00 kcal/mol
DOCKED: USER    (2) Final Total Internal Energy     =  -6.78 kcal/mol
DOCKED: USER    (3) Torsional Free Energy           =  +4.18 kcal/mol
DOCKED: USER    (4) Unbound System's Energy         =  -6.78 kcal/mol
DOCKED: USER
DOCKED: USER
DOCKED: REMARK SMILES C[C@@H](C(=O)/N=c1\[nH]nc(CCCCc2n[nH]/c(=N\C(=O)[C@@H]3COc4ccccc4C3)s2)s1)C(C)(C)CO
DOCKED: REMARK SMILES IDX 6 1 7 2 8 3 9 4 32 5 5 7 3 8 4 9 2 10 1 11 33 12 34 13 35 14
DOCKED: REMARK SMILES IDX 36 15 37 16 10 18 11 19 12 20 13 21 14 22 15 23 31 24 16 25
DOCKED: REMARK SMILES IDX 17 26 18 28 19 29 20 30 21 31 22 32 30 33 23 34 29 35 24 36
DOCKED: REMARK SMILES IDX 28 37 25 38 27 39 26 40
DOCKED: REMARK H PARENT 7 6 37 17 16 27
DOCKED: USER                              x       y       z     vdW  Elec       q    Type
DOCKED: USER                           _______ _______ _______ _____ _____    ______ ____
DOCKED: ROOT
DOCKED: ATOM      1  C   UNL     1     139.932  76.882 222.119 -0.27 -0.05    +0.208 A  
DOCKED: ATOM      2  N   UNL     1     141.227  77.056 222.082 -0.18 +0.12    -0.251 N  
DOCKED: ATOM      3  N   UNL     1     141.679  78.148 222.624 -0.25 +0.09    -0.167 NA 
DOCKED: ATOM      4  C   UNL     1     141.117  79.020 223.148 -0.45 -0.03    +0.116 A  
DOCKED: ATOM      5  S   UNL     1     139.325  78.382 222.986 -0.34 +0.01    -0.080 S  
DOCKED: ATOM      6  H   UNL     1     141.888  76.343 221.633 -0.47 -0.13    +0.193 HD 
DOCKED: ENDROOT
DOCKED: BRANCH   1   7
DOCKED: ATOM      7  N   UNL     1     139.137  75.951 221.700 -0.20 +0.04    -0.184 NA 
DOCKED: BRANCH   7   8
DOCKED: ATOM      8  C   UNL     1     139.486  75.258 220.518 -0.09 -0.06    +0.251 C  
DOCKED: ATOM      9  O   UNL     1     140.248  75.836 219.708 -0.04 +0.08    -0.272 OA 
DOCKED: BRANCH   8  10
DOCKED: ATOM     10  C   UNL     1     138.925  73.901 220.324 -0.08 -0.02    +0.086 C  
DOCKED: ATOM     11  C   UNL     1     137.498  73.930 220.852 -0.09 -0.00    +0.019 C  
DOCKED: BRANCH  10  12
DOCKED: ATOM     12  C   UNL     1     139.720  72.854 221.051 -0.18 +0.00    -0.001 C  
DOCKED: ATOM     13  C   UNL     1     139.591  71.535 220.279 -0.08 -0.00    +0.014 C  
DOCKED: ATOM     14  C   UNL     1     139.235  72.588 222.455 -0.19 -0.00    +0.014 C  
DOCKED: BRANCH  12  15
DOCKED: ATOM     15  C   UNL     1     141.199  73.165 221.053 -0.20 -0.02    +0.163 C  
DOCKED: BRANCH  15  16
DOCKED: ATOM     16  O   UNL     1     141.401  74.226 221.961 -0.37 +0.01    -0.396 OA 
DOCKED: ATOM     17  H   UNL     1     141.327  75.097 221.477 +0.04 -0.05    +0.210 HD 
DOCKED: ENDBRANCH  15  16
DOCKED: ENDBRANCH  12  15
DOCKED: ENDBRANCH  10  12
DOCKED: ENDBRANCH   8  10
DOCKED: ENDBRANCH   7   8
DOCKED: ENDBRANCH   1   7
DOCKED: BRANCH   4  18
DOCKED: ATOM     18  C   UNL     1     141.332  80.330 223.831 -0.47 -0.01    +0.070 C  
DOCKED: BRANCH  18  19
DOCKED: ATOM     19  C   UNL     1     142.087  81.210 222.857 -0.54 -0.00    +0.008 C  
DOCKED: BRANCH  19  20
DOCKED: ATOM     20  C   UNL     1     141.044  82.109 222.185 -0.34 -0.00    +0.008 C  
DOCKED: BRANCH  20  21
DOCKED: ATOM     21  C   UNL     1     141.444  82.210 220.736 -0.27 -0.02    +0.070 C  
DOCKED: BRANCH  21  22
DOCKED: ATOM     22  C   UNL     1     141.234  80.866 220.120 -0.23 -0.04    +0.116 A  
DOCKED: ATOM     23  N   UNL     1     140.826  79.808 220.306 -0.13 +0.06    -0.167 NA 
DOCKED: ATOM     24  S   UNL     1     141.821  80.655 218.291 -0.32 +0.05    -0.080 S  
DOCKED: ATOM     25  N   UNL     1     140.755  78.757 219.558 -0.07 +0.11    -0.251 N  
DOCKED: ATOM     26  C   UNL     1     141.228  78.881 218.351 -0.12 -0.11    +0.208 A  
DOCKED: ATOM     27  H   UNL     1     140.333  77.834 219.907 +0.06 -0.07    +0.193 HD 
DOCKED: BRANCH  26  28
DOCKED: ATOM     28  N   UNL     1     141.345  78.097 217.323 -0.07 +0.10    -0.183 NA 
DOCKED: BRANCH  28  29
DOCKED: ATOM     29  C   UNL     1     142.540  77.289 217.199 -0.17 -0.17    +0.255 C  
DOCKED: ATOM     30  O   UNL     1     143.394  77.508 216.303 -0.19 +0.28    -0.272 OA 
DOCKED: BRANCH  29  31
DOCKED: ATOM     31  C   UNL     1     142.683  76.188 218.202 -0.21 -0.06    +0.123 C  
DOCKED: ATOM     32  C   UNL     1     143.157  76.724 219.534 -0.21 -0.17    +0.243 C  
DOCKED: ATOM     33  C   UNL     1     143.518  75.064 217.680 -0.17 -0.02    +0.056 C  
DOCKED: ATOM     34  O   UNL     1     143.190  75.637 220.440 -0.05 +0.32    -0.492 OA 
DOCKED: ATOM     35  C   UNL     1     144.134  74.248 218.753 -0.22 +0.00    -0.005 A  
DOCKED: ATOM     36  C   UNL     1     143.965  74.539 220.091 -0.36 -0.05    +0.122 A  
DOCKED: ATOM     37  C   UNL     1     144.898  73.164 218.350 -0.23 +0.00    +0.007 A  
DOCKED: ATOM     38  C   UNL     1     144.575  73.728 221.045 -0.34 -0.01    +0.047 A  
DOCKED: ATOM     39  C   UNL     1     145.491  72.375 219.314 -0.35 +0.00    +0.001 A  
DOCKED: ATOM     40  C   UNL     1     145.349  72.631 220.676 -0.50 -0.00    +0.004 A  
DOCKED: ENDBRANCH  29  31
DOCKED: ENDBRANCH  28  29
DOCKED: ENDBRANCH  26  28
DOCKED: ENDBRANCH  21  22
DOCKED: ENDBRANCH  20  21
DOCKED: ENDBRANCH  19  20
DOCKED: ENDBRANCH  18  19
DOCKED: ENDBRANCH   4  18
DOCKED: TORSDOF 14
DOCKED: TER
DOCKED: ENDMDL
________________________________________________________________________________


    FINAL DOCKED STATE:
    ________________________


Run:   18 / 20
Time taken for this run:   0.177s

DOCKED: MODEL        18
DOCKED: USER    Run = 18
DOCKED: USER
DOCKED: USER    Estimated Free Energy of Binding    =  -4.63 kcal/mol  [=(1)+(2)+(3)-(4)]
DOCKED: USER
DOCKED: USER    (1) Final Intermolecular Energy     =  -8.80 kcal/mol
DOCKED: USER        vdW + Hbond + desolv Energy     =  -8.79 kcal/mol
DOCKED: USER        Electrostatic Energy            =  -0.02 kcal/mol
DOCKED: USER        Moving Ligand-Fixed Receptor    =  -8.80 kcal/mol
DOCKED: USER        Moving Ligand-Moving Receptor   =  +0.00 kcal/mol
DOCKED: USER    (2) Final Total Internal Energy     =  -6.87 kcal/mol
DOCKED: USER    (3) Torsional Free Energy           =  +4.18 kcal/mol
DOCKED: USER    (4) Unbound System's Energy         =  -6.87 kcal/mol
DOCKED: USER
DOCKED: USER
DOCKED: REMARK SMILES C[C@@H](C(=O)/N=c1\[nH]nc(CCCCc2n[nH]/c(=N\C(=O)[C@@H]3COc4ccccc4C3)s2)s1)C(C)(C)CO
DOCKED: REMARK SMILES IDX 6 1 7 2 8 3 9 4 32 5 5 7 3 8 4 9 2 10 1 11 33 12 34 13 35 14
DOCKED: REMARK SMILES IDX 36 15 37 16 10 18 11 19 12 20 13 21 14 22 15 23 31 24 16 25
DOCKED: REMARK SMILES IDX 17 26 18 28 19 29 20 30 21 31 22 32 30 33 23 34 29 35 24 36
DOCKED: REMARK SMILES IDX 28 37 25 38 27 39 26 40
DOCKED: REMARK H PARENT 7 6 37 17 16 27
DOCKED: USER                              x       y       z     vdW  Elec       q    Type
DOCKED: USER                           _______ _______ _______ _____ _____    ______ ____
DOCKED: ROOT
DOCKED: ATOM      1  C   UNL     1     135.740  74.850 223.638 -0.19 -0.05    +0.208 A  
DOCKED: ATOM      2  N   UNL     1     136.922  74.893 223.081 +0.09 +0.10    -0.251 N  
DOCKED: ATOM      3  N   UNL     1     137.373  76.072 222.772 -0.21 +0.04    -0.167 NA 
DOCKED: ATOM      4  C   UNL     1     136.895  77.124 222.908 -0.17 -0.02    +0.116 A  
DOCKED: ATOM      5  S   UNL     1     135.245  76.617 223.724 -0.23 +0.01    -0.080 S  
DOCKED: ATOM      6  H   UNL     1     137.495  74.010 222.887 -0.44 -0.11    +0.193 HD 
DOCKED: ENDROOT
DOCKED: BRANCH   1   7
DOCKED: ATOM      7  N   UNL     1     134.984  73.894 224.073 -0.16 +0.03    -0.184 NA 
DOCKED: BRANCH   7   8
DOCKED: ATOM      8  C   UNL     1     135.410  72.562 223.869 -0.13 -0.05    +0.251 C  
DOCKED: ATOM      9  O   UNL     1     136.572  72.261 224.230 -0.12 +0.08    -0.272 OA 
DOCKED: BRANCH   8  10
DOCKED: ATOM     10  C   UNL     1     134.453  71.620 223.245 -0.07 -0.01    +0.086 C  
DOCKED: ATOM     11  C   UNL     1     134.651  70.271 223.920 -0.13 -0.00    +0.019 C  
DOCKED: BRANCH  10  12
DOCKED: ATOM     12  C   UNL     1     134.674  71.491 221.765 -0.03 +0.00    -0.001 C  
DOCKED: ATOM     13  C   UNL     1     133.389  70.938 221.136 -0.01 -0.00    +0.014 C  
DOCKED: ATOM     14  C   UNL     1     135.786  70.538 221.397 -0.03 -0.00    +0.014 C  
DOCKED: BRANCH  12  15
DOCKED: ATOM     15  C   UNL     1     134.889  72.833 221.104 -0.01 -0.03    +0.163 C  
DOCKED: BRANCH  15  16
DOCKED: ATOM     16  O   UNL     1     136.258  73.150 221.239 -0.01 +0.08    -0.396 OA 
DOCKED: ATOM     17  H   UNL     1     136.536  73.024 222.190 +0.03 -0.05    +0.210 HD 
DOCKED: ENDBRANCH  15  16
DOCKED: ENDBRANCH  12  15
DOCKED: ENDBRANCH  10  12
DOCKED: ENDBRANCH   8  10
DOCKED: ENDBRANCH   7   8
DOCKED: ENDBRANCH   1   7
DOCKED: BRANCH   4  18
DOCKED: ATOM     18  C   UNL     1     137.140  78.577 222.674 -0.18 -0.01    +0.070 C  
DOCKED: BRANCH  18  19
DOCKED: ATOM     19  C   UNL     1     138.603  78.720 222.310 -0.25 -0.00    +0.008 C  
DOCKED: BRANCH  19  20
DOCKED: ATOM     20  C   UNL     1     138.663  78.817 220.782 -0.11 -0.00    +0.008 C  
DOCKED: BRANCH  20  21
DOCKED: ATOM     21  C   UNL     1     139.881  78.038 220.357 -0.12 -0.02    +0.070 C  
DOCKED: BRANCH  21  22
DOCKED: ATOM     22  C   UNL     1     139.652  76.611 220.734 -0.13 -0.03    +0.116 A  
DOCKED: ATOM     23  N   UNL     1     138.968  75.703 220.573 -0.07 +0.04    -0.167 NA 
DOCKED: ATOM     24  S   UNL     1     140.918  75.831 221.968 -0.38 +0.02    -0.080 S  
DOCKED: ATOM     25  N   UNL     1     138.989  74.501 221.047 -0.09 +0.05    -0.251 N  
DOCKED: ATOM     26  C   UNL     1     139.960  74.227 221.870 -0.19 -0.02    +0.208 A  
DOCKED: ATOM     27  H   UNL     1     138.251  73.767 220.780 +0.04 -0.04    +0.193 HD 
DOCKED: BRANCH  26  28
DOCKED: ATOM     28  N   UNL     1     140.329  73.180 222.544 -0.68 +0.00    -0.183 NA 
DOCKED: BRANCH  28  29
DOCKED: ATOM     29  C   UNL     1     139.374  72.109 222.739 -0.17 -0.06    +0.255 C  
DOCKED: ATOM     30  O   UNL     1     138.255  72.112 222.166 -0.11 +0.07    -0.272 OA 
DOCKED: BRANCH  29  31
DOCKED: ATOM     31  C   UNL     1     139.809  71.014 223.660 -0.31 -0.02    +0.123 C  
DOCKED: ATOM     32  C   UNL     1     138.677  70.048 223.928 -0.20 -0.04    +0.243 C  
DOCKED: ATOM     33  C   UNL     1     140.442  71.551 224.903 -0.43 -0.01    +0.056 C  
DOCKED: ATOM     34  O   UNL     1     139.191  69.009 224.740 -0.12 +0.07    -0.492 OA 
DOCKED: ATOM     35  C   UNL     1     140.385  70.603 226.042 -0.57 +0.00    -0.005 A  
DOCKED: ATOM     36  C   UNL     1     139.774  69.371 225.947 -0.39 -0.02    +0.122 A  
DOCKED: ATOM     37  C   UNL     1     140.982  71.014 227.223 -0.69 -0.00    +0.007 A  
DOCKED: ATOM     38  C   UNL     1     139.758  68.532 227.059 -0.57 -0.01    +0.047 A  
DOCKED: ATOM     39  C   UNL     1     140.954  70.166 228.311 -0.57 -0.00    +0.001 A  
DOCKED: ATOM     40  C   UNL     1     140.348  68.913 228.262 -0.65 -0.00    +0.004 A  
DOCKED: ENDBRANCH  29  31
DOCKED: ENDBRANCH  28  29
DOCKED: ENDBRANCH  26  28
DOCKED: ENDBRANCH  21  22
DOCKED: ENDBRANCH  20  21
DOCKED: ENDBRANCH  19  20
DOCKED: ENDBRANCH  18  19
DOCKED: ENDBRANCH   4  18
DOCKED: TORSDOF 14
DOCKED: TER
DOCKED: ENDMDL
________________________________________________________________________________


    FINAL DOCKED STATE:
    ________________________


Run:   19 / 20
Time taken for this run:   0.177s

DOCKED: MODEL        19
DOCKED: USER    Run = 19
DOCKED: USER
DOCKED: USER    Estimated Free Energy of Binding    =  -6.85 kcal/mol  [=(1)+(2)+(3)-(4)]
DOCKED: USER
DOCKED: USER    (1) Final Intermolecular Energy     = -11.02 kcal/mol
DOCKED: USER        vdW + Hbond + desolv Energy     = -10.84 kcal/mol
DOCKED: USER        Electrostatic Energy            =  -0.18 kcal/mol
DOCKED: USER        Moving Ligand-Fixed Receptor    = -11.02 kcal/mol
DOCKED: USER        Moving Ligand-Moving Receptor   =  +0.00 kcal/mol
DOCKED: USER    (2) Final Total Internal Energy     =  -4.61 kcal/mol
DOCKED: USER    (3) Torsional Free Energy           =  +4.18 kcal/mol
DOCKED: USER    (4) Unbound System's Energy         =  -4.61 kcal/mol
DOCKED: USER
DOCKED: USER
DOCKED: REMARK SMILES C[C@@H](C(=O)/N=c1\[nH]nc(CCCCc2n[nH]/c(=N\C(=O)[C@@H]3COc4ccccc4C3)s2)s1)C(C)(C)CO
DOCKED: REMARK SMILES IDX 6 1 7 2 8 3 9 4 32 5 5 7 3 8 4 9 2 10 1 11 33 12 34 13 35 14
DOCKED: REMARK SMILES IDX 36 15 37 16 10 18 11 19 12 20 13 21 14 22 15 23 31 24 16 25
DOCKED: REMARK SMILES IDX 17 26 18 28 19 29 20 30 21 31 22 32 30 33 23 34 29 35 24 36
DOCKED: REMARK SMILES IDX 28 37 25 38 27 39 26 40
DOCKED: REMARK H PARENT 7 6 37 17 16 27
DOCKED: USER                              x       y       z     vdW  Elec       q    Type
DOCKED: USER                           _______ _______ _______ _____ _____    ______ ____
DOCKED: ROOT
DOCKED: ATOM      1  C   UNL     1     134.690  75.282 223.911 -0.16 -0.03    +0.208 A  
DOCKED: ATOM      2  N   UNL     1     135.933  74.886 224.002 -0.16 +0.07    -0.251 N  
DOCKED: ATOM      3  N   UNL     1     136.815  75.604 223.375 -0.16 +0.05    -0.167 NA 
DOCKED: ATOM      4  C   UNL     1     136.690  76.563 222.730 -0.21 -0.02    +0.116 A  
DOCKED: ATOM      5  S   UNL     1     134.798  76.782 222.858 -0.14 +0.01    -0.080 S  
DOCKED: ATOM      6  H   UNL     1     136.216  74.017 224.561 -0.43 -0.08    +0.193 HD 
DOCKED: ENDROOT
DOCKED: BRANCH   1   7
DOCKED: ATOM      7  N   UNL     1     133.568  74.842 224.382 -0.08 +0.02    -0.184 NA 
DOCKED: BRANCH   7   8
DOCKED: ATOM      8  C   UNL     1     133.591  74.126 225.601 -0.20 -0.01    +0.251 C  
DOCKED: ATOM      9  O   UNL     1     134.703  73.951 226.151 -0.50 -0.04    -0.272 OA 
DOCKED: BRANCH   8  10
DOCKED: ATOM     10  C   UNL     1     132.300  73.636 226.137 -0.25 -0.01    +0.086 C  
DOCKED: ATOM     11  C   UNL     1     132.104  74.295 227.494 -0.42 -0.00    +0.019 C  
DOCKED: BRANCH  10  12
DOCKED: ATOM     12  C   UNL     1     132.282  72.142 226.283 -0.30 +0.00    -0.001 C  
DOCKED: ATOM     13  C   UNL     1     132.427  71.523 224.888 -0.12 -0.00    +0.014 C  
DOCKED: ATOM     14  C   UNL     1     130.999  71.604 226.869 -0.30 -0.00    +0.014 C  
DOCKED: BRANCH  12  15
DOCKED: ATOM     15  C   UNL     1     133.472  71.634 227.063 -0.36 -0.02    +0.163 C  
DOCKED: BRANCH  15  16
DOCKED: ATOM     16  O   UNL     1     134.394  71.116 226.128 -0.14 +0.02    -0.396 OA 
DOCKED: ATOM     17  H   UNL     1     134.841  71.871 225.649 +0.08 -0.01    +0.210 HD 
DOCKED: ENDBRANCH  15  16
DOCKED: ENDBRANCH  12  15
DOCKED: ENDBRANCH  10  12
DOCKED: ENDBRANCH   8  10
DOCKED: ENDBRANCH   7   8
DOCKED: ENDBRANCH   1   7
DOCKED: BRANCH   4  18
DOCKED: ATOM     18  C   UNL     1     137.455  77.562 221.927 -0.16 -0.01    +0.070 C  
DOCKED: BRANCH  18  19
DOCKED: ATOM     19  C   UNL     1     138.922  77.227 222.099 -0.29 -0.00    +0.008 C  
DOCKED: BRANCH  19  20
DOCKED: ATOM     20  C   UNL     1     139.546  77.279 220.700 -0.15 -0.00    +0.008 C  
DOCKED: BRANCH  20  21
DOCKED: ATOM     21  C   UNL     1     140.625  76.227 220.681 -0.22 -0.02    +0.070 C  
DOCKED: BRANCH  21  22
DOCKED: ATOM     22  C   UNL     1     140.091  75.025 221.388 -0.25 -0.02    +0.116 A  
DOCKED: ATOM     23  N   UNL     1     140.264  74.308 222.268 -0.76 -0.00    -0.167 NA 
DOCKED: ATOM     24  S   UNL     1     138.475  74.248 220.668 -0.13 +0.02    -0.080 S  
DOCKED: ATOM     25  N   UNL     1     139.611  73.278 222.695 -0.02 +0.05    -0.251 N  
DOCKED: ATOM     26  C   UNL     1     138.541  72.959 222.022 -0.12 -0.06    +0.208 A  
DOCKED: ATOM     27  H   UNL     1     139.926  72.715 223.552 -0.18 -0.04    +0.193 HD 
DOCKED: BRANCH  26  28
DOCKED: ATOM     28  N   UNL     1     137.638  72.031 222.114 -0.09 +0.04    -0.183 NA 
DOCKED: BRANCH  28  29
DOCKED: ATOM     29  C   UNL     1     137.301  71.519 223.425 -0.12 -0.07    +0.255 C  
DOCKED: ATOM     30  O   UNL     1     136.290  71.926 224.052 -0.15 +0.06    -0.272 OA 
DOCKED: BRANCH  29  31
DOCKED: ATOM     31  C   UNL     1     138.232  70.485 223.975 -0.24 -0.02    +0.123 C  
DOCKED: ATOM     32  C   UNL     1     137.470  69.273 224.461 -0.19 -0.02    +0.243 C  
DOCKED: ATOM     33  C   UNL     1     139.158  71.057 224.999 -0.23 -0.01    +0.056 C  
DOCKED: ATOM     34  O   UNL     1     138.423  68.318 224.890 -0.35 -0.00    -0.492 OA 
DOCKED: ATOM     35  C   UNL     1     139.689  70.040 225.937 -0.47 +0.00    -0.005 A  
DOCKED: ATOM     36  C   UNL     1     139.322  68.712 225.872 -0.41 -0.01    +0.122 A  
DOCKED: ATOM     37  C   UNL     1     140.583  70.486 226.898 -0.61 -0.00    +0.007 A  
DOCKED: ATOM     38  C   UNL     1     139.862  67.812 226.787 -0.63 -0.01    +0.047 A  
DOCKED: ATOM     39  C   UNL     1     141.104  69.576 227.794 -0.58 -0.00    +0.001 A  
DOCKED: ATOM     40  C   UNL     1     140.763  68.226 227.766 -0.67 -0.00    +0.004 A  
DOCKED: ENDBRANCH  29  31
DOCKED: ENDBRANCH  28  29
DOCKED: ENDBRANCH  26  28
DOCKED: ENDBRANCH  21  22
DOCKED: ENDBRANCH  20  21
DOCKED: ENDBRANCH  19  20
DOCKED: ENDBRANCH  18  19
DOCKED: ENDBRANCH   4  18
DOCKED: TORSDOF 14
DOCKED: TER
DOCKED: ENDMDL
________________________________________________________________________________


    FINAL DOCKED STATE:
    ________________________


Run:   20 / 20
Time taken for this run:   0.177s

DOCKED: MODEL        20
DOCKED: USER    Run = 20
DOCKED: USER
DOCKED: USER    Estimated Free Energy of Binding    =  -6.48 kcal/mol  [=(1)+(2)+(3)-(4)]
DOCKED: USER
DOCKED: USER    (1) Final Intermolecular Energy     = -10.65 kcal/mol
DOCKED: USER        vdW + Hbond + desolv Energy     = -10.55 kcal/mol
DOCKED: USER        Electrostatic Energy            =  -0.10 kcal/mol
DOCKED: USER        Moving Ligand-Fixed Receptor    = -10.65 kcal/mol
DOCKED: USER        Moving Ligand-Moving Receptor   =  +0.00 kcal/mol
DOCKED: USER    (2) Final Total Internal Energy     =  -4.91 kcal/mol
DOCKED: USER    (3) Torsional Free Energy           =  +4.18 kcal/mol
DOCKED: USER    (4) Unbound System's Energy         =  -4.91 kcal/mol
DOCKED: USER
DOCKED: USER
DOCKED: REMARK SMILES C[C@@H](C(=O)/N=c1\[nH]nc(CCCCc2n[nH]/c(=N\C(=O)[C@@H]3COc4ccccc4C3)s2)s1)C(C)(C)CO
DOCKED: REMARK SMILES IDX 6 1 7 2 8 3 9 4 32 5 5 7 3 8 4 9 2 10 1 11 33 12 34 13 35 14
DOCKED: REMARK SMILES IDX 36 15 37 16 10 18 11 19 12 20 13 21 14 22 15 23 31 24 16 25
DOCKED: REMARK SMILES IDX 17 26 18 28 19 29 20 30 21 31 22 32 30 33 23 34 29 35 24 36
DOCKED: REMARK SMILES IDX 28 37 25 38 27 39 26 40
DOCKED: REMARK H PARENT 7 6 37 17 16 27
DOCKED: USER                              x       y       z     vdW  Elec       q    Type
DOCKED: USER                           _______ _______ _______ _____ _____    ______ ____
DOCKED: ROOT
DOCKED: ATOM      1  C   UNL     1     137.626  76.912 222.601 -0.20 -0.04    +0.208 A  
DOCKED: ATOM      2  N   UNL     1     138.576  76.045 222.837 -0.17 +0.06    -0.251 N  
DOCKED: ATOM      3  N   UNL     1     139.796  76.471 222.694 -0.27 +0.03    -0.167 NA 
DOCKED: ATOM      4  C   UNL     1     140.200  77.517 222.384 -0.33 -0.03    +0.116 A  
DOCKED: ATOM      5  S   UNL     1     138.544  78.435 222.144 -0.26 +0.02    -0.080 S  
DOCKED: ATOM      6  H   UNL     1     138.370  75.037 223.133 -0.47 -0.10    +0.193 HD 
DOCKED: ENDROOT
DOCKED: BRANCH   1   7
DOCKED: ATOM      7  N   UNL     1     136.334  76.862 222.636 -0.13 +0.03    -0.184 NA 
DOCKED: BRANCH   7   8
DOCKED: ATOM      8  C   UNL     1     135.725  75.695 223.152 -0.16 -0.05    +0.251 C  
DOCKED: ATOM      9  O   UNL     1     136.201  75.206 224.203 -0.24 +0.08    -0.272 OA 
DOCKED: BRANCH   8  10
DOCKED: ATOM     10  C   UNL     1     134.570  75.137 222.412 -0.07 -0.01    +0.086 C  
DOCKED: ATOM     11  C   UNL     1     133.564  74.662 223.451 -0.09 -0.00    +0.019 C  
DOCKED: BRANCH  10  12
DOCKED: ATOM     12  C   UNL     1     134.969  73.994 221.524 -0.05 +0.00    -0.001 C  
DOCKED: ATOM     13  C   UNL     1     135.841  74.551 220.392 -0.03 -0.00    +0.014 C  
DOCKED: ATOM     14  C   UNL     1     133.801  73.293 220.872 -0.01 -0.00    +0.014 C  
DOCKED: BRANCH  12  15
DOCKED: ATOM     15  C   UNL     1     135.849  72.997 222.243 -0.08 -0.04    +0.163 C  
DOCKED: BRANCH  15  16
DOCKED: ATOM     16  O   UNL     1     137.172  73.483 222.174 -0.07 +0.12    -0.396 OA 
DOCKED: ATOM     17  H   UNL     1     137.455  73.805 223.077 -0.47 -0.13    +0.210 HD 
DOCKED: ENDBRANCH  15  16
DOCKED: ENDBRANCH  12  15
DOCKED: ENDBRANCH  10  12
DOCKED: ENDBRANCH   8  10
DOCKED: ENDBRANCH   7   8
DOCKED: ENDBRANCH   1   7
DOCKED: BRANCH   4  18
DOCKED: ATOM     18  C   UNL     1     141.461  78.277 222.144 -0.38 -0.03    +0.070 C  
DOCKED: BRANCH  18  19
DOCKED: ATOM     19  C   UNL     1     141.382  78.819 220.732 -0.32 -0.00    +0.008 C  
DOCKED: BRANCH  19  20
DOCKED: ATOM     20  C   UNL     1     141.171  77.611 219.814 -0.22 -0.00    +0.008 C  
DOCKED: BRANCH  20  21
DOCKED: ATOM     21  C   UNL     1     142.542  77.054 219.528 -0.31 -0.05    +0.070 C  
DOCKED: BRANCH  21  22
DOCKED: ATOM     22  C   UNL     1     142.578  75.660 220.061 -0.27 -0.06    +0.116 A  
DOCKED: ATOM     23  N   UNL     1     143.271  74.803 220.386 -0.27 +0.07    -0.167 NA 
DOCKED: ATOM     24  S   UNL     1     140.870  74.820 220.395 -0.24 +0.02    -0.080 S  
DOCKED: ATOM     25  N   UNL     1     143.037  73.617 220.842 -0.17 +0.05    -0.251 N  
DOCKED: ATOM     26  C   UNL     1     141.783  73.293 220.976 -0.18 -0.03    +0.208 A  
DOCKED: ATOM     27  H   UNL     1     143.826  72.936 221.098 +0.10 -0.03    +0.193 HD 
DOCKED: BRANCH  26  28
DOCKED: ATOM     28  N   UNL     1     141.142  72.240 221.383 -0.17 +0.02    -0.183 NA 
DOCKED: BRANCH  28  29
DOCKED: ATOM     29  C   UNL     1     140.289  72.355 222.548 -0.21 -0.03    +0.255 C  
DOCKED: ATOM     30  O   UNL     1     139.548  73.354 222.725 -0.61 +0.06    -0.272 OA 
DOCKED: BRANCH  29  31
DOCKED: ATOM     31  C   UNL     1     140.356  71.214 223.513 -0.29 -0.02    +0.123 C  
DOCKED: ATOM     32  C   UNL     1     139.066  70.425 223.510 -0.19 -0.05    +0.243 C  
DOCKED: ATOM     33  C   UNL     1     140.779  71.661 224.875 -0.33 -0.01    +0.056 C  
DOCKED: ATOM     34  O   UNL     1     139.241  69.327 224.386 -0.08 +0.08    -0.492 OA 
DOCKED: ATOM     35  C   UNL     1     140.345  70.739 225.952 -0.57 +0.00    -0.005 A  
DOCKED: ATOM     36  C   UNL     1     139.598  69.608 225.698 -0.37 -0.02    +0.122 A  
DOCKED: ATOM     37  C   UNL     1     140.728  71.066 227.243 -0.70 -0.00    +0.007 A  
DOCKED: ATOM     38  C   UNL     1     139.225  68.787 226.760 -0.45 -0.01    +0.047 A  
DOCKED: ATOM     39  C   UNL     1     140.347  70.238 228.279 -0.60 -0.00    +0.001 A  
DOCKED: ATOM     40  C   UNL     1     139.592  69.086 228.070 -0.59 -0.00    +0.004 A  
DOCKED: ENDBRANCH  29  31
DOCKED: ENDBRANCH  28  29
DOCKED: ENDBRANCH  26  28
DOCKED: ENDBRANCH  21  22
DOCKED: ENDBRANCH  20  21
DOCKED: ENDBRANCH  19  20
DOCKED: ENDBRANCH  18  19
DOCKED: ENDBRANCH   4  18
DOCKED: TORSDOF 14
DOCKED: TER
DOCKED: ENDMDL
________________________________________________________________________________


    CLUSTERING HISTOGRAM
    ____________________


________________________________________________________________________________
     |           |     |           |     |
Clus | Lowest    | Run | Mean      | Num | Histogram
-ter | Binding   |     | Binding   | in  |
Rank | Energy    |     | Energy    | Clus|    5    10   15   20   25   30   35
_____|___________|_____|___________|_____|____:____|____:____|____:____|____:___
   1 |     -7.42 |   7 |     -7.42 |   1 |#
   2 |     -7.18 |   1 |     -7.18 |   1 |#
   3 |     -6.87 |   6 |     -6.28 |   6 |######
   4 |     -6.85 |  19 |     -6.85 |   1 |#
   5 |     -6.15 |  11 |     -5.40 |   2 |##
   6 |     -5.68 |  15 |     -5.68 |   1 |#
   7 |     -5.35 |   5 |     -5.35 |   1 |#
   8 |     -5.27 |   4 |     -5.27 |   1 |#
   9 |     -4.99 |   8 |     -4.64 |   4 |####
  10 |     -4.95 |  14 |     -4.95 |   1 |#
  11 |     -4.08 |   2 |     -4.08 |   1 |#
_____|___________|_____|___________|_____|______________________________________


    RMSD TABLE
    __________


_______________________________________________________________________
     |      |      |           |         |                 |
Rank | Sub- | Run  | Binding   | Cluster | Reference       | Grep
     | Rank |      | Energy    | RMSD    | RMSD            | Pattern
_____|______|______|___________|_________|_________________|___________
   1      1      7       -7.42      0.00    270.02           RANKING
   2      1      1       -7.18      0.00    269.42           RANKING
   3      1      6       -6.87      0.00    269.68           RANKING
   3      2      3       -6.87      0.62    269.74           RANKING
   3      3     16       -6.51      0.64    269.67           RANKING
   3      4     20       -6.48      1.64    269.62           RANKING
   3      5     13       -6.35      0.74    269.67           RANKING
   3      6     18       -4.63      1.78    269.11           RANKING
   4      1     19       -6.85      0.00    269.53           RANKING
   5      1     11       -6.15      0.00    269.55           RANKING
   5      2     17       -4.65      1.46    269.58           RANKING
   6      1     15       -5.68      0.00    269.73           RANKING
   7      1      5       -5.35      0.00    268.48           RANKING
   8      1      4       -5.27      0.00    269.03           RANKING
   9      1      8       -4.99      0.00    269.45           RANKING
   9      2      9       -4.90      0.35    269.43           RANKING
   9      3     12       -4.83      0.46    269.44           RANKING
   9      4     10       -3.84      1.63    269.42           RANKING
  10      1     14       -4.95      0.00    269.00           RANKING
  11      1      2       -4.08      0.00    269.30           RANKING

Run time 3.455 sec
Idle time 0.000 sec
