AutoDock-GPU version: v1.6

**********************************************************
**    AutoDock-GPU AUTODOCKTOOLS-COMPATIBLE DLG FILE    **
**********************************************************


    DOCKING PARAMETERS
    ________________________


Ligand file:                               /home/a/REINVENT4/ReinventStudies/pleaseWork/justRnve/graph-dock-w0wspr/graph-DockGPU/node-autodockgpu/inputs/GHRBDJAYIWVDBG-FSLADKKKNA-N.pdbqt
Grid fld file:                             /home/a/REINVENT4/ReinventStudies/mols/Rad51/maps/rad51_receptor.maps.fld

Random seed:                               42
Number of runs:                            20
Number of energy evaluations:              5210753
Number of generations:                     42000
Size of population:                        150
Rate of crossover:                         80.000000%
Tournament selection probability limit:    60.000000%
Rate of mutation:                          2.000000%
Maximal allowed delta movement:            +/- 6.000000A
Maximal allowed delta angle:               +/- 90.000000

Rate of local search:                      100.000000%
Maximal number of local search iterations: 300
Rho lower bound:                           0.010000
Spread of local search delta movement:     2.000000A
Spread of local search delta angle:        74.999999
Limit of consecutive successes/failures:   4

Handle symmetry during clustering:         YES
RMSD tolerance:                            2.000000A

Program call in command line was:          /home/a/REINVENT4/ReinventStudies/adgpu-v1.6_linux_x64_cuda12_128wi --filelist batch.txt --heuristics 1 --nrun 20 --psize 150 --lsit 300 --seed 42 --heurmax 12000000 


    GRID PARAMETERS
    ________________________


Receptor name:                             rad51_receptor
Number of grid points (x, y, z):           53, 53, 53
Grid center (x, y, z):                     139.950000, 75.640000, 221.970000A
Grid size (x, y, z):                       19.500000, 19.500000, 19.500000A
Grid spacing:                              0.375000A


    LIGAND PARAMETERS
    ________________________


Ligand name:                               /home/a/REINVENT4/ReinventStudies/pleaseWork/justRnve/graph-dock-w0wspr/graph-DockGPU/node-autodockgpu/inputs/GHRBDJAYIWVDBG-FSLADKKKNA-N
Number of atoms:                           40
Number of rotatable bonds:                 14
Number of atom types:                      7


    DUMMY DATA (only for ADT-compatibility)
    ________________________


DPF> outlev 1
DPF> ga_run 20
DPF> fld /home/a/REINVENT4/ReinventStudies/mols/Rad51/maps/rad51_receptor.maps.fld
DPF> move /home/a/REINVENT4/ReinventStudies/pleaseWork/justRnve/graph-dock-w0wspr/graph-DockGPU/node-autodockgpu/inputs/GHRBDJAYIWVDBG-FSLADKKKNA-N.pdbqt


    COUNTER STATES
    ________________________


Number of energy evaluations performed:    5225781
Number of generations used:                301


    INPUT LIGAND PDBQT FILE:
    ________________________


INPUT-LIGAND-PDBQT: REMARK SMILES C[C@@H](C(=O)/N=c1/[nH]nc(CCCCc2n[nH]/c(=N/C(=O)[C@H]3COc4ccccc4C3)s2)s1)C(C)(C)CO
INPUT-LIGAND-PDBQT: REMARK SMILES IDX 6 1 7 2 8 3 9 4 32 5 5 7 3 8 4 9 2 10 1 11 33 12 34 13 35 14
INPUT-LIGAND-PDBQT: REMARK SMILES IDX 36 15 37 16 10 18 11 19 12 20 13 21 14 22 15 23 31 24 16 25
INPUT-LIGAND-PDBQT: REMARK SMILES IDX 17 26 18 28 19 29 20 30 21 31 22 32 30 33 23 34 29 35 24 36
INPUT-LIGAND-PDBQT: REMARK SMILES IDX 28 37 25 38 27 39 26 40
INPUT-LIGAND-PDBQT: REMARK H PARENT 7 6 37 17 16 27
INPUT-LIGAND-PDBQT: ROOT
INPUT-LIGAND-PDBQT: ATOM      1  C   UNL     1      -3.582   0.200  -0.912  1.00  0.00     0.208 A 
INPUT-LIGAND-PDBQT: ATOM      2  N   UNL     1      -2.347   0.371  -1.422  1.00  0.00    -0.251 N 
INPUT-LIGAND-PDBQT: ATOM      3  N   UNL     1      -1.587  -0.622  -1.145  1.00  0.00    -0.167 NA
INPUT-LIGAND-PDBQT: ATOM      4  C   UNL     1      -1.686  -1.600  -0.584  1.00  0.00     0.116 A 
INPUT-LIGAND-PDBQT: ATOM      5  S   UNL     1      -3.552  -1.423  -0.048  1.00  0.00    -0.080 S 
INPUT-LIGAND-PDBQT: ATOM      6  H   UNL     1      -2.095   1.223  -1.967  1.00  0.00     0.193 HD
INPUT-LIGAND-PDBQT: ENDROOT
INPUT-LIGAND-PDBQT: BRANCH   1   7
INPUT-LIGAND-PDBQT: ATOM      7  N   UNL     1      -4.688   0.982  -0.959  1.00  0.00    -0.184 NA
INPUT-LIGAND-PDBQT: BRANCH   7   8
INPUT-LIGAND-PDBQT: ATOM      8  C   UNL     1      -5.812   0.434  -0.283  1.00  0.00     0.251 C 
INPUT-LIGAND-PDBQT: ATOM      9  O   UNL     1      -5.625  -0.215   0.797  1.00  0.00    -0.272 OA
INPUT-LIGAND-PDBQT: BRANCH   8  10
INPUT-LIGAND-PDBQT: ATOM     10  C   UNL     1      -7.163   0.639  -0.864  1.00  0.00     0.086 C 
INPUT-LIGAND-PDBQT: ATOM     11  C   UNL     1      -7.480   2.104  -0.960  1.00  0.00     0.019 C 
INPUT-LIGAND-PDBQT: BRANCH  10  12
INPUT-LIGAND-PDBQT: ATOM     12  C   UNL     1      -8.190  -0.089  -0.029  1.00  0.00    -0.001 C 
INPUT-LIGAND-PDBQT: ATOM     13  C   UNL     1      -8.220   0.480   1.360  1.00  0.00     0.014 C 
INPUT-LIGAND-PDBQT: ATOM     14  C   UNL     1      -7.908  -1.567   0.048  1.00  0.00     0.014 C 
INPUT-LIGAND-PDBQT: BRANCH  12  15
INPUT-LIGAND-PDBQT: ATOM     15  C   UNL     1      -9.560   0.054  -0.684  1.00  0.00     0.163 C 
INPUT-LIGAND-PDBQT: BRANCH  15  16
INPUT-LIGAND-PDBQT: ATOM     16  O   UNL     1      -9.868   1.390  -0.754  1.00  0.00    -0.396 OA
INPUT-LIGAND-PDBQT: ATOM     17  H   UNL     1     -10.796   1.544  -0.412  1.00  0.00     0.210 HD
INPUT-LIGAND-PDBQT: ENDBRANCH  15  16
INPUT-LIGAND-PDBQT: ENDBRANCH  12  15
INPUT-LIGAND-PDBQT: ENDBRANCH  10  12
INPUT-LIGAND-PDBQT: ENDBRANCH   8  10
INPUT-LIGAND-PDBQT: ENDBRANCH   7   8
INPUT-LIGAND-PDBQT: ENDBRANCH   1   7
INPUT-LIGAND-PDBQT: BRANCH   4  18
INPUT-LIGAND-PDBQT: ATOM     18  C   UNL     1      -1.167  -2.904  -0.043  1.00  0.00     0.070 C 
INPUT-LIGAND-PDBQT: BRANCH  18  19
INPUT-LIGAND-PDBQT: ATOM     19  C   UNL     1      -0.615  -2.861   1.324  1.00  0.00     0.008 C 
INPUT-LIGAND-PDBQT: BRANCH  19  20
INPUT-LIGAND-PDBQT: ATOM     20  C   UNL     1       0.606  -2.072   1.584  1.00  0.00     0.008 C 
INPUT-LIGAND-PDBQT: BRANCH  20  21
INPUT-LIGAND-PDBQT: ATOM     21  C   UNL     1       0.620  -0.619   1.313  1.00  0.00     0.070 C 
INPUT-LIGAND-PDBQT: BRANCH  21  22
INPUT-LIGAND-PDBQT: ATOM     22  C   UNL     1       1.966  -0.115   1.759  1.00  0.00     0.116 A 
INPUT-LIGAND-PDBQT: ATOM     23  N   UNL     1       2.441   0.333   2.811  1.00  0.00    -0.167 NA
INPUT-LIGAND-PDBQT: ATOM     24  S   UNL     1       3.409  -0.056   0.640  1.00  0.00    -0.080 S 
INPUT-LIGAND-PDBQT: ATOM     25  N   UNL     1       3.646   0.723   3.010  1.00  0.00    -0.251 N 
INPUT-LIGAND-PDBQT: ATOM     26  C   UNL     1       4.504   0.658   2.014  1.00  0.00     0.208 A 
INPUT-LIGAND-PDBQT: ATOM     27  H   UNL     1       3.961   1.100   3.973  1.00  0.00     0.193 HD
INPUT-LIGAND-PDBQT: BRANCH  26  28
INPUT-LIGAND-PDBQT: ATOM     28  N   UNL     1       5.707   0.926   1.808  1.00  0.00    -0.183 NA
INPUT-LIGAND-PDBQT: BRANCH  28  29
INPUT-LIGAND-PDBQT: ATOM     29  C   UNL     1       6.274   0.695   0.524  1.00  0.00     0.255 C 
INPUT-LIGAND-PDBQT: ATOM     30  O   UNL     1       6.595  -0.476   0.196  1.00  0.00    -0.272 OA
INPUT-LIGAND-PDBQT: BRANCH  29  31
INPUT-LIGAND-PDBQT: ATOM     31  C   UNL     1       6.472   1.864  -0.400  1.00  0.00     0.123 C 
INPUT-LIGAND-PDBQT: ATOM     32  C   UNL     1       7.402   2.860   0.275  1.00  0.00     0.243 C 
INPUT-LIGAND-PDBQT: ATOM     33  C   UNL     1       7.197   1.390  -1.646  1.00  0.00     0.056 C 
INPUT-LIGAND-PDBQT: ATOM     34  O   UNL     1       8.558   2.144   0.676  1.00  0.00    -0.492 OA
INPUT-LIGAND-PDBQT: ATOM     35  C   UNL     1       8.393   0.609  -1.169  1.00  0.00    -0.005 A 
INPUT-LIGAND-PDBQT: ATOM     36  C   UNL     1       9.030   1.029  -0.009  1.00  0.00     0.122 A 
INPUT-LIGAND-PDBQT: ATOM     37  C   UNL     1       8.847  -0.504  -1.873  1.00  0.00     0.007 A 
INPUT-LIGAND-PDBQT: ATOM     38  C   UNL     1      10.138   0.329   0.457  1.00  0.00     0.047 A 
INPUT-LIGAND-PDBQT: ATOM     39  C   UNL     1       9.961  -1.202  -1.398  1.00  0.00     0.001 A 
INPUT-LIGAND-PDBQT: ATOM     40  C   UNL     1      10.610  -0.791  -0.234  1.00  0.00     0.004 A 
INPUT-LIGAND-PDBQT: ENDBRANCH  29  31
INPUT-LIGAND-PDBQT: ENDBRANCH  28  29
INPUT-LIGAND-PDBQT: ENDBRANCH  26  28
INPUT-LIGAND-PDBQT: ENDBRANCH  21  22
INPUT-LIGAND-PDBQT: ENDBRANCH  20  21
INPUT-LIGAND-PDBQT: ENDBRANCH  19  20
INPUT-LIGAND-PDBQT: ENDBRANCH  18  19
INPUT-LIGAND-PDBQT: ENDBRANCH   4  18
INPUT-LIGAND-PDBQT: TORSDOF 14


    FINAL DOCKED STATE:
    ________________________


Run:   1 / 20
Time taken for this run:   0.356s

DOCKED: MODEL        1
DOCKED: USER    Run = 1
DOCKED: USER
DOCKED: USER    Estimated Free Energy of Binding    =  -7.14 kcal/mol  [=(1)+(2)+(3)-(4)]
DOCKED: USER
DOCKED: USER    (1) Final Intermolecular Energy     = -11.32 kcal/mol
DOCKED: USER        vdW + Hbond + desolv Energy     = -11.19 kcal/mol
DOCKED: USER        Electrostatic Energy            =  -0.13 kcal/mol
DOCKED: USER        Moving Ligand-Fixed Receptor    = -11.32 kcal/mol
DOCKED: USER        Moving Ligand-Moving Receptor   =  +0.00 kcal/mol
DOCKED: USER    (2) Final Total Internal Energy     =  -5.75 kcal/mol
DOCKED: USER    (3) Torsional Free Energy           =  +4.18 kcal/mol
DOCKED: USER    (4) Unbound System's Energy         =  -5.75 kcal/mol
DOCKED: USER
DOCKED: USER
DOCKED: REMARK SMILES C[C@@H](C(=O)/N=c1/[nH]nc(CCCCc2n[nH]/c(=N/C(=O)[C@H]3COc4ccccc4C3)s2)s1)C(C)(C)CO
DOCKED: REMARK SMILES IDX 6 1 7 2 8 3 9 4 32 5 5 7 3 8 4 9 2 10 1 11 33 12 34 13 35 14
DOCKED: REMARK SMILES IDX 36 15 37 16 10 18 11 19 12 20 13 21 14 22 15 23 31 24 16 25
DOCKED: REMARK SMILES IDX 17 26 18 28 19 29 20 30 21 31 22 32 30 33 23 34 29 35 24 36
DOCKED: REMARK SMILES IDX 28 37 25 38 27 39 26 40
DOCKED: REMARK H PARENT 7 6 37 17 16 27
DOCKED: USER                              x       y       z     vdW  Elec       q    Type
DOCKED: USER                           _______ _______ _______ _____ _____    ______ ____
DOCKED: ROOT
DOCKED: ATOM      1  C   UNL     1     135.770  75.664 223.932 -0.22 -0.04    +0.208 A  
DOCKED: ATOM      2  N   UNL     1     135.814  74.492 224.595 -0.17 +0.06    -0.251 N  
DOCKED: ATOM      3  N   UNL     1     134.933  74.448 225.523 -0.30 +0.00    -0.167 NA 
DOCKED: ATOM      4  C   UNL     1     134.132  75.137 225.928 -0.33 -0.00    +0.116 A  
DOCKED: ATOM      5  S   UNL     1     134.424  76.639 224.720 -0.24 +0.01    -0.080 S  
DOCKED: ATOM      6  H   UNL     1     136.499  73.748 224.342 -0.48 -0.11    +0.193 HD 
DOCKED: ENDROOT
DOCKED: BRANCH   1   7
DOCKED: ATOM      7  N   UNL     1     136.503  76.136 222.895 -0.18 +0.04    -0.184 NA 
DOCKED: BRANCH   7   8
DOCKED: ATOM      8  C   UNL     1     137.559  75.274 222.494 -0.01 -0.08    +0.251 C  
DOCKED: ATOM      9  O   UNL     1     137.303  74.045 222.281 -0.12 +0.09    -0.272 OA 
DOCKED: BRANCH   8  10
DOCKED: ATOM     10  C   UNL     1     138.923  75.841 222.341 -0.28 -0.02    +0.086 C  
DOCKED: ATOM     11  C   UNL     1     138.867  77.340 222.263 -0.29 -0.00    +0.019 C  
DOCKED: BRANCH  10  12
DOCKED: ATOM     12  C   UNL     1     139.581  75.254 221.114 -0.24 +0.00    -0.001 C  
DOCKED: ATOM     13  C   UNL     1     140.862  75.980 220.821 -0.28 -0.00    +0.014 C  
DOCKED: ATOM     14  C   UNL     1     138.684  75.324 219.906 -0.06 -0.00    +0.014 C  
DOCKED: BRANCH  12  15
DOCKED: ATOM     15  C   UNL     1     139.861  73.774 221.356 -0.20 -0.03    +0.163 C  
DOCKED: BRANCH  15  16
DOCKED: ATOM     16  O   UNL     1     139.948  73.567 222.710 -0.68 +0.01    -0.396 OA 
DOCKED: ATOM     17  H   UNL     1     139.122  73.105 223.038 -0.42 -0.09    +0.210 HD 
DOCKED: ENDBRANCH  15  16
DOCKED: ENDBRANCH  12  15
DOCKED: ENDBRANCH  10  12
DOCKED: ENDBRANCH   8  10
DOCKED: ENDBRANCH   7   8
DOCKED: ENDBRANCH   1   7
DOCKED: BRANCH   4  18
DOCKED: ATOM     18  C   UNL     1     133.016  75.504 226.867 -0.35 +0.00    +0.070 C  
DOCKED: BRANCH  18  19
DOCKED: ATOM     19  C   UNL     1     132.378  74.382 227.580 -0.40 -0.00    +0.008 C  
DOCKED: BRANCH  19  20
DOCKED: ATOM     20  C   UNL     1     131.636  73.365 226.807 -0.35 -0.00    +0.008 C  
DOCKED: BRANCH  20  21
DOCKED: ATOM     21  C   UNL     1     131.948  71.931 226.980 -0.33 -0.01    +0.070 C  
DOCKED: BRANCH  21  22
DOCKED: ATOM     22  C   UNL     1     133.162  71.654 226.134 -0.26 -0.01    +0.116 A  
DOCKED: ATOM     23  N   UNL     1     133.665  72.148 225.117 -0.12 +0.01    -0.167 NA 
DOCKED: ATOM     24  S   UNL     1     134.328  70.298 226.510 -0.41 +0.00    -0.080 S  
DOCKED: ATOM     25  N   UNL     1     134.735  71.768 224.521 -0.10 +0.03    -0.251 N  
DOCKED: ATOM     26  C   UNL     1     135.400  70.743 225.010 -0.06 -0.02    +0.208 A  
DOCKED: ATOM     27  H   UNL     1     135.092  72.272 223.634 +0.05 -0.03    +0.193 HD 
DOCKED: BRANCH  26  28
DOCKED: ATOM     28  N   UNL     1     136.434  70.094 224.740 -0.13 +0.02    -0.183 NA 
DOCKED: BRANCH  28  29
DOCKED: ATOM     29  C   UNL     1     137.406  70.646 223.860 -0.15 -0.05    +0.255 C  
DOCKED: ATOM     30  O   UNL     1     137.447  71.892 223.693 -0.12 +0.09    -0.272 OA 
DOCKED: BRANCH  29  31
DOCKED: ATOM     31  C   UNL     1     138.353  69.716 223.154 -0.19 -0.02    +0.123 C  
DOCKED: ATOM     32  C   UNL     1     139.538  70.525 222.652 -0.14 -0.04    +0.243 C  
DOCKED: ATOM     33  C   UNL     1     138.914  68.728 224.160 -0.31 -0.01    +0.056 C  
DOCKED: ATOM     34  O   UNL     1     140.044  71.253 223.758 -0.16 +0.08    -0.492 OA 
DOCKED: ATOM     35  C   UNL     1     139.405  69.544 225.327 -0.42 +0.00    -0.005 A  
DOCKED: ATOM     36  C   UNL     1     139.957  70.792 225.068 -0.41 -0.02    +0.122 A  
DOCKED: ATOM     37  C   UNL     1     139.308  69.060 226.629 -0.50 -0.00    +0.007 A  
DOCKED: ATOM     38  C   UNL     1     140.420  71.569 226.124 -0.53 -0.01    +0.047 A  
DOCKED: ATOM     39  C   UNL     1     139.776  69.848 227.685 -0.60 -0.00    +0.001 A  
DOCKED: ATOM     40  C   UNL     1     140.332  71.103 227.439 -0.68 -0.00    +0.004 A  
DOCKED: ENDBRANCH  29  31
DOCKED: ENDBRANCH  28  29
DOCKED: ENDBRANCH  26  28
DOCKED: ENDBRANCH  21  22
DOCKED: ENDBRANCH  20  21
DOCKED: ENDBRANCH  19  20
DOCKED: ENDBRANCH  18  19
DOCKED: ENDBRANCH   4  18
DOCKED: TORSDOF 14
DOCKED: TER
DOCKED: ENDMDL
________________________________________________________________________________


    FINAL DOCKED STATE:
    ________________________


Run:   2 / 20
Time taken for this run:   0.356s

DOCKED: MODEL        2
DOCKED: USER    Run = 2
DOCKED: USER
DOCKED: USER    Estimated Free Energy of Binding    =  -4.55 kcal/mol  [=(1)+(2)+(3)-(4)]
DOCKED: USER
DOCKED: USER    (1) Final Intermolecular Energy     =  -8.73 kcal/mol
DOCKED: USER        vdW + Hbond + desolv Energy     =  -8.68 kcal/mol
DOCKED: USER        Electrostatic Energy            =  -0.05 kcal/mol
DOCKED: USER        Moving Ligand-Fixed Receptor    =  -8.73 kcal/mol
DOCKED: USER        Moving Ligand-Moving Receptor   =  +0.00 kcal/mol
DOCKED: USER    (2) Final Total Internal Energy     =  -7.20 kcal/mol
DOCKED: USER    (3) Torsional Free Energy           =  +4.18 kcal/mol
DOCKED: USER    (4) Unbound System's Energy         =  -7.20 kcal/mol
DOCKED: USER
DOCKED: USER
DOCKED: REMARK SMILES C[C@@H](C(=O)/N=c1/[nH]nc(CCCCc2n[nH]/c(=N/C(=O)[C@H]3COc4ccccc4C3)s2)s1)C(C)(C)CO
DOCKED: REMARK SMILES IDX 6 1 7 2 8 3 9 4 32 5 5 7 3 8 4 9 2 10 1 11 33 12 34 13 35 14
DOCKED: REMARK SMILES IDX 36 15 37 16 10 18 11 19 12 20 13 21 14 22 15 23 31 24 16 25
DOCKED: REMARK SMILES IDX 17 26 18 28 19 29 20 30 21 31 22 32 30 33 23 34 29 35 24 36
DOCKED: REMARK SMILES IDX 28 37 25 38 27 39 26 40
DOCKED: REMARK H PARENT 7 6 37 17 16 27
DOCKED: USER                              x       y       z     vdW  Elec       q    Type
DOCKED: USER                           _______ _______ _______ _____ _____    ______ ____
DOCKED: ROOT
DOCKED: ATOM      1  C   UNL     1     138.812  75.481 221.282 -0.15 -0.05    +0.208 A  
DOCKED: ATOM      2  N   UNL     1     139.474  74.984 222.344 -0.17 +0.04    -0.251 N  
DOCKED: ATOM      3  N   UNL     1     140.401  74.179 221.980 -0.80 +0.01    -0.167 NA 
DOCKED: ATOM      4  C   UNL     1     140.804  73.780 221.000 -0.21 -0.02    +0.116 A  
DOCKED: ATOM      5  S   UNL     1     139.598  74.730 219.799 -0.09 +0.02    -0.080 S  
DOCKED: ATOM      6  H   UNL     1     139.223  75.254 223.319 -0.45 -0.04    +0.193 HD 
DOCKED: ENDROOT
DOCKED: BRANCH   1   7
DOCKED: ATOM      7  N   UNL     1     137.777  76.352 221.198 -0.07 +0.04    -0.184 NA 
DOCKED: BRANCH   7   8
DOCKED: ATOM      8  C   UNL     1     137.476  77.012 222.421 -0.17 -0.05    +0.251 C  
DOCKED: ATOM      9  O   UNL     1     138.332  77.817 222.912 -0.20 +0.04    -0.272 OA 
DOCKED: BRANCH   8  10
DOCKED: ATOM     10  C   UNL     1     136.174  76.735 223.079 -0.20 -0.01    +0.086 C  
DOCKED: ATOM     11  C   UNL     1     135.658  75.382 222.680 -0.17 -0.00    +0.019 C  
DOCKED: BRANCH  10  12
DOCKED: ATOM     12  C   UNL     1     135.187  77.823 222.726 -0.13 +0.00    -0.001 C  
DOCKED: ATOM     13  C   UNL     1     133.784  77.329 222.932 -0.08 -0.00    +0.014 C  
DOCKED: ATOM     14  C   UNL     1     135.344  78.287 221.302 -0.05 -0.00    +0.014 C  
DOCKED: BRANCH  12  15
DOCKED: ATOM     15  C   UNL     1     135.448  79.041 223.607 -0.11 -0.02    +0.163 C  
DOCKED: BRANCH  15  16
DOCKED: ATOM     16  O   UNL     1     136.203  79.936 222.891 -0.05 +0.05    -0.396 OA 
DOCKED: ATOM     17  H   UNL     1     137.152  79.620 222.842 +0.06 -0.03    +0.210 HD 
DOCKED: ENDBRANCH  15  16
DOCKED: ENDBRANCH  12  15
DOCKED: ENDBRANCH  10  12
DOCKED: ENDBRANCH   8  10
DOCKED: ENDBRANCH   7   8
DOCKED: ENDBRANCH   1   7
DOCKED: BRANCH   4  18
DOCKED: ATOM     18  C   UNL     1     141.726  72.936 220.164 -0.16 -0.01    +0.070 C  
DOCKED: BRANCH  18  19
DOCKED: ATOM     19  C   UNL     1     143.044  73.526 219.861 -0.26 -0.00    +0.008 C  
DOCKED: BRANCH  19  20
DOCKED: ATOM     20  C   UNL     1     143.350  74.890 220.337 -0.33 -0.00    +0.008 C  
DOCKED: BRANCH  20  21
DOCKED: ATOM     21  C   UNL     1     143.470  76.001 219.371 -0.34 -0.04    +0.070 C  
DOCKED: BRANCH  21  22
DOCKED: ATOM     22  C   UNL     1     142.330  76.941 219.657 -0.28 -0.07    +0.116 A  
DOCKED: ATOM     23  N   UNL     1     141.324  76.920 220.378 -0.17 +0.08    -0.167 NA 
DOCKED: ATOM     24  S   UNL     1     142.185  78.577 218.856 -0.33 +0.06    -0.080 S  
DOCKED: ATOM     25  N   UNL     1     140.439  77.840 220.496 -0.08 +0.09    -0.251 N  
DOCKED: ATOM     26  C   UNL     1     140.576  78.943 219.791 -0.10 -0.08    +0.208 A  
DOCKED: ATOM     27  H   UNL     1     139.593  77.722 221.158 +0.07 -0.05    +0.193 HD 
DOCKED: BRANCH  26  28
DOCKED: ATOM     28  N   UNL     1     139.965  80.021 219.627 -0.05 +0.06    -0.183 NA 
DOCKED: BRANCH  28  29
DOCKED: ATOM     29  C   UNL     1     138.991  80.434 220.578 -0.05 -0.06    +0.255 C  
DOCKED: ATOM     30  O   UNL     1     138.109  79.616 220.948 -0.03 +0.05    -0.272 OA 
DOCKED: BRANCH  29  31
DOCKED: ATOM     31  C   UNL     1     139.048  81.839 221.108 -0.13 -0.02    +0.123 C  
DOCKED: ATOM     32  C   UNL     1     138.308  81.884 222.436 -0.12 -0.03    +0.243 C  
DOCKED: ATOM     33  C   UNL     1     140.491  82.190 221.419 -0.29 -0.01    +0.056 C  
DOCKED: ATOM     34  O   UNL     1     138.851  80.858 223.250 -0.09 +0.06    -0.492 OA 
DOCKED: ATOM     35  C   UNL     1     141.032  81.059 222.253 -0.41 +0.00    -0.005 A  
DOCKED: ATOM     36  C   UNL     1     140.172  80.433 223.146 -0.34 -0.02    +0.122 A  
DOCKED: ATOM     37  C   UNL     1     142.358  80.652 222.132 -0.51 -0.00    +0.007 A  
DOCKED: ATOM     38  C   UNL     1     140.642  79.385 223.931 -0.44 -0.01    +0.047 A  
DOCKED: ATOM     39  C   UNL     1     142.823  79.598 222.924 -0.60 -0.00    +0.001 A  
DOCKED: ATOM     40  C   UNL     1     141.970  78.961 223.824 -0.59 -0.00    +0.004 A  
DOCKED: ENDBRANCH  29  31
DOCKED: ENDBRANCH  28  29
DOCKED: ENDBRANCH  26  28
DOCKED: ENDBRANCH  21  22
DOCKED: ENDBRANCH  20  21
DOCKED: ENDBRANCH  19  20
DOCKED: ENDBRANCH  18  19
DOCKED: ENDBRANCH   4  18
DOCKED: TORSDOF 14
DOCKED: TER
DOCKED: ENDMDL
________________________________________________________________________________


    FINAL DOCKED STATE:
    ________________________


Run:   3 / 20
Time taken for this run:   0.356s

DOCKED: MODEL        3
DOCKED: USER    Run = 3
DOCKED: USER
DOCKED: USER    Estimated Free Energy of Binding    =  -4.70 kcal/mol  [=(1)+(2)+(3)-(4)]
DOCKED: USER
DOCKED: USER    (1) Final Intermolecular Energy     =  -8.87 kcal/mol
DOCKED: USER        vdW + Hbond + desolv Energy     =  -8.86 kcal/mol
DOCKED: USER        Electrostatic Energy            =  -0.02 kcal/mol
DOCKED: USER        Moving Ligand-Fixed Receptor    =  -8.87 kcal/mol
DOCKED: USER        Moving Ligand-Moving Receptor   =  +0.00 kcal/mol
DOCKED: USER    (2) Final Total Internal Energy     =  -7.27 kcal/mol
DOCKED: USER    (3) Torsional Free Energy           =  +4.18 kcal/mol
DOCKED: USER    (4) Unbound System's Energy         =  -7.27 kcal/mol
DOCKED: USER
DOCKED: USER
DOCKED: REMARK SMILES C[C@@H](C(=O)/N=c1/[nH]nc(CCCCc2n[nH]/c(=N/C(=O)[C@H]3COc4ccccc4C3)s2)s1)C(C)(C)CO
DOCKED: REMARK SMILES IDX 6 1 7 2 8 3 9 4 32 5 5 7 3 8 4 9 2 10 1 11 33 12 34 13 35 14
DOCKED: REMARK SMILES IDX 36 15 37 16 10 18 11 19 12 20 13 21 14 22 15 23 31 24 16 25
DOCKED: REMARK SMILES IDX 17 26 18 28 19 29 20 30 21 31 22 32 30 33 23 34 29 35 24 36
DOCKED: REMARK SMILES IDX 28 37 25 38 27 39 26 40
DOCKED: REMARK H PARENT 7 6 37 17 16 27
DOCKED: USER                              x       y       z     vdW  Elec       q    Type
DOCKED: USER                           _______ _______ _______ _____ _____    ______ ____
DOCKED: ROOT
DOCKED: ATOM      1  C   UNL     1     142.926  76.872 218.049 -0.22 -0.13    +0.208 A  
DOCKED: ATOM      2  N   UNL     1     143.190  77.116 219.347 -0.20 +0.19    -0.251 N  
DOCKED: ATOM      3  N   UNL     1     143.590  76.057 219.948 -0.28 +0.12    -0.167 NA 
DOCKED: ATOM      4  C   UNL     1     143.776  74.976 219.670 -0.33 -0.06    +0.116 A  
DOCKED: ATOM      5  S   UNL     1     143.284  75.087 217.787 -0.22 +0.03    -0.080 S  
DOCKED: ATOM      6  H   UNL     1     143.068  78.065 219.760 -0.38 -0.20    +0.193 HD 
DOCKED: ENDROOT
DOCKED: BRANCH   1   7
DOCKED: ATOM      7  N   UNL     1     142.489  77.683 217.055 -0.17 +0.14    -0.184 NA 
DOCKED: BRANCH   7   8
DOCKED: ATOM      8  C   UNL     1     141.335  78.440 217.394 -0.09 -0.14    +0.251 C  
DOCKED: ATOM      9  O   UNL     1     140.476  77.934 218.188 -0.03 +0.11    -0.272 OA 
DOCKED: BRANCH   8  10
DOCKED: ATOM     10  C   UNL     1     141.174  79.795 216.808 -0.11 -0.05    +0.086 C  
DOCKED: ATOM     11  C   UNL     1     141.864  79.880 215.476 -0.11 -0.02    +0.019 C  
DOCKED: BRANCH  10  12
DOCKED: ATOM     12  C   UNL     1     141.709  80.831 217.768 -0.24 +0.00    -0.001 C  
DOCKED: ATOM     13  C   UNL     1     140.573  81.562 218.422 -0.13 -0.01    +0.014 C  
DOCKED: ATOM     14  C   UNL     1     142.607  81.826 217.080 -0.29 -0.01    +0.014 C  
DOCKED: BRANCH  12  15
DOCKED: ATOM     15  C   UNL     1     142.564  80.138 218.825 -0.14 -0.12    +0.163 C  
DOCKED: BRANCH  15  16
DOCKED: ATOM     16  O   UNL     1     141.742  79.725 219.843 -0.14 +0.21    -0.396 OA 
DOCKED: ATOM     17  H   UNL     1     140.838  79.495 219.479 +0.07 -0.09    +0.210 HD 
DOCKED: ENDBRANCH  15  16
DOCKED: ENDBRANCH  12  15
DOCKED: ENDBRANCH  10  12
DOCKED: ENDBRANCH   8  10
DOCKED: ENDBRANCH   7   8
DOCKED: ENDBRANCH   1   7
DOCKED: BRANCH   4  18
DOCKED: ATOM     18  C   UNL     1     144.172  73.556 219.965 -0.36 -0.01    +0.070 C  
DOCKED: BRANCH  18  19
DOCKED: ATOM     19  C   UNL     1     143.124  72.703 220.556 -0.29 -0.00    +0.008 C  
DOCKED: BRANCH  19  20
DOCKED: ATOM     20  C   UNL     1     141.720  73.159 220.522 -0.22 -0.00    +0.008 C  
DOCKED: BRANCH  20  21
DOCKED: ATOM     21  C   UNL     1     141.033  73.534 221.776 -0.19 -0.00    +0.070 C  
DOCKED: BRANCH  21  22
DOCKED: ATOM     22  C   UNL     1     140.516  74.933 221.577 -0.29 -0.02    +0.116 A  
DOCKED: ATOM     23  N   UNL     1     140.889  75.937 220.956 -0.20 +0.06    -0.167 NA 
DOCKED: ATOM     24  S   UNL     1     138.969  75.524 222.350 -0.31 +0.02    -0.080 S  
DOCKED: ATOM     25  N   UNL     1     140.301  77.075 220.901 -0.10 +0.08    -0.251 N  
DOCKED: ATOM     26  C   UNL     1     139.176  77.237 221.563 -0.15 -0.05    +0.208 A  
DOCKED: ATOM     27  H   UNL     1     140.713  77.891 220.324 +0.08 -0.08    +0.193 HD 
DOCKED: BRANCH  26  28
DOCKED: ATOM     28  N   UNL     1     138.337  78.143 221.759 -0.11 +0.04    -0.183 NA 
DOCKED: BRANCH  28  29
DOCKED: ATOM     29  C   UNL     1     138.632  79.478 221.364 -0.07 -0.05    +0.255 C  
DOCKED: ATOM     30  O   UNL     1     139.265  79.677 220.295 -0.04 +0.07    -0.272 OA 
DOCKED: BRANCH  29  31
DOCKED: ATOM     31  C   UNL     1     138.177  80.609 222.243 -0.16 -0.02    +0.123 C  
DOCKED: ATOM     32  C   UNL     1     137.964  80.071 223.649 -0.21 -0.03    +0.243 C  
DOCKED: ATOM     33  C   UNL     1     139.294  81.631 222.349 -0.23 -0.01    +0.056 C  
DOCKED: ATOM     34  O   UNL     1     139.153  79.395 224.021 -0.15 +0.06    -0.492 OA 
DOCKED: ATOM     35  C   UNL     1     140.538  80.863 222.711 -0.40 +0.00    -0.005 A  
DOCKED: ATOM     36  C   UNL     1     140.409  79.760 223.545 -0.40 -0.02    +0.122 A  
DOCKED: ATOM     37  C   UNL     1     141.784  81.248 222.221 -0.49 -0.00    +0.007 A  
DOCKED: ATOM     38  C   UNL     1     141.539  79.031 223.898 -0.57 -0.01    +0.047 A  
DOCKED: ATOM     39  C   UNL     1     142.915  80.510 222.581 -0.58 -0.00    +0.001 A  
DOCKED: ATOM     40  C   UNL     1     142.799  79.400 223.418 -0.42 -0.00    +0.004 A  
DOCKED: ENDBRANCH  29  31
DOCKED: ENDBRANCH  28  29
DOCKED: ENDBRANCH  26  28
DOCKED: ENDBRANCH  21  22
DOCKED: ENDBRANCH  20  21
DOCKED: ENDBRANCH  19  20
DOCKED: ENDBRANCH  18  19
DOCKED: ENDBRANCH   4  18
DOCKED: TORSDOF 14
DOCKED: TER
DOCKED: ENDMDL
________________________________________________________________________________


    FINAL DOCKED STATE:
    ________________________


Run:   4 / 20
Time taken for this run:   0.356s

DOCKED: MODEL        4
DOCKED: USER    Run = 4
DOCKED: USER
DOCKED: USER    Estimated Free Energy of Binding    =  -4.75 kcal/mol  [=(1)+(2)+(3)-(4)]
DOCKED: USER
DOCKED: USER    (1) Final Intermolecular Energy     =  -8.92 kcal/mol
DOCKED: USER        vdW + Hbond + desolv Energy     =  -8.72 kcal/mol
DOCKED: USER        Electrostatic Energy            =  -0.20 kcal/mol
DOCKED: USER        Moving Ligand-Fixed Receptor    =  -8.92 kcal/mol
DOCKED: USER        Moving Ligand-Moving Receptor   =  +0.00 kcal/mol
DOCKED: USER    (2) Final Total Internal Energy     =  -7.42 kcal/mol
DOCKED: USER    (3) Torsional Free Energy           =  +4.18 kcal/mol
DOCKED: USER    (4) Unbound System's Energy         =  -7.42 kcal/mol
DOCKED: USER
DOCKED: USER
DOCKED: REMARK SMILES C[C@@H](C(=O)/N=c1/[nH]nc(CCCCc2n[nH]/c(=N/C(=O)[C@H]3COc4ccccc4C3)s2)s1)C(C)(C)CO
DOCKED: REMARK SMILES IDX 6 1 7 2 8 3 9 4 32 5 5 7 3 8 4 9 2 10 1 11 33 12 34 13 35 14
DOCKED: REMARK SMILES IDX 36 15 37 16 10 18 11 19 12 20 13 21 14 22 15 23 31 24 16 25
DOCKED: REMARK SMILES IDX 17 26 18 28 19 29 20 30 21 31 22 32 30 33 23 34 29 35 24 36
DOCKED: REMARK SMILES IDX 28 37 25 38 27 39 26 40
DOCKED: REMARK H PARENT 7 6 37 17 16 27
DOCKED: USER                              x       y       z     vdW  Elec       q    Type
DOCKED: USER                           _______ _______ _______ _____ _____    ______ ____
DOCKED: ROOT
DOCKED: ATOM      1  C   UNL     1     138.962  77.327 221.540 -0.14 -0.05    +0.208 A  
DOCKED: ATOM      2  N   UNL     1     139.379  76.512 220.552 -0.05 +0.06    -0.251 N  
DOCKED: ATOM      3  N   UNL     1     138.760  75.391 220.580 -0.07 +0.04    -0.167 NA 
DOCKED: ATOM      4  C   UNL     1     137.958  74.912 221.220 -0.12 -0.03    +0.116 A  
DOCKED: ATOM      5  S   UNL     1     137.675  76.389 222.460 -0.31 +0.02    -0.080 S  
DOCKED: ATOM      6  H   UNL     1     140.115  76.807 219.876 +0.05 -0.06    +0.193 HD 
DOCKED: ENDROOT
DOCKED: BRANCH   1   7
DOCKED: ATOM      7  N   UNL     1     139.334  78.584 221.883 -0.13 +0.04    -0.184 NA 
DOCKED: BRANCH   7   8
DOCKED: ATOM      8  C   UNL     1     140.350  78.636 222.876 -0.28 -0.06    +0.251 C  
DOCKED: ATOM      9  O   UNL     1     141.112  77.627 223.030 -0.35 +0.10    -0.272 OA 
DOCKED: BRANCH   8  10
DOCKED: ATOM     10  C   UNL     1     140.481  79.866 223.698 -0.41 -0.01    +0.086 C  
DOCKED: ATOM     11  C   UNL     1     139.142  80.516 223.894 -0.39 -0.00    +0.019 C  
DOCKED: BRANCH  10  12
DOCKED: ATOM     12  C   UNL     1     141.458  80.812 223.041 -0.55 +0.00    -0.001 C  
DOCKED: ATOM     13  C   UNL     1     142.395  81.379 224.068 -0.56 -0.00    +0.014 C  
DOCKED: ATOM     14  C   UNL     1     140.757  81.944 222.334 -0.34 -0.00    +0.014 C  
DOCKED: BRANCH  12  15
DOCKED: ATOM     15  C   UNL     1     142.244  80.059 221.973 -0.39 -0.07    +0.163 C  
DOCKED: BRANCH  15  16
DOCKED: ATOM     16  O   UNL     1     143.141  79.231 222.600 -0.22 +0.24    -0.396 OA 
DOCKED: ATOM     17  H   UNL     1     143.026  78.292 222.272 -0.40 -0.22    +0.210 HD 
DOCKED: ENDBRANCH  15  16
DOCKED: ENDBRANCH  12  15
DOCKED: ENDBRANCH  10  12
DOCKED: ENDBRANCH   8  10
DOCKED: ENDBRANCH   7   8
DOCKED: ENDBRANCH   1   7
DOCKED: BRANCH   4  18
DOCKED: ATOM     18  C   UNL     1     137.039  73.789 221.615 -0.11 -0.02    +0.070 C  
DOCKED: BRANCH  18  19
DOCKED: ATOM     19  C   UNL     1     137.637  72.440 221.625 -0.12 -0.00    +0.008 C  
DOCKED: BRANCH  19  20
DOCKED: ATOM     20  C   UNL     1     138.737  72.146 222.565 -0.19 -0.00    +0.008 C  
DOCKED: BRANCH  20  21
DOCKED: ATOM     21  C   UNL     1     140.075  71.784 222.049 -0.25 -0.01    +0.070 C  
DOCKED: BRANCH  21  22
DOCKED: ATOM     22  C   UNL     1     140.683  73.054 221.517 -0.24 -0.01    +0.116 A  
DOCKED: ATOM     23  N   UNL     1     141.078  74.121 222.005 -0.58 -0.00    -0.167 NA 
DOCKED: ATOM     24  S   UNL     1     141.015  73.309 219.738 -0.13 +0.02    -0.080 S  
DOCKED: ATOM     25  N   UNL     1     141.583  75.118 221.377 -0.19 +0.07    -0.251 N  
DOCKED: ATOM     26  C   UNL     1     141.714  75.040 220.070 -0.16 -0.07    +0.208 A  
DOCKED: ATOM     27  H   UNL     1     141.898  76.009 221.902 -0.50 -0.12    +0.193 HD 
DOCKED: BRANCH  26  28
DOCKED: ATOM     28  N   UNL     1     142.136  75.756 219.137 -0.13 +0.08    -0.183 NA 
DOCKED: BRANCH  28  29
DOCKED: ATOM     29  C   UNL     1     142.352  77.146 219.352 -0.21 -0.16    +0.255 C  
DOCKED: ATOM     30  O   UNL     1     142.034  77.652 220.458 -0.22 +0.18    -0.272 OA 
DOCKED: BRANCH  29  31
DOCKED: ATOM     31  C   UNL     1     142.954  77.964 218.244 -0.22 -0.10    +0.123 C  
DOCKED: ATOM     32  C   UNL     1     142.453  77.420 216.916 -0.15 -0.17    +0.243 C  
DOCKED: ATOM     33  C   UNL     1     142.429  79.385 218.341 -0.29 -0.05    +0.056 C  
DOCKED: ATOM     34  O   UNL     1     141.038  77.370 216.993 +0.00 +0.22    -0.492 OA 
DOCKED: ATOM     35  C   UNL     1     140.932  79.277 218.455 -0.15 +0.00    -0.005 A  
DOCKED: ATOM     36  C   UNL     1     140.293  78.256 217.764 -0.04 -0.05    +0.122 A  
DOCKED: ATOM     37  C   UNL     1     140.208  80.177 219.234 -0.11 -0.00    +0.007 A  
DOCKED: ATOM     38  C   UNL     1     138.911  78.130 217.850 -0.01 -0.01    +0.047 A  
DOCKED: ATOM     39  C   UNL     1     138.819  80.044 219.314 -0.04 -0.00    +0.001 A  
DOCKED: ATOM     40  C   UNL     1     138.165  79.023 218.625 -0.01 -0.00    +0.004 A  
DOCKED: ENDBRANCH  29  31
DOCKED: ENDBRANCH  28  29
DOCKED: ENDBRANCH  26  28
DOCKED: ENDBRANCH  21  22
DOCKED: ENDBRANCH  20  21
DOCKED: ENDBRANCH  19  20
DOCKED: ENDBRANCH  18  19
DOCKED: ENDBRANCH   4  18
DOCKED: TORSDOF 14
DOCKED: TER
DOCKED: ENDMDL
________________________________________________________________________________


    FINAL DOCKED STATE:
    ________________________


Run:   5 / 20
Time taken for this run:   0.356s

DOCKED: MODEL        5
DOCKED: USER    Run = 5
DOCKED: USER
DOCKED: USER    Estimated Free Energy of Binding    =  -4.76 kcal/mol  [=(1)+(2)+(3)-(4)]
DOCKED: USER
DOCKED: USER    (1) Final Intermolecular Energy     =  -8.94 kcal/mol
DOCKED: USER        vdW + Hbond + desolv Energy     =  -8.73 kcal/mol
DOCKED: USER        Electrostatic Energy            =  -0.21 kcal/mol
DOCKED: USER        Moving Ligand-Fixed Receptor    =  -8.94 kcal/mol
DOCKED: USER        Moving Ligand-Moving Receptor   =  +0.00 kcal/mol
DOCKED: USER    (2) Final Total Internal Energy     =  -7.42 kcal/mol
DOCKED: USER    (3) Torsional Free Energy           =  +4.18 kcal/mol
DOCKED: USER    (4) Unbound System's Energy         =  -7.42 kcal/mol
DOCKED: USER
DOCKED: USER
DOCKED: REMARK SMILES C[C@@H](C(=O)/N=c1/[nH]nc(CCCCc2n[nH]/c(=N/C(=O)[C@H]3COc4ccccc4C3)s2)s1)C(C)(C)CO
DOCKED: REMARK SMILES IDX 6 1 7 2 8 3 9 4 32 5 5 7 3 8 4 9 2 10 1 11 33 12 34 13 35 14
DOCKED: REMARK SMILES IDX 36 15 37 16 10 18 11 19 12 20 13 21 14 22 15 23 31 24 16 25
DOCKED: REMARK SMILES IDX 17 26 18 28 19 29 20 30 21 31 22 32 30 33 23 34 29 35 24 36
DOCKED: REMARK SMILES IDX 28 37 25 38 27 39 26 40
DOCKED: REMARK H PARENT 7 6 37 17 16 27
DOCKED: USER                              x       y       z     vdW  Elec       q    Type
DOCKED: USER                           _______ _______ _______ _____ _____    ______ ____
DOCKED: ROOT
DOCKED: ATOM      1  C   UNL     1     138.969  77.337 221.563 -0.14 -0.05    +0.208 A  
DOCKED: ATOM      2  N   UNL     1     139.358  76.531 220.556 -0.05 +0.06    -0.251 N  
DOCKED: ATOM      3  N   UNL     1     138.747  75.406 220.597 -0.07 +0.04    -0.167 NA 
DOCKED: ATOM      4  C   UNL     1     137.969  74.918 221.259 -0.13 -0.03    +0.116 A  
DOCKED: ATOM      5  S   UNL     1     137.719  76.385 222.518 -0.32 +0.02    -0.080 S  
DOCKED: ATOM      6  H   UNL     1     140.070  76.835 219.858 +0.05 -0.06    +0.193 HD 
DOCKED: ENDROOT
DOCKED: BRANCH   1   7
DOCKED: ATOM      7  N   UNL     1     139.345  78.594 221.902 -0.13 +0.04    -0.184 NA 
DOCKED: BRANCH   7   8
DOCKED: ATOM      8  C   UNL     1     140.351  78.646 222.904 -0.28 -0.06    +0.251 C  
DOCKED: ATOM      9  O   UNL     1     141.107  77.634 223.071 -0.35 +0.09    -0.272 OA 
DOCKED: BRANCH   8  10
DOCKED: ATOM     10  C   UNL     1     140.482  79.879 223.720 -0.41 -0.01    +0.086 C  
DOCKED: ATOM     11  C   UNL     1     139.144  80.536 223.903 -0.39 -0.00    +0.019 C  
DOCKED: BRANCH  10  12
DOCKED: ATOM     12  C   UNL     1     141.467  80.819 223.065 -0.55 +0.00    -0.001 C  
DOCKED: ATOM     13  C   UNL     1     142.396  81.391 224.096 -0.56 -0.00    +0.014 C  
DOCKED: ATOM     14  C   UNL     1     140.775  81.946 222.343 -0.34 -0.00    +0.014 C  
DOCKED: BRANCH  12  15
DOCKED: ATOM     15  C   UNL     1     142.261  80.056 222.009 -0.39 -0.07    +0.163 C  
DOCKED: BRANCH  15  16
DOCKED: ATOM     16  O   UNL     1     143.134  79.214 222.651 -0.23 +0.24    -0.396 OA 
DOCKED: ATOM     17  H   UNL     1     143.023  78.280 222.307 -0.40 -0.22    +0.210 HD 
DOCKED: ENDBRANCH  15  16
DOCKED: ENDBRANCH  12  15
DOCKED: ENDBRANCH  10  12
DOCKED: ENDBRANCH   8  10
DOCKED: ENDBRANCH   7   8
DOCKED: ENDBRANCH   1   7
DOCKED: BRANCH   4  18
DOCKED: ATOM     18  C   UNL     1     137.071  73.786 221.677 -0.12 -0.02    +0.070 C  
DOCKED: BRANCH  18  19
DOCKED: ATOM     19  C   UNL     1     137.668  72.438 221.628 -0.12 -0.00    +0.008 C  
DOCKED: BRANCH  19  20
DOCKED: ATOM     20  C   UNL     1     138.735  72.087 222.586 -0.19 -0.00    +0.008 C  
DOCKED: BRANCH  20  21
DOCKED: ATOM     21  C   UNL     1     140.090  71.754 222.096 -0.25 -0.01    +0.070 C  
DOCKED: BRANCH  21  22
DOCKED: ATOM     22  C   UNL     1     140.677  73.032 221.563 -0.24 -0.01    +0.116 A  
DOCKED: ATOM     23  N   UNL     1     141.068  74.100 222.052 -0.54 -0.00    -0.167 NA 
DOCKED: ATOM     24  S   UNL     1     140.976  73.304 219.781 -0.13 +0.02    -0.080 S  
DOCKED: ATOM     25  N   UNL     1     141.553  75.107 221.423 -0.19 +0.07    -0.251 N  
DOCKED: ATOM     26  C   UNL     1     141.663  75.040 220.113 -0.16 -0.07    +0.208 A  
DOCKED: ATOM     27  H   UNL     1     141.868  75.997 221.949 -0.51 -0.11    +0.193 HD 
DOCKED: BRANCH  26  28
DOCKED: ATOM     28  N   UNL     1     142.063  75.767 219.179 -0.12 +0.08    -0.183 NA 
DOCKED: BRANCH  28  29
DOCKED: ATOM     29  C   UNL     1     142.309  77.148 219.411 -0.21 -0.16    +0.255 C  
DOCKED: ATOM     30  O   UNL     1     141.996  77.649 220.522 -0.22 +0.18    -0.272 OA 
DOCKED: BRANCH  29  31
DOCKED: ATOM     31  C   UNL     1     142.937  77.965 218.317 -0.21 -0.10    +0.123 C  
DOCKED: ATOM     32  C   UNL     1     142.434  77.447 216.979 -0.16 -0.17    +0.243 C  
DOCKED: ATOM     33  C   UNL     1     142.445  79.396 218.426 -0.27 -0.05    +0.056 C  
DOCKED: ATOM     34  O   UNL     1     141.018  77.428 217.046 +0.00 +0.22    -0.492 OA 
DOCKED: ATOM     35  C   UNL     1     140.944  79.321 218.529 -0.15 +0.00    -0.005 A  
DOCKED: ATOM     36  C   UNL     1     140.288  78.323 217.822 -0.04 -0.05    +0.122 A  
DOCKED: ATOM     37  C   UNL     1     140.235  80.229 219.313 -0.12 -0.00    +0.007 A  
DOCKED: ATOM     38  C   UNL     1     138.902  78.228 217.897 -0.01 -0.01    +0.047 A  
DOCKED: ATOM     39  C   UNL     1     138.843  80.127 219.382 -0.05 -0.00    +0.001 A  
DOCKED: ATOM     40  C   UNL     1     138.171  79.128 218.677 -0.01 -0.00    +0.004 A  
DOCKED: ENDBRANCH  29  31
DOCKED: ENDBRANCH  28  29
DOCKED: ENDBRANCH  26  28
DOCKED: ENDBRANCH  21  22
DOCKED: ENDBRANCH  20  21
DOCKED: ENDBRANCH  19  20
DOCKED: ENDBRANCH  18  19
DOCKED: ENDBRANCH   4  18
DOCKED: TORSDOF 14
DOCKED: TER
DOCKED: ENDMDL
________________________________________________________________________________


    FINAL DOCKED STATE:
    ________________________


Run:   6 / 20
Time taken for this run:   0.356s

DOCKED: MODEL        6
DOCKED: USER    Run = 6
DOCKED: USER
DOCKED: USER    Estimated Free Energy of Binding    =  -5.56 kcal/mol  [=(1)+(2)+(3)-(4)]
DOCKED: USER
DOCKED: USER    (1) Final Intermolecular Energy     =  -9.73 kcal/mol
DOCKED: USER        vdW + Hbond + desolv Energy     =  -9.47 kcal/mol
DOCKED: USER        Electrostatic Energy            =  -0.26 kcal/mol
DOCKED: USER        Moving Ligand-Fixed Receptor    =  -9.73 kcal/mol
DOCKED: USER        Moving Ligand-Moving Receptor   =  +0.00 kcal/mol
DOCKED: USER    (2) Final Total Internal Energy     =  -6.62 kcal/mol
DOCKED: USER    (3) Torsional Free Energy           =  +4.18 kcal/mol
DOCKED: USER    (4) Unbound System's Energy         =  -6.62 kcal/mol
DOCKED: USER
DOCKED: USER
DOCKED: REMARK SMILES C[C@@H](C(=O)/N=c1/[nH]nc(CCCCc2n[nH]/c(=N/C(=O)[C@H]3COc4ccccc4C3)s2)s1)C(C)(C)CO
DOCKED: REMARK SMILES IDX 6 1 7 2 8 3 9 4 32 5 5 7 3 8 4 9 2 10 1 11 33 12 34 13 35 14
DOCKED: REMARK SMILES IDX 36 15 37 16 10 18 11 19 12 20 13 21 14 22 15 23 31 24 16 25
DOCKED: REMARK SMILES IDX 17 26 18 28 19 29 20 30 21 31 22 32 30 33 23 34 29 35 24 36
DOCKED: REMARK SMILES IDX 28 37 25 38 27 39 26 40
DOCKED: REMARK H PARENT 7 6 37 17 16 27
DOCKED: USER                              x       y       z     vdW  Elec       q    Type
DOCKED: USER                           _______ _______ _______ _____ _____    ______ ____
DOCKED: ROOT
DOCKED: ATOM      1  C   UNL     1     139.779  76.856 222.401 -0.25 -0.05    +0.208 A  
DOCKED: ATOM      2  N   UNL     1     140.963  76.250 222.187 -0.25 +0.08    -0.251 N  
DOCKED: ATOM      3  N   UNL     1     140.812  74.996 221.973 -0.62 +0.02    -0.167 NA 
DOCKED: ATOM      4  C   UNL     1     139.944  74.271 221.919 -0.23 -0.01    +0.116 A  
DOCKED: ATOM      5  S   UNL     1     138.505  75.537 222.275 -0.29 +0.02    -0.080 S  
DOCKED: ATOM      6  H   UNL     1     141.859  76.782 222.203 -0.47 -0.14    +0.193 HD 
DOCKED: ENDROOT
DOCKED: BRANCH   1   7
DOCKED: ATOM      7  N   UNL     1     139.468  78.150 222.662 -0.22 +0.04    -0.184 NA 
DOCKED: BRANCH   7   8
DOCKED: ATOM      8  C   UNL     1     140.494  78.865 223.338 -0.27 -0.05    +0.251 C  
DOCKED: ATOM      9  O   UNL     1     141.491  78.222 223.801 -0.40 +0.08    -0.272 OA 
DOCKED: BRANCH   8  10
DOCKED: ATOM     10  C   UNL     1     140.362  80.338 223.478 -0.42 -0.01    +0.086 C  
DOCKED: ATOM     11  C   UNL     1     139.083  80.816 222.853 -0.31 -0.00    +0.019 C  
DOCKED: BRANCH  10  12
DOCKED: ATOM     12  C   UNL     1     141.561  81.015 222.857 -0.54 +0.00    -0.001 C  
DOCKED: ATOM     13  C   UNL     1     142.571  81.346 223.918 -0.56 -0.00    +0.014 C  
DOCKED: ATOM     14  C   UNL     1     141.179  82.277 222.128 -0.31 -0.00    +0.014 C  
DOCKED: BRANCH  12  15
DOCKED: ATOM     15  C   UNL     1     142.178  80.087 221.817 -0.38 -0.07    +0.163 C  
DOCKED: BRANCH  15  16
DOCKED: ATOM     16  O   UNL     1     143.183  79.370 222.418 -0.18 +0.25    -0.396 OA 
DOCKED: ATOM     17  H   UNL     1     143.034  78.391 222.279 -0.40 -0.21    +0.210 HD 
DOCKED: ENDBRANCH  15  16
DOCKED: ENDBRANCH  12  15
DOCKED: ENDBRANCH  10  12
DOCKED: ENDBRANCH   8  10
DOCKED: ENDBRANCH   7   8
DOCKED: ENDBRANCH   1   7
DOCKED: BRANCH   4  18
DOCKED: ATOM     18  C   UNL     1     139.333  72.909 221.739 -0.21 -0.01    +0.070 C  
DOCKED: BRANCH  18  19
DOCKED: ATOM     19  C   UNL     1     140.257  71.766 221.868 -0.26 -0.00    +0.008 C  
DOCKED: BRANCH  19  20
DOCKED: ATOM     20  C   UNL     1     140.788  71.126 220.647 -0.14 -0.00    +0.008 C  
DOCKED: BRANCH  20  21
DOCKED: ATOM     21  C   UNL     1     142.223  71.245 220.314 -0.14 -0.01    +0.070 C  
DOCKED: BRANCH  21  22
DOCKED: ATOM     22  C   UNL     1     142.495  72.712 220.118 -0.17 -0.02    +0.116 A  
DOCKED: ATOM     23  N   UNL     1     142.823  73.658 220.846 -0.21 +0.04    -0.167 NA 
DOCKED: ATOM     24  S   UNL     1     142.374  73.520 218.484 -0.10 +0.02    -0.080 S  
DOCKED: ATOM     25  N   UNL     1     143.016  74.875 220.492 -0.21 +0.11    -0.251 N  
DOCKED: ATOM     26  C   UNL     1     142.858  75.197 219.226 -0.19 -0.09    +0.208 A  
DOCKED: ATOM     27  H   UNL     1     143.301  75.629 221.212 -0.29 -0.18    +0.193 HD 
DOCKED: BRANCH  26  28
DOCKED: ATOM     28  N   UNL     1     142.946  76.219 218.512 -0.20 +0.10    -0.183 NA 
DOCKED: BRANCH  28  29
DOCKED: ATOM     29  C   UNL     1     142.729  77.503 219.084 -0.14 -0.19    +0.255 C  
DOCKED: ATOM     30  O   UNL     1     142.551  77.601 220.325 -0.19 +0.23    -0.272 OA 
DOCKED: BRANCH  29  31
DOCKED: ATOM     31  C   UNL     1     142.718  78.705 218.180 -0.23 -0.11    +0.123 C  
DOCKED: ATOM     32  C   UNL     1     142.359  78.248 216.775 -0.15 -0.21    +0.243 C  
DOCKED: ATOM     33  C   UNL     1     141.605  79.639 218.616 -0.24 -0.03    +0.056 C  
DOCKED: ATOM     34  O   UNL     1     141.160  77.498 216.875 -0.00 +0.24    -0.492 OA 
DOCKED: ATOM     35  C   UNL     1     140.366  78.792 218.741 -0.10 +0.00    -0.005 A  
DOCKED: ATOM     36  C   UNL     1     140.197  77.742 217.849 -0.03 -0.05    +0.122 A  
DOCKED: ATOM     37  C   UNL     1     139.416  79.057 219.725 -0.08 -0.00    +0.007 A  
DOCKED: ATOM     38  C   UNL     1     139.063  76.942 217.939 -0.02 -0.01    +0.047 A  
DOCKED: ATOM     39  C   UNL     1     138.279  78.248 219.808 -0.04 -0.00    +0.001 A  
DOCKED: ATOM     40  C   UNL     1     138.097  77.190 218.919 -0.02 -0.00    +0.004 A  
DOCKED: ENDBRANCH  29  31
DOCKED: ENDBRANCH  28  29
DOCKED: ENDBRANCH  26  28
DOCKED: ENDBRANCH  21  22
DOCKED: ENDBRANCH  20  21
DOCKED: ENDBRANCH  19  20
DOCKED: ENDBRANCH  18  19
DOCKED: ENDBRANCH   4  18
DOCKED: TORSDOF 14
DOCKED: TER
DOCKED: ENDMDL
________________________________________________________________________________


    FINAL DOCKED STATE:
    ________________________


Run:   7 / 20
Time taken for this run:   0.356s

DOCKED: MODEL        7
DOCKED: USER    Run = 7
DOCKED: USER
DOCKED: USER    Estimated Free Energy of Binding    =  -3.97 kcal/mol  [=(1)+(2)+(3)-(4)]
DOCKED: USER
DOCKED: USER    (1) Final Intermolecular Energy     =  -8.15 kcal/mol
DOCKED: USER        vdW + Hbond + desolv Energy     =  -8.05 kcal/mol
DOCKED: USER        Electrostatic Energy            =  -0.10 kcal/mol
DOCKED: USER        Moving Ligand-Fixed Receptor    =  -8.15 kcal/mol
DOCKED: USER        Moving Ligand-Moving Receptor   =  +0.00 kcal/mol
DOCKED: USER    (2) Final Total Internal Energy     =  -8.26 kcal/mol
DOCKED: USER    (3) Torsional Free Energy           =  +4.18 kcal/mol
DOCKED: USER    (4) Unbound System's Energy         =  -8.26 kcal/mol
DOCKED: USER
DOCKED: USER
DOCKED: REMARK SMILES C[C@@H](C(=O)/N=c1/[nH]nc(CCCCc2n[nH]/c(=N/C(=O)[C@H]3COc4ccccc4C3)s2)s1)C(C)(C)CO
DOCKED: REMARK SMILES IDX 6 1 7 2 8 3 9 4 32 5 5 7 3 8 4 9 2 10 1 11 33 12 34 13 35 14
DOCKED: REMARK SMILES IDX 36 15 37 16 10 18 11 19 12 20 13 21 14 22 15 23 31 24 16 25
DOCKED: REMARK SMILES IDX 17 26 18 28 19 29 20 30 21 31 22 32 30 33 23 34 29 35 24 36
DOCKED: REMARK SMILES IDX 28 37 25 38 27 39 26 40
DOCKED: REMARK H PARENT 7 6 37 17 16 27
DOCKED: USER                              x       y       z     vdW  Elec       q    Type
DOCKED: USER                           _______ _______ _______ _____ _____    ______ ____
DOCKED: ROOT
DOCKED: ATOM      1  C   UNL     1     138.765  78.065 222.165 -0.17 -0.04    +0.208 A  
DOCKED: ATOM      2  N   UNL     1     139.623  77.262 221.509 -0.12 +0.06    -0.251 N  
DOCKED: ATOM      3  N   UNL     1     139.182  76.061 221.445 -0.17 +0.04    -0.167 NA 
DOCKED: ATOM      4  C   UNL     1     138.261  75.505 221.798 -0.20 -0.03    +0.116 A  
DOCKED: ATOM      5  S   UNL     1     137.348  76.999 222.655 -0.29 +0.01    -0.080 S  
DOCKED: ATOM      6  H   UNL     1     140.520  77.623 221.120 +0.08 -0.07    +0.193 HD 
DOCKED: ENDROOT
DOCKED: BRANCH   1   7
DOCKED: ATOM      7  N   UNL     1     138.821  79.386 222.463 -0.15 +0.03    -0.184 NA 
DOCKED: BRANCH   7   8
DOCKED: ATOM      8  C   UNL     1     139.940  80.058 221.898 -0.15 -0.06    +0.251 C  
DOCKED: ATOM      9  O   UNL     1     140.281  79.787 220.702 -0.08 +0.08    -0.272 OA 
DOCKED: BRANCH   8  10
DOCKED: ATOM     10  C   UNL     1     140.669  81.050 222.728 -0.38 -0.01    +0.086 C  
DOCKED: ATOM     11  C   UNL     1     140.968  82.287 221.930 -0.34 -0.00    +0.019 C  
DOCKED: BRANCH  10  12
DOCKED: ATOM     12  C   UNL     1     141.935  80.428 223.268 -0.63 +0.00    -0.001 C  
DOCKED: ATOM     13  C   UNL     1     142.567  81.342 224.277 -0.51 -0.00    +0.014 C  
DOCKED: ATOM     14  C   UNL     1     142.930  80.136 222.174 -0.29 -0.01    +0.014 C  
DOCKED: BRANCH  12  15
DOCKED: ATOM     15  C   UNL     1     141.599  79.087 223.912 -0.47 -0.04    +0.163 C  
DOCKED: BRANCH  15  16
DOCKED: ATOM     16  O   UNL     1     141.678  78.113 222.949 -0.24 +0.19    -0.396 OA 
DOCKED: ATOM     17  H   UNL     1     141.286  78.449 222.091 +0.10 -0.09    +0.210 HD 
DOCKED: ENDBRANCH  15  16
DOCKED: ENDBRANCH  12  15
DOCKED: ENDBRANCH  10  12
DOCKED: ENDBRANCH   8  10
DOCKED: ENDBRANCH   7   8
DOCKED: ENDBRANCH   1   7
DOCKED: BRANCH   4  18
DOCKED: ATOM     18  C   UNL     1     137.406  74.279 221.964 -0.15 -0.02    +0.070 C  
DOCKED: BRANCH  18  19
DOCKED: ATOM     19  C   UNL     1     137.973  73.022 221.442 -0.14 -0.00    +0.008 C  
DOCKED: BRANCH  19  20
DOCKED: ATOM     20  C   UNL     1     138.842  72.206 222.315 -0.22 -0.00    +0.008 C  
DOCKED: BRANCH  20  21
DOCKED: ATOM     21  C   UNL     1     140.202  71.836 221.869 -0.24 -0.01    +0.070 C  
DOCKED: BRANCH  21  22
DOCKED: ATOM     22  C   UNL     1     140.882  73.117 221.468 -0.24 -0.01    +0.116 A  
DOCKED: ATOM     23  N   UNL     1     141.075  74.221 221.995 -0.58 +0.00    -0.167 NA 
DOCKED: ATOM     24  S   UNL     1     141.695  73.328 219.845 -0.18 +0.02    -0.080 S  
DOCKED: ATOM     25  N   UNL     1     141.695  75.221 221.486 -0.15 +0.08    -0.251 N  
DOCKED: ATOM     26  C   UNL     1     142.196  75.106 220.275 -0.20 -0.08    +0.208 A  
DOCKED: ATOM     27  H   UNL     1     141.810  76.147 222.034 -0.50 -0.11    +0.193 HD 
DOCKED: BRANCH  26  28
DOCKED: ATOM     28  N   UNL     1     142.836  75.810 219.465 -0.23 +0.10    -0.183 NA 
DOCKED: BRANCH  28  29
DOCKED: ATOM     29  C   UNL     1     142.579  77.207 219.385 -0.21 -0.17    +0.255 C  
DOCKED: ATOM     30  O   UNL     1     142.196  77.821 220.413 -0.23 +0.20    -0.272 OA 
DOCKED: BRANCH  29  31
DOCKED: ATOM     31  C   UNL     1     142.775  77.904 218.067 -0.25 -0.10    +0.123 C  
DOCKED: ATOM     32  C   UNL     1     142.834  76.853 216.970 -0.16 -0.16    +0.243 C  
DOCKED: ATOM     33  C   UNL     1     141.552  78.752 217.772 -0.19 -0.03    +0.056 C  
DOCKED: ATOM     34  O   UNL     1     141.682  76.039 217.111 +0.00 +0.20    -0.492 OA 
DOCKED: ATOM     35  C   UNL     1     140.357  77.855 217.968 -0.06 +0.00    -0.005 A  
DOCKED: ATOM     36  C   UNL     1     140.479  76.516 217.623 -0.03 -0.04    +0.122 A  
DOCKED: ATOM     37  C   UNL     1     139.164  78.357 218.482 -0.03 -0.00    +0.007 A  
DOCKED: ATOM     38  C   UNL     1     139.394  75.663 217.792 -0.01 -0.01    +0.047 A  
DOCKED: ATOM     39  C   UNL     1     138.078  77.493 218.648 -0.01 -0.00    +0.001 A  
DOCKED: ATOM     40  C   UNL     1     138.187  76.145 218.306 -0.01 -0.00    +0.004 A  
DOCKED: ENDBRANCH  29  31
DOCKED: ENDBRANCH  28  29
DOCKED: ENDBRANCH  26  28
DOCKED: ENDBRANCH  21  22
DOCKED: ENDBRANCH  20  21
DOCKED: ENDBRANCH  19  20
DOCKED: ENDBRANCH  18  19
DOCKED: ENDBRANCH   4  18
DOCKED: TORSDOF 14
DOCKED: TER
DOCKED: ENDMDL
________________________________________________________________________________


    FINAL DOCKED STATE:
    ________________________


Run:   8 / 20
Time taken for this run:   0.356s

DOCKED: MODEL        8
DOCKED: USER    Run = 8
DOCKED: USER
DOCKED: USER    Estimated Free Energy of Binding    =  -3.92 kcal/mol  [=(1)+(2)+(3)-(4)]
DOCKED: USER
DOCKED: USER    (1) Final Intermolecular Energy     =  -8.10 kcal/mol
DOCKED: USER        vdW + Hbond + desolv Energy     =  -8.00 kcal/mol
DOCKED: USER        Electrostatic Energy            =  -0.10 kcal/mol
DOCKED: USER        Moving Ligand-Fixed Receptor    =  -8.10 kcal/mol
DOCKED: USER        Moving Ligand-Moving Receptor   =  +0.00 kcal/mol
DOCKED: USER    (2) Final Total Internal Energy     =  -8.24 kcal/mol
DOCKED: USER    (3) Torsional Free Energy           =  +4.18 kcal/mol
DOCKED: USER    (4) Unbound System's Energy         =  -8.24 kcal/mol
DOCKED: USER
DOCKED: USER
DOCKED: REMARK SMILES C[C@@H](C(=O)/N=c1/[nH]nc(CCCCc2n[nH]/c(=N/C(=O)[C@H]3COc4ccccc4C3)s2)s1)C(C)(C)CO
DOCKED: REMARK SMILES IDX 6 1 7 2 8 3 9 4 32 5 5 7 3 8 4 9 2 10 1 11 33 12 34 13 35 14
DOCKED: REMARK SMILES IDX 36 15 37 16 10 18 11 19 12 20 13 21 14 22 15 23 31 24 16 25
DOCKED: REMARK SMILES IDX 17 26 18 28 19 29 20 30 21 31 22 32 30 33 23 34 29 35 24 36
DOCKED: REMARK SMILES IDX 28 37 25 38 27 39 26 40
DOCKED: REMARK H PARENT 7 6 37 17 16 27
DOCKED: USER                              x       y       z     vdW  Elec       q    Type
DOCKED: USER                           _______ _______ _______ _____ _____    ______ ____
DOCKED: ROOT
DOCKED: ATOM      1  C   UNL     1     138.754  78.043 222.137 -0.17 -0.04    +0.208 A  
DOCKED: ATOM      2  N   UNL     1     139.607  77.258 221.451 -0.12 +0.06    -0.251 N  
DOCKED: ATOM      3  N   UNL     1     139.172  76.055 221.371 -0.16 +0.04    -0.167 NA 
DOCKED: ATOM      4  C   UNL     1     138.261  75.487 221.729 -0.19 -0.03    +0.116 A  
DOCKED: ATOM      5  S   UNL     1     137.353  76.958 222.629 -0.29 +0.01    -0.080 S  
DOCKED: ATOM      6  H   UNL     1     140.495  77.633 221.054 +0.08 -0.07    +0.193 HD 
DOCKED: ENDROOT
DOCKED: BRANCH   1   7
DOCKED: ATOM      7  N   UNL     1     138.807  79.358 222.459 -0.15 +0.03    -0.184 NA 
DOCKED: BRANCH   7   8
DOCKED: ATOM      8  C   UNL     1     139.913  80.048 221.890 -0.15 -0.06    +0.251 C  
DOCKED: ATOM      9  O   UNL     1     140.241  79.797 220.685 -0.08 +0.08    -0.272 OA 
DOCKED: BRANCH   8  10
DOCKED: ATOM     10  C   UNL     1     140.644  81.034 222.726 -0.37 -0.01    +0.086 C  
DOCKED: ATOM     11  C   UNL     1     140.918  82.287 221.945 -0.34 -0.00    +0.019 C  
DOCKED: BRANCH  10  12
DOCKED: ATOM     12  C   UNL     1     141.924  80.416 223.236 -0.62 +0.00    -0.001 C  
DOCKED: ATOM     13  C   UNL     1     142.571  81.328 224.238 -0.56 -0.00    +0.014 C  
DOCKED: ATOM     14  C   UNL     1     142.898  80.138 222.121 -0.25 -0.01    +0.014 C  
DOCKED: BRANCH  12  15
DOCKED: ATOM     15  C   UNL     1     141.609  79.069 223.878 -0.48 -0.04    +0.163 C  
DOCKED: BRANCH  15  16
DOCKED: ATOM     16  O   UNL     1     141.670  78.102 222.906 -0.23 +0.19    -0.396 OA 
DOCKED: ATOM     17  H   UNL     1     141.233  78.433 222.069 +0.10 -0.09    +0.210 HD 
DOCKED: ENDBRANCH  15  16
DOCKED: ENDBRANCH  12  15
DOCKED: ENDBRANCH  10  12
DOCKED: ENDBRANCH   8  10
DOCKED: ENDBRANCH   7   8
DOCKED: ENDBRANCH   1   7
DOCKED: BRANCH   4  18
DOCKED: ATOM     18  C   UNL     1     137.417  74.252 221.885 -0.15 -0.02    +0.070 C  
DOCKED: BRANCH  18  19
DOCKED: ATOM     19  C   UNL     1     138.020  72.994 221.407 -0.14 -0.00    +0.008 C  
DOCKED: BRANCH  19  20
DOCKED: ATOM     20  C   UNL     1     138.831  72.184 222.338 -0.22 -0.00    +0.008 C  
DOCKED: BRANCH  20  21
DOCKED: ATOM     21  C   UNL     1     140.221  71.822 221.987 -0.25 -0.01    +0.070 C  
DOCKED: BRANCH  21  22
DOCKED: ATOM     22  C   UNL     1     140.891  73.092 221.536 -0.24 -0.01    +0.116 A  
DOCKED: ATOM     23  N   UNL     1     141.083  74.214 222.022 -0.55 -0.00    -0.167 NA 
DOCKED: ATOM     24  S   UNL     1     141.687  73.251 219.899 -0.19 +0.02    -0.080 S  
DOCKED: ATOM     25  N   UNL     1     141.693  75.200 221.474 -0.16 +0.08    -0.251 N  
DOCKED: ATOM     26  C   UNL     1     142.183  75.045 220.262 -0.20 -0.08    +0.208 A  
DOCKED: ATOM     27  H   UNL     1     141.807  76.144 221.988 -0.50 -0.11    +0.193 HD 
DOCKED: BRANCH  26  28
DOCKED: ATOM     28  N   UNL     1     142.812  75.724 219.423 -0.22 +0.09    -0.183 NA 
DOCKED: BRANCH  28  29
DOCKED: ATOM     29  C   UNL     1     142.605  77.130 219.352 -0.22 -0.17    +0.255 C  
DOCKED: ATOM     30  O   UNL     1     142.219  77.746 220.378 -0.23 +0.20    -0.272 OA 
DOCKED: BRANCH  29  31
DOCKED: ATOM     31  C   UNL     1     142.856  77.832 218.047 -0.24 -0.10    +0.123 C  
DOCKED: ATOM     32  C   UNL     1     142.911  76.790 216.941 -0.17 -0.16    +0.243 C  
DOCKED: ATOM     33  C   UNL     1     141.667  78.720 217.729 -0.20 -0.04    +0.056 C  
DOCKED: ATOM     34  O   UNL     1     141.732  76.011 217.044 +0.00 +0.20    -0.492 OA 
DOCKED: ATOM     35  C   UNL     1     140.442  77.859 217.885 -0.06 +0.00    -0.005 A  
DOCKED: ATOM     36  C   UNL     1     140.532  76.520 217.530 -0.03 -0.04    +0.122 A  
DOCKED: ATOM     37  C   UNL     1     139.251  78.393 218.373 -0.03 -0.00    +0.007 A  
DOCKED: ATOM     38  C   UNL     1     139.417  75.699 217.662 -0.01 -0.01    +0.047 A  
DOCKED: ATOM     39  C   UNL     1     138.135  77.561 218.504 -0.01 -0.00    +0.001 A  
DOCKED: ATOM     40  C   UNL     1     138.212  76.214 218.150 -0.01 -0.00    +0.004 A  
DOCKED: ENDBRANCH  29  31
DOCKED: ENDBRANCH  28  29
DOCKED: ENDBRANCH  26  28
DOCKED: ENDBRANCH  21  22
DOCKED: ENDBRANCH  20  21
DOCKED: ENDBRANCH  19  20
DOCKED: ENDBRANCH  18  19
DOCKED: ENDBRANCH   4  18
DOCKED: TORSDOF 14
DOCKED: TER
DOCKED: ENDMDL
________________________________________________________________________________


    FINAL DOCKED STATE:
    ________________________


Run:   9 / 20
Time taken for this run:   0.356s

DOCKED: MODEL        9
DOCKED: USER    Run = 9
DOCKED: USER
DOCKED: USER    Estimated Free Energy of Binding    =  -6.00 kcal/mol  [=(1)+(2)+(3)-(4)]
DOCKED: USER
DOCKED: USER    (1) Final Intermolecular Energy     = -10.17 kcal/mol
DOCKED: USER        vdW + Hbond + desolv Energy     = -10.14 kcal/mol
DOCKED: USER        Electrostatic Energy            =  -0.03 kcal/mol
DOCKED: USER        Moving Ligand-Fixed Receptor    = -10.17 kcal/mol
DOCKED: USER        Moving Ligand-Moving Receptor   =  +0.00 kcal/mol
DOCKED: USER    (2) Final Total Internal Energy     =  -6.33 kcal/mol
DOCKED: USER    (3) Torsional Free Energy           =  +4.18 kcal/mol
DOCKED: USER    (4) Unbound System's Energy         =  -6.33 kcal/mol
DOCKED: USER
DOCKED: USER
DOCKED: REMARK SMILES C[C@@H](C(=O)/N=c1/[nH]nc(CCCCc2n[nH]/c(=N/C(=O)[C@H]3COc4ccccc4C3)s2)s1)C(C)(C)CO
DOCKED: REMARK SMILES IDX 6 1 7 2 8 3 9 4 32 5 5 7 3 8 4 9 2 10 1 11 33 12 34 13 35 14
DOCKED: REMARK SMILES IDX 36 15 37 16 10 18 11 19 12 20 13 21 14 22 15 23 31 24 16 25
DOCKED: REMARK SMILES IDX 17 26 18 28 19 29 20 30 21 31 22 32 30 33 23 34 29 35 24 36
DOCKED: REMARK SMILES IDX 28 37 25 38 27 39 26 40
DOCKED: REMARK H PARENT 7 6 37 17 16 27
DOCKED: USER                              x       y       z     vdW  Elec       q    Type
DOCKED: USER                           _______ _______ _______ _____ _____    ______ ____
DOCKED: ROOT
DOCKED: ATOM      1  C   UNL     1     132.353  71.055 226.594 -0.19 -0.02    +0.208 A  
DOCKED: ATOM      2  N   UNL     1     133.548  71.478 227.052 -0.29 +0.02    -0.251 N  
DOCKED: ATOM      3  N   UNL     1     133.548  72.742 227.256 -0.62 -0.00    -0.167 NA 
DOCKED: ATOM      4  C   UNL     1     132.806  73.591 227.149 -0.33 -0.00    +0.116 A  
DOCKED: ATOM      5  S   UNL     1     131.293  72.554 226.489 -0.32 +0.01    -0.080 S  
DOCKED: ATOM      6  H   UNL     1     134.339  70.817 227.204 +0.09 -0.01    +0.193 HD 
DOCKED: ENDROOT
DOCKED: BRANCH   1   7
DOCKED: ATOM      7  N   UNL     1     131.910  69.821 226.251 -0.22 +0.01    -0.184 NA 
DOCKED: BRANCH   7   8
DOCKED: ATOM      8  C   UNL     1     132.946  68.864 226.074 +0.05 +0.00    +0.251 C  
DOCKED: ATOM      9  O   UNL     1     134.126  69.156 226.453 -0.72 -0.00    -0.272 OA 
DOCKED: BRANCH   8  10
DOCKED: ATOM     10  C   UNL     1     132.611  67.558 225.451 -0.24 -0.01    +0.086 C  
DOCKED: ATOM     11  C   UNL     1     133.510  66.476 225.977 -0.32 -0.01    +0.019 C  
DOCKED: BRANCH  10  12
DOCKED: ATOM     12  C   UNL     1     132.713  67.672 223.948 -0.13 +0.00    -0.001 C  
DOCKED: ATOM     13  C   UNL     1     131.349  67.868 223.353 -0.03 -0.00    +0.014 C  
DOCKED: ATOM     14  C   UNL     1     133.351  66.453 223.333 -0.12 -0.00    +0.014 C  
DOCKED: BRANCH  12  15
DOCKED: ATOM     15  C   UNL     1     133.614  68.852 223.596 -0.08 -0.02    +0.163 C  
DOCKED: BRANCH  15  16
DOCKED: ATOM     16  O   UNL     1     134.908  68.515 223.905 -0.57 +0.01    -0.396 OA 
DOCKED: ATOM     17  H   UNL     1     135.146  68.871 224.809 +0.07 -0.00    +0.210 HD 
DOCKED: ENDBRANCH  15  16
DOCKED: ENDBRANCH  12  15
DOCKED: ENDBRANCH  10  12
DOCKED: ENDBRANCH   8  10
DOCKED: ENDBRANCH   7   8
DOCKED: ENDBRANCH   1   7
DOCKED: BRANCH   4  18
DOCKED: ATOM     18  C   UNL     1     132.384  75.032 227.231 -0.37 -0.00    +0.070 C  
DOCKED: BRANCH  18  19
DOCKED: ATOM     19  C   UNL     1     132.359  75.770 225.954 -0.22 -0.00    +0.008 C  
DOCKED: BRANCH  19  20
DOCKED: ATOM     20  C   UNL     1     133.429  75.534 224.964 -0.21 -0.00    +0.008 C  
DOCKED: BRANCH  20  21
DOCKED: ATOM     21  C   UNL     1     133.185  74.644 223.809 -0.08 -0.01    +0.070 C  
DOCKED: BRANCH  21  22
DOCKED: ATOM     22  C   UNL     1     134.115  73.472 223.969 -0.12 -0.01    +0.116 A  
DOCKED: ATOM     23  N   UNL     1     134.023  72.323 224.422 -0.09 +0.02    -0.167 NA 
DOCKED: ATOM     24  S   UNL     1     135.862  73.528 223.437 -0.19 +0.02    -0.080 S  
DOCKED: ATOM     25  N   UNL     1     134.949  71.438 224.476 -0.09 +0.03    -0.251 N  
DOCKED: ATOM     26  C   UNL     1     136.143  71.743 224.013 -0.12 -0.04    +0.208 A  
DOCKED: ATOM     27  H   UNL     1     134.763  70.458 224.893 +0.06 -0.02    +0.193 HD 
DOCKED: BRANCH  26  28
DOCKED: ATOM     28  N   UNL     1     137.258  71.192 223.890 -0.15 +0.04    -0.183 NA 
DOCKED: BRANCH  28  29
DOCKED: ATOM     29  C   UNL     1     137.471  69.895 224.435 -0.17 -0.03    +0.255 C  
DOCKED: ATOM     30  O   UNL     1     136.771  69.516 225.408 -0.14 +0.01    -0.272 OA 
DOCKED: BRANCH  29  31
DOCKED: ATOM     31  C   UNL     1     138.531  69.021 223.826 -0.25 -0.02    +0.123 C  
DOCKED: ATOM     32  C   UNL     1     139.586  69.913 223.191 -0.11 -0.04    +0.243 C  
DOCKED: ATOM     33  C   UNL     1     139.236  68.258 224.933 -0.38 -0.01    +0.056 C  
DOCKED: ATOM     34  O   UNL     1     139.997  70.841 224.181 -0.14 +0.08    -0.492 OA 
DOCKED: ATOM     35  C   UNL     1     139.620  69.279 225.972 -0.47 +0.00    -0.005 A  
DOCKED: ATOM     36  C   UNL     1     139.989  70.546 225.541 -0.42 -0.02    +0.122 A  
DOCKED: ATOM     37  C   UNL     1     139.606  68.959 227.328 -0.58 -0.00    +0.007 A  
DOCKED: ATOM     38  C   UNL     1     140.351  71.510 226.476 -0.57 -0.01    +0.047 A  
DOCKED: ATOM     39  C   UNL     1     139.970  69.933 228.261 -0.62 -0.00    +0.001 A  
DOCKED: ATOM     40  C   UNL     1     140.343  71.210 227.842 -0.72 -0.00    +0.004 A  
DOCKED: ENDBRANCH  29  31
DOCKED: ENDBRANCH  28  29
DOCKED: ENDBRANCH  26  28
DOCKED: ENDBRANCH  21  22
DOCKED: ENDBRANCH  20  21
DOCKED: ENDBRANCH  19  20
DOCKED: ENDBRANCH  18  19
DOCKED: ENDBRANCH   4  18
DOCKED: TORSDOF 14
DOCKED: TER
DOCKED: ENDMDL
________________________________________________________________________________


    FINAL DOCKED STATE:
    ________________________


Run:   10 / 20
Time taken for this run:   0.356s

DOCKED: MODEL        10
DOCKED: USER    Run = 10
DOCKED: USER
DOCKED: USER    Estimated Free Energy of Binding    =  -4.68 kcal/mol  [=(1)+(2)+(3)-(4)]
DOCKED: USER
DOCKED: USER    (1) Final Intermolecular Energy     =  -8.86 kcal/mol
DOCKED: USER        vdW + Hbond + desolv Energy     =  -8.81 kcal/mol
DOCKED: USER        Electrostatic Energy            =  -0.05 kcal/mol
DOCKED: USER        Moving Ligand-Fixed Receptor    =  -8.86 kcal/mol
DOCKED: USER        Moving Ligand-Moving Receptor   =  +0.00 kcal/mol
DOCKED: USER    (2) Final Total Internal Energy     =  -7.12 kcal/mol
DOCKED: USER    (3) Torsional Free Energy           =  +4.18 kcal/mol
DOCKED: USER    (4) Unbound System's Energy         =  -7.12 kcal/mol
DOCKED: USER
DOCKED: USER
DOCKED: REMARK SMILES C[C@@H](C(=O)/N=c1/[nH]nc(CCCCc2n[nH]/c(=N/C(=O)[C@H]3COc4ccccc4C3)s2)s1)C(C)(C)CO
DOCKED: REMARK SMILES IDX 6 1 7 2 8 3 9 4 32 5 5 7 3 8 4 9 2 10 1 11 33 12 34 13 35 14
DOCKED: REMARK SMILES IDX 36 15 37 16 10 18 11 19 12 20 13 21 14 22 15 23 31 24 16 25
DOCKED: REMARK SMILES IDX 17 26 18 28 19 29 20 30 21 31 22 32 30 33 23 34 29 35 24 36
DOCKED: REMARK SMILES IDX 28 37 25 38 27 39 26 40
DOCKED: REMARK H PARENT 7 6 37 17 16 27
DOCKED: USER                              x       y       z     vdW  Elec       q    Type
DOCKED: USER                           _______ _______ _______ _____ _____    ______ ____
DOCKED: ROOT
DOCKED: ATOM      1  C   UNL     1     138.270  75.475 222.339 -0.17 -0.06    +0.208 A  
DOCKED: ATOM      2  N   UNL     1     137.448  74.408 222.348 -0.07 +0.09    -0.251 N  
DOCKED: ATOM      3  N   UNL     1     136.257  74.741 222.683 -0.14 +0.05    -0.167 NA 
DOCKED: ATOM      4  C   UNL     1     135.722  75.695 222.972 -0.18 -0.02    +0.116 A  
DOCKED: ATOM      5  S   UNL     1     137.235  76.915 222.827 -0.26 +0.01    -0.080 S  
DOCKED: ATOM      6  H   UNL     1     137.789  73.454 222.104 -0.06 -0.06    +0.193 HD 
DOCKED: ENDROOT
DOCKED: BRANCH   1   7
DOCKED: ATOM      7  N   UNL     1     139.589  75.588 222.050 -0.39 +0.03    -0.184 NA 
DOCKED: BRANCH   7   8
DOCKED: ATOM      8  C   UNL     1     140.259  74.342 221.909 -0.09 -0.02    +0.251 C  
DOCKED: ATOM      9  O   UNL     1     139.980  73.399 222.718 -0.74 +0.01    -0.272 OA 
DOCKED: BRANCH   8  10
DOCKED: ATOM     10  C   UNL     1     141.259  74.189 220.823 -0.24 -0.02    +0.086 C  
DOCKED: ATOM     11  C   UNL     1     141.759  75.532 220.372 -0.27 -0.01    +0.019 C  
DOCKED: BRANCH  10  12
DOCKED: ATOM     12  C   UNL     1     140.648  73.420 219.675 -0.09 +0.00    -0.001 C  
DOCKED: ATOM     13  C   UNL     1     141.650  73.266 218.568 -0.06 -0.00    +0.014 C  
DOCKED: ATOM     14  C   UNL     1     139.416  74.099 219.136 -0.04 -0.00    +0.014 C  
DOCKED: BRANCH  12  15
DOCKED: ATOM     15  C   UNL     1     140.201  72.049 220.173 -0.07 -0.03    +0.163 C  
DOCKED: BRANCH  15  16
DOCKED: ATOM     16  O   UNL     1     138.957  72.179 220.737 -0.02 +0.08    -0.396 OA 
DOCKED: ATOM     17  H   UNL     1     138.967  71.819 221.671 +0.05 -0.04    +0.210 HD 
DOCKED: ENDBRANCH  15  16
DOCKED: ENDBRANCH  12  15
DOCKED: ENDBRANCH  10  12
DOCKED: ENDBRANCH   8  10
DOCKED: ENDBRANCH   7   8
DOCKED: ENDBRANCH   1   7
DOCKED: BRANCH   4  18
DOCKED: ATOM     18  C   UNL     1     134.520  76.491 223.402 -0.14 -0.01    +0.070 C  
DOCKED: BRANCH  18  19
DOCKED: ATOM     19  C   UNL     1     134.128  76.355 224.817 -0.24 -0.00    +0.008 C  
DOCKED: BRANCH  19  20
DOCKED: ATOM     20  C   UNL     1     132.874  75.651 225.153 -0.18 -0.00    +0.008 C  
DOCKED: BRANCH  20  21
DOCKED: ATOM     21  C   UNL     1     132.911  74.426 225.979 -0.27 -0.00    +0.070 C  
DOCKED: BRANCH  21  22
DOCKED: ATOM     22  C   UNL     1     134.029  73.578 225.435 -0.25 -0.00    +0.116 A  
DOCKED: ATOM     23  N   UNL     1     135.152  73.790 224.960 -0.22 +0.02    -0.167 NA 
DOCKED: ATOM     24  S   UNL     1     133.926  71.756 225.357 -0.27 +0.01    -0.080 S  
DOCKED: ATOM     25  N   UNL     1     135.990  72.917 224.537 +0.01 +0.06    -0.251 N  
DOCKED: ATOM     26  C   UNL     1     135.659  71.644 224.595 -0.04 -0.03    +0.208 A  
DOCKED: ATOM     27  H   UNL     1     136.951  73.209 224.137 -0.54 -0.14    +0.193 HD 
DOCKED: BRANCH  26  28
DOCKED: ATOM     28  N   UNL     1     136.165  70.540 224.300 -0.13 +0.02    -0.183 NA 
DOCKED: BRANCH  28  29
DOCKED: ATOM     29  C   UNL     1     137.311  70.489 223.458 -0.13 -0.04    +0.255 C  
DOCKED: ATOM     30  O   UNL     1     137.778  71.560 222.992 -0.13 +0.07    -0.272 OA 
DOCKED: BRANCH  29  31
DOCKED: ATOM     31  C   UNL     1     137.924  69.151 223.152 -0.19 -0.02    +0.123 C  
DOCKED: ATOM     32  C   UNL     1     139.134  69.369 222.257 -0.10 -0.05    +0.243 C  
DOCKED: ATOM     33  C   UNL     1     138.457  68.548 224.439 -0.29 -0.00    +0.056 C  
DOCKED: ATOM     34  O   UNL     1     139.956  70.332 222.895 -0.04 +0.08    -0.492 OA 
DOCKED: ATOM     35  C   UNL     1     139.293  69.617 225.094 -0.40 +0.00    -0.005 A  
DOCKED: ATOM     36  C   UNL     1     140.016  70.475 224.277 -0.32 -0.02    +0.122 A  
DOCKED: ATOM     37  C   UNL     1     139.337  69.740 226.480 -0.43 -0.00    +0.007 A  
DOCKED: ATOM     38  C   UNL     1     140.798  71.472 224.851 -0.45 -0.01    +0.047 A  
DOCKED: ATOM     39  C   UNL     1     140.125  70.744 227.050 -0.57 -0.00    +0.001 A  
DOCKED: ATOM     40  C   UNL     1     140.857  71.613 226.241 -0.66 -0.00    +0.004 A  
DOCKED: ENDBRANCH  29  31
DOCKED: ENDBRANCH  28  29
DOCKED: ENDBRANCH  26  28
DOCKED: ENDBRANCH  21  22
DOCKED: ENDBRANCH  20  21
DOCKED: ENDBRANCH  19  20
DOCKED: ENDBRANCH  18  19
DOCKED: ENDBRANCH   4  18
DOCKED: TORSDOF 14
DOCKED: TER
DOCKED: ENDMDL
________________________________________________________________________________


    FINAL DOCKED STATE:
    ________________________


Run:   11 / 20
Time taken for this run:   0.356s

DOCKED: MODEL        11
DOCKED: USER    Run = 11
DOCKED: USER
DOCKED: USER    Estimated Free Energy of Binding    =  -4.00 kcal/mol  [=(1)+(2)+(3)-(4)]
DOCKED: USER
DOCKED: USER    (1) Final Intermolecular Energy     =  -8.18 kcal/mol
DOCKED: USER        vdW + Hbond + desolv Energy     =  -8.08 kcal/mol
DOCKED: USER        Electrostatic Energy            =  -0.10 kcal/mol
DOCKED: USER        Moving Ligand-Fixed Receptor    =  -8.18 kcal/mol
DOCKED: USER        Moving Ligand-Moving Receptor   =  +0.00 kcal/mol
DOCKED: USER    (2) Final Total Internal Energy     =  -8.22 kcal/mol
DOCKED: USER    (3) Torsional Free Energy           =  +4.18 kcal/mol
DOCKED: USER    (4) Unbound System's Energy         =  -8.22 kcal/mol
DOCKED: USER
DOCKED: USER
DOCKED: REMARK SMILES C[C@@H](C(=O)/N=c1/[nH]nc(CCCCc2n[nH]/c(=N/C(=O)[C@H]3COc4ccccc4C3)s2)s1)C(C)(C)CO
DOCKED: REMARK SMILES IDX 6 1 7 2 8 3 9 4 32 5 5 7 3 8 4 9 2 10 1 11 33 12 34 13 35 14
DOCKED: REMARK SMILES IDX 36 15 37 16 10 18 11 19 12 20 13 21 14 22 15 23 31 24 16 25
DOCKED: REMARK SMILES IDX 17 26 18 28 19 29 20 30 21 31 22 32 30 33 23 34 29 35 24 36
DOCKED: REMARK SMILES IDX 28 37 25 38 27 39 26 40
DOCKED: REMARK H PARENT 7 6 37 17 16 27
DOCKED: USER                              x       y       z     vdW  Elec       q    Type
DOCKED: USER                           _______ _______ _______ _____ _____    ______ ____
DOCKED: ROOT
DOCKED: ATOM      1  C   UNL     1     138.757  78.057 222.196 -0.17 -0.04    +0.208 A  
DOCKED: ATOM      2  N   UNL     1     139.625  77.236 221.573 -0.13 +0.06    -0.251 N  
DOCKED: ATOM      3  N   UNL     1     139.168  76.041 221.506 -0.18 +0.04    -0.167 NA 
DOCKED: ATOM      4  C   UNL     1     138.229  75.501 221.834 -0.20 -0.03    +0.116 A  
DOCKED: ATOM      5  S   UNL     1     137.312  77.016 222.650 -0.29 +0.01    -0.080 S  
DOCKED: ATOM      6  H   UNL     1     140.538  77.582 221.210 +0.08 -0.07    +0.193 HD 
DOCKED: ENDROOT
DOCKED: BRANCH   1   7
DOCKED: ATOM      7  N   UNL     1     138.824  79.380 222.485 -0.16 +0.03    -0.184 NA 
DOCKED: BRANCH   7   8
DOCKED: ATOM      8  C   UNL     1     139.952  80.037 221.923 -0.16 -0.06    +0.251 C  
DOCKED: ATOM      9  O   UNL     1     140.310  79.742 220.737 -0.08 +0.08    -0.272 OA 
DOCKED: BRANCH   8  10
DOCKED: ATOM     10  C   UNL     1     140.672  81.044 222.743 -0.38 -0.01    +0.086 C  
DOCKED: ATOM     11  C   UNL     1     140.968  82.273 221.932 -0.34 -0.00    +0.019 C  
DOCKED: BRANCH  10  12
DOCKED: ATOM     12  C   UNL     1     141.939  80.436 223.296 -0.63 +0.00    -0.001 C  
DOCKED: ATOM     13  C   UNL     1     142.557  81.363 224.303 -0.49 -0.00    +0.014 C  
DOCKED: ATOM     14  C   UNL     1     142.943  80.144 222.212 -0.33 -0.01    +0.014 C  
DOCKED: BRANCH  12  15
DOCKED: ATOM     15  C   UNL     1     141.609  79.098 223.949 -0.46 -0.04    +0.163 C  
DOCKED: BRANCH  15  16
DOCKED: ATOM     16  O   UNL     1     141.719  78.114 222.997 -0.24 +0.19    -0.396 OA 
DOCKED: ATOM     17  H   UNL     1     141.351  78.441 222.126 +0.09 -0.09    +0.210 HD 
DOCKED: ENDBRANCH  15  16
DOCKED: ENDBRANCH  12  15
DOCKED: ENDBRANCH  10  12
DOCKED: ENDBRANCH   8  10
DOCKED: ENDBRANCH   7   8
DOCKED: ENDBRANCH   1   7
DOCKED: BRANCH   4  18
DOCKED: ATOM     18  C   UNL     1     137.351  74.289 221.983 -0.15 -0.02    +0.070 C  
DOCKED: BRANCH  18  19
DOCKED: ATOM     19  C   UNL     1     137.912  73.021 221.478 -0.14 -0.00    +0.008 C  
DOCKED: BRANCH  19  20
DOCKED: ATOM     20  C   UNL     1     138.831  72.248 222.336 -0.22 -0.00    +0.008 C  
DOCKED: BRANCH  20  21
DOCKED: ATOM     21  C   UNL     1     140.166  71.862 221.831 -0.23 -0.01    +0.070 C  
DOCKED: BRANCH  21  22
DOCKED: ATOM     22  C   UNL     1     140.863  73.140 221.449 -0.24 -0.01    +0.116 A  
DOCKED: ATOM     23  N   UNL     1     141.073  74.232 221.993 -0.59 +0.00    -0.167 NA 
DOCKED: ATOM     24  S   UNL     1     141.674  73.365 219.827 -0.18 +0.02    -0.080 S  
DOCKED: ATOM     25  N   UNL     1     141.706  75.232 221.499 -0.15 +0.08    -0.251 N  
DOCKED: ATOM     26  C   UNL     1     142.201  75.129 220.284 -0.21 -0.08    +0.208 A  
DOCKED: ATOM     27  H   UNL     1     141.834  76.146 222.061 -0.51 -0.12    +0.193 HD 
DOCKED: BRANCH  26  28
DOCKED: ATOM     28  N   UNL     1     142.849  75.837 219.484 -0.23 +0.10    -0.183 NA 
DOCKED: BRANCH  28  29
DOCKED: ATOM     29  C   UNL     1     142.587  77.233 219.402 -0.20 -0.17    +0.255 C  
DOCKED: ATOM     30  O   UNL     1     142.209  77.848 220.432 -0.23 +0.20    -0.272 OA 
DOCKED: BRANCH  29  31
DOCKED: ATOM     31  C   UNL     1     142.770  77.927 218.082 -0.25 -0.10    +0.123 C  
DOCKED: ATOM     32  C   UNL     1     142.847  76.872 216.989 -0.17 -0.16    +0.243 C  
DOCKED: ATOM     33  C   UNL     1     141.532  78.752 217.783 -0.18 -0.03    +0.056 C  
DOCKED: ATOM     34  O   UNL     1     141.709  76.039 217.134 +0.00 +0.20    -0.492 OA 
DOCKED: ATOM     35  C   UNL     1     140.354  77.837 217.983 -0.06 +0.00    -0.005 A  
DOCKED: ATOM     36  C   UNL     1     140.499  76.498 217.644 -0.03 -0.04    +0.122 A  
DOCKED: ATOM     37  C   UNL     1     139.152  78.320 218.495 -0.03 -0.00    +0.007 A  
DOCKED: ATOM     38  C   UNL     1     139.428  75.627 217.817 -0.02 -0.01    +0.047 A  
DOCKED: ATOM     39  C   UNL     1     138.081  77.438 218.666 -0.01 -0.00    +0.001 A  
DOCKED: ATOM     40  C   UNL     1     138.213  76.091 218.330 -0.01 -0.00    +0.004 A  
DOCKED: ENDBRANCH  29  31
DOCKED: ENDBRANCH  28  29
DOCKED: ENDBRANCH  26  28
DOCKED: ENDBRANCH  21  22
DOCKED: ENDBRANCH  20  21
DOCKED: ENDBRANCH  19  20
DOCKED: ENDBRANCH  18  19
DOCKED: ENDBRANCH   4  18
DOCKED: TORSDOF 14
DOCKED: TER
DOCKED: ENDMDL
________________________________________________________________________________


    FINAL DOCKED STATE:
    ________________________


Run:   12 / 20
Time taken for this run:   0.356s

DOCKED: MODEL        12
DOCKED: USER    Run = 12
DOCKED: USER
DOCKED: USER    Estimated Free Energy of Binding    =  -3.62 kcal/mol  [=(1)+(2)+(3)-(4)]
DOCKED: USER
DOCKED: USER    (1) Final Intermolecular Energy     =  -7.80 kcal/mol
DOCKED: USER        vdW + Hbond + desolv Energy     =  -7.80 kcal/mol
DOCKED: USER        Electrostatic Energy            =  +0.00 kcal/mol
DOCKED: USER        Moving Ligand-Fixed Receptor    =  -7.80 kcal/mol
DOCKED: USER        Moving Ligand-Moving Receptor   =  +0.00 kcal/mol
DOCKED: USER    (2) Final Total Internal Energy     =  -8.03 kcal/mol
DOCKED: USER    (3) Torsional Free Energy           =  +4.18 kcal/mol
DOCKED: USER    (4) Unbound System's Energy         =  -8.03 kcal/mol
DOCKED: USER
DOCKED: USER
DOCKED: REMARK SMILES C[C@@H](C(=O)/N=c1/[nH]nc(CCCCc2n[nH]/c(=N/C(=O)[C@H]3COc4ccccc4C3)s2)s1)C(C)(C)CO
DOCKED: REMARK SMILES IDX 6 1 7 2 8 3 9 4 32 5 5 7 3 8 4 9 2 10 1 11 33 12 34 13 35 14
DOCKED: REMARK SMILES IDX 36 15 37 16 10 18 11 19 12 20 13 21 14 22 15 23 31 24 16 25
DOCKED: REMARK SMILES IDX 17 26 18 28 19 29 20 30 21 31 22 32 30 33 23 34 29 35 24 36
DOCKED: REMARK SMILES IDX 28 37 25 38 27 39 26 40
DOCKED: REMARK H PARENT 7 6 37 17 16 27
DOCKED: USER                              x       y       z     vdW  Elec       q    Type
DOCKED: USER                           _______ _______ _______ _____ _____    ______ ____
DOCKED: ROOT
DOCKED: ATOM      1  C   UNL     1     141.927  77.554 218.057 -0.15 -0.12    +0.208 A  
DOCKED: ATOM      2  N   UNL     1     140.780  78.215 218.307 -0.04 +0.11    -0.251 N  
DOCKED: ATOM      3  N   UNL     1     140.496  79.029 217.360 -0.04 +0.08    -0.167 NA 
DOCKED: ATOM      4  C   UNL     1     140.960  79.335 216.373 -0.07 -0.07    +0.116 A  
DOCKED: ATOM      5  S   UNL     1     142.525  78.174 216.433 -0.21 +0.08    -0.080 S  
DOCKED: ATOM      6  H   UNL     1     140.231  78.046 219.176 +0.05 -0.07    +0.193 HD 
DOCKED: ENDROOT
DOCKED: BRANCH   1   7
DOCKED: ATOM      7  N   UNL     1     142.594  76.615 218.771 -0.20 +0.10    -0.184 NA 
DOCKED: BRANCH   7   8
DOCKED: ATOM      8  C   UNL     1     142.185  76.523 220.129 -0.18 -0.15    +0.251 C  
DOCKED: ATOM      9  O   UNL     1     141.823  77.583 220.736 -0.22 +0.17    -0.272 OA 
DOCKED: BRANCH   8  10
DOCKED: ATOM     10  C   UNL     1     142.198  75.193 220.790 -0.20 -0.04    +0.086 C  
DOCKED: ATOM     11  C   UNL     1     143.152  74.266 220.092 -0.33 -0.01    +0.019 C  
DOCKED: BRANCH  10  12
DOCKED: ATOM     12  C   UNL     1     140.799  74.624 220.810 -0.26 +0.00    -0.001 C  
DOCKED: ATOM     13  C   UNL     1     140.794  73.298 221.515 -0.29 -0.00    +0.014 C  
DOCKED: ATOM     14  C   UNL     1     140.242  74.447 219.422 -0.07 -0.00    +0.014 C  
DOCKED: BRANCH  12  15
DOCKED: ATOM     15  C   UNL     1     139.871  75.601 221.525 -0.25 -0.04    +0.163 C  
DOCKED: BRANCH  15  16
DOCKED: ATOM     16  O   UNL     1     139.456  76.544 220.618 -0.03 +0.10    -0.396 OA 
DOCKED: ATOM     17  H   UNL     1     139.676  77.461 220.955 +0.07 -0.06    +0.210 HD 
DOCKED: ENDBRANCH  15  16
DOCKED: ENDBRANCH  12  15
DOCKED: ENDBRANCH  10  12
DOCKED: ENDBRANCH   8  10
DOCKED: ENDBRANCH   7   8
DOCKED: ENDBRANCH   1   7
DOCKED: BRANCH   4  18
DOCKED: ATOM     18  C   UNL     1     141.019  80.132 215.099 -0.07 -0.04    +0.070 C  
DOCKED: BRANCH  18  19
DOCKED: ATOM     19  C   UNL     1     142.225  80.959 214.911 -0.11 -0.01    +0.008 C  
DOCKED: BRANCH  19  20
DOCKED: ATOM     20  C   UNL     1     142.411  82.163 215.746 -0.17 -0.01    +0.008 C  
DOCKED: BRANCH  20  21
DOCKED: ATOM     21  C   UNL     1     143.308  82.118 216.921 -0.29 -0.07    +0.070 C  
DOCKED: BRANCH  21  22
DOCKED: ATOM     22  C   UNL     1     142.477  81.622 218.073 -0.24 -0.08    +0.116 A  
DOCKED: ATOM     23  N   UNL     1     142.569  80.708 218.904 -0.20 +0.11    -0.167 NA 
DOCKED: ATOM     24  S   UNL     1     140.897  82.406 218.550 -0.19 +0.03    -0.080 S  
DOCKED: ATOM     25  N   UNL     1     141.739  80.430 219.840 -0.18 +0.12    -0.251 N  
DOCKED: ATOM     26  C   UNL     1     140.657  81.169 219.967 -0.14 -0.07    +0.208 A  
DOCKED: ATOM     27  H   UNL     1     141.914  79.605 220.517 +0.03 -0.11    +0.193 HD 
DOCKED: BRANCH  26  28
DOCKED: ATOM     28  N   UNL     1     139.654  81.224 220.710 -0.08 +0.04    -0.183 NA 
DOCKED: BRANCH  28  29
DOCKED: ATOM     29  C   UNL     1     138.979  80.027 221.077 -0.07 -0.06    +0.255 C  
DOCKED: ATOM     30  O   UNL     1     139.074  79.016 220.336 -0.03 +0.07    -0.272 OA 
DOCKED: BRANCH  29  31
DOCKED: ATOM     31  C   UNL     1     138.170  80.013 222.344 -0.17 -0.02    +0.123 C  
DOCKED: ATOM     32  C   UNL     1     138.179  78.600 222.907 -0.14 -0.04    +0.243 C  
DOCKED: ATOM     33  C   UNL     1     138.860  80.882 223.379 -0.33 -0.01    +0.056 C  
DOCKED: ATOM     34  O   UNL     1     139.536  78.197 222.996 -0.10 +0.09    -0.492 OA 
DOCKED: ATOM     35  C   UNL     1     140.299  80.440 223.412 -0.45 +0.00    -0.005 A  
DOCKED: ATOM     36  C   UNL     1     140.576  79.094 223.215 -0.40 -0.03    +0.122 A  
DOCKED: ATOM     37  C   UNL     1     141.324  81.358 223.634 -0.46 -0.00    +0.007 A  
DOCKED: ATOM     38  C   UNL     1     141.896  78.654 223.240 -0.52 -0.02    +0.047 A  
DOCKED: ATOM     39  C   UNL     1     142.647  80.908 223.657 -0.66 -0.00    +0.001 A  
DOCKED: ATOM     40  C   UNL     1     142.939  79.558 223.460 -0.40 -0.00    +0.004 A  
DOCKED: ENDBRANCH  29  31
DOCKED: ENDBRANCH  28  29
DOCKED: ENDBRANCH  26  28
DOCKED: ENDBRANCH  21  22
DOCKED: ENDBRANCH  20  21
DOCKED: ENDBRANCH  19  20
DOCKED: ENDBRANCH  18  19
DOCKED: ENDBRANCH   4  18
DOCKED: TORSDOF 14
DOCKED: TER
DOCKED: ENDMDL
________________________________________________________________________________


    FINAL DOCKED STATE:
    ________________________


Run:   13 / 20
Time taken for this run:   0.356s

DOCKED: MODEL        13
DOCKED: USER    Run = 13
DOCKED: USER
DOCKED: USER    Estimated Free Energy of Binding    =  -4.01 kcal/mol  [=(1)+(2)+(3)-(4)]
DOCKED: USER
DOCKED: USER    (1) Final Intermolecular Energy     =  -8.19 kcal/mol
DOCKED: USER        vdW + Hbond + desolv Energy     =  -8.09 kcal/mol
DOCKED: USER        Electrostatic Energy            =  -0.10 kcal/mol
DOCKED: USER        Moving Ligand-Fixed Receptor    =  -8.19 kcal/mol
DOCKED: USER        Moving Ligand-Moving Receptor   =  +0.00 kcal/mol
DOCKED: USER    (2) Final Total Internal Energy     =  -8.01 kcal/mol
DOCKED: USER    (3) Torsional Free Energy           =  +4.18 kcal/mol
DOCKED: USER    (4) Unbound System's Energy         =  -8.01 kcal/mol
DOCKED: USER
DOCKED: USER
DOCKED: REMARK SMILES C[C@@H](C(=O)/N=c1/[nH]nc(CCCCc2n[nH]/c(=N/C(=O)[C@H]3COc4ccccc4C3)s2)s1)C(C)(C)CO
DOCKED: REMARK SMILES IDX 6 1 7 2 8 3 9 4 32 5 5 7 3 8 4 9 2 10 1 11 33 12 34 13 35 14
DOCKED: REMARK SMILES IDX 36 15 37 16 10 18 11 19 12 20 13 21 14 22 15 23 31 24 16 25
DOCKED: REMARK SMILES IDX 17 26 18 28 19 29 20 30 21 31 22 32 30 33 23 34 29 35 24 36
DOCKED: REMARK SMILES IDX 28 37 25 38 27 39 26 40
DOCKED: REMARK H PARENT 7 6 37 17 16 27
DOCKED: USER                              x       y       z     vdW  Elec       q    Type
DOCKED: USER                           _______ _______ _______ _____ _____    ______ ____
DOCKED: ROOT
DOCKED: ATOM      1  C   UNL     1     138.618  77.624 222.356 -0.20 -0.04    +0.208 A  
DOCKED: ATOM      2  N   UNL     1     139.485  76.913 221.611 -0.14 +0.06    -0.251 N  
DOCKED: ATOM      3  N   UNL     1     139.061  75.720 221.414 -0.17 +0.04    -0.167 NA 
DOCKED: ATOM      4  C   UNL     1     138.150  75.115 221.705 -0.18 -0.03    +0.116 A  
DOCKED: ATOM      5  S   UNL     1     137.220  76.489 222.727 -0.31 +0.02    -0.080 S  
DOCKED: ATOM      6  H   UNL     1     140.375  77.329 221.262 +0.08 -0.06    +0.193 HD 
DOCKED: ENDROOT
DOCKED: BRANCH   1   7
DOCKED: ATOM      7  N   UNL     1     138.658  78.904 222.801 -0.19 +0.03    -0.184 NA 
DOCKED: BRANCH   7   8
DOCKED: ATOM      8  C   UNL     1     139.638  79.709 222.158 -0.17 -0.05    +0.251 C  
DOCKED: ATOM      9  O   UNL     1     139.883  79.513 220.924 -0.07 +0.08    -0.272 OA 
DOCKED: BRANCH   8  10
DOCKED: ATOM     10  C   UNL     1     140.340  80.748 222.953 -0.37 -0.01    +0.086 C  
DOCKED: ATOM     11  C   UNL     1     140.382  82.049 222.203 -0.27 -0.00    +0.019 C  
DOCKED: BRANCH  10  12
DOCKED: ATOM     12  C   UNL     1     141.732  80.270 223.296 -0.61 +0.00    -0.001 C  
DOCKED: ATOM     13  C   UNL     1     142.402  81.253 224.212 -0.57 -0.00    +0.014 C  
DOCKED: ATOM     14  C   UNL     1     142.581  80.081 222.066 -0.46 -0.01    +0.014 C  
DOCKED: BRANCH  12  15
DOCKED: ATOM     15  C   UNL     1     141.640  78.904 223.969 -0.43 -0.04    +0.163 C  
DOCKED: BRANCH  15  16
DOCKED: ATOM     16  O   UNL     1     141.609  77.942 222.991 -0.24 +0.19    -0.396 OA 
DOCKED: ATOM     17  H   UNL     1     141.130  78.291 222.184 +0.10 -0.09    +0.210 HD 
DOCKED: ENDBRANCH  15  16
DOCKED: ENDBRANCH  12  15
DOCKED: ENDBRANCH  10  12
DOCKED: ENDBRANCH   8  10
DOCKED: ENDBRANCH   7   8
DOCKED: ENDBRANCH   1   7
DOCKED: BRANCH   4  18
DOCKED: ATOM     18  C   UNL     1     137.313  73.865 221.733 -0.13 -0.02    +0.070 C  
DOCKED: BRANCH  18  19
DOCKED: ATOM     19  C   UNL     1     137.961  72.668 222.301 -0.13 -0.00    +0.008 C  
DOCKED: BRANCH  19  20
DOCKED: ATOM     20  C   UNL     1     138.851  71.857 221.446 -0.14 -0.00    +0.008 C  
DOCKED: BRANCH  20  21
DOCKED: ATOM     21  C   UNL     1     140.274  71.690 221.808 -0.23 -0.01    +0.070 C  
DOCKED: BRANCH  21  22
DOCKED: ATOM     22  C   UNL     1     140.958  72.984 221.456 -0.24 -0.01    +0.116 A  
DOCKED: ATOM     23  N   UNL     1     141.110  74.084 222.005 -0.54 -0.00    -0.167 NA 
DOCKED: ATOM     24  S   UNL     1     141.849  73.224 219.880 -0.19 +0.02    -0.080 S  
DOCKED: ATOM     25  N   UNL     1     141.743  75.098 221.540 -0.12 +0.08    -0.251 N  
DOCKED: ATOM     26  C   UNL     1     142.306  75.002 220.354 -0.21 -0.08    +0.208 A  
DOCKED: ATOM     27  H   UNL     1     141.817  76.017 222.103 -0.51 -0.11    +0.193 HD 
DOCKED: BRANCH  26  28
DOCKED: ATOM     28  N   UNL     1     142.977  75.724 219.586 -0.25 +0.10    -0.183 NA 
DOCKED: BRANCH  28  29
DOCKED: ATOM     29  C   UNL     1     142.662  77.105 219.457 -0.21 -0.17    +0.255 C  
DOCKED: ATOM     30  O   UNL     1     142.204  77.726 220.450 -0.23 +0.20    -0.272 OA 
DOCKED: BRANCH  29  31
DOCKED: ATOM     31  C   UNL     1     142.886  77.777 218.131 -0.24 -0.10    +0.123 C  
DOCKED: ATOM     32  C   UNL     1     142.959  76.706 217.054 -0.17 -0.15    +0.243 C  
DOCKED: ATOM     33  C   UNL     1     141.673  78.626 217.797 -0.20 -0.04    +0.056 C  
DOCKED: ATOM     34  O   UNL     1     141.800  75.901 217.188 +0.00 +0.20    -0.492 OA 
DOCKED: ATOM     35  C   UNL     1     140.470  77.740 217.987 -0.07 +0.00    -0.005 A  
DOCKED: ATOM     36  C   UNL     1     140.591  76.394 217.668 -0.03 -0.04    +0.122 A  
DOCKED: ATOM     37  C   UNL     1     139.270  78.257 218.469 -0.03 -0.00    +0.007 A  
DOCKED: ATOM     38  C   UNL     1     139.498  75.550 217.832 -0.02 -0.01    +0.047 A  
DOCKED: ATOM     39  C   UNL     1     138.176  77.402 218.631 -0.01 -0.00    +0.001 A  
DOCKED: ATOM     40  C   UNL     1     138.284  76.048 218.315 -0.01 -0.00    +0.004 A  
DOCKED: ENDBRANCH  29  31
DOCKED: ENDBRANCH  28  29
DOCKED: ENDBRANCH  26  28
DOCKED: ENDBRANCH  21  22
DOCKED: ENDBRANCH  20  21
DOCKED: ENDBRANCH  19  20
DOCKED: ENDBRANCH  18  19
DOCKED: ENDBRANCH   4  18
DOCKED: TORSDOF 14
DOCKED: TER
DOCKED: ENDMDL
________________________________________________________________________________


    FINAL DOCKED STATE:
    ________________________


Run:   14 / 20
Time taken for this run:   0.356s

DOCKED: MODEL        14
DOCKED: USER    Run = 14
DOCKED: USER
DOCKED: USER    Estimated Free Energy of Binding    =  -3.97 kcal/mol  [=(1)+(2)+(3)-(4)]
DOCKED: USER
DOCKED: USER    (1) Final Intermolecular Energy     =  -8.14 kcal/mol
DOCKED: USER        vdW + Hbond + desolv Energy     =  -8.05 kcal/mol
DOCKED: USER        Electrostatic Energy            =  -0.10 kcal/mol
DOCKED: USER        Moving Ligand-Fixed Receptor    =  -8.14 kcal/mol
DOCKED: USER        Moving Ligand-Moving Receptor   =  +0.00 kcal/mol
DOCKED: USER    (2) Final Total Internal Energy     =  -8.25 kcal/mol
DOCKED: USER    (3) Torsional Free Energy           =  +4.18 kcal/mol
DOCKED: USER    (4) Unbound System's Energy         =  -8.25 kcal/mol
DOCKED: USER
DOCKED: USER
DOCKED: REMARK SMILES C[C@@H](C(=O)/N=c1/[nH]nc(CCCCc2n[nH]/c(=N/C(=O)[C@H]3COc4ccccc4C3)s2)s1)C(C)(C)CO
DOCKED: REMARK SMILES IDX 6 1 7 2 8 3 9 4 32 5 5 7 3 8 4 9 2 10 1 11 33 12 34 13 35 14
DOCKED: REMARK SMILES IDX 36 15 37 16 10 18 11 19 12 20 13 21 14 22 15 23 31 24 16 25
DOCKED: REMARK SMILES IDX 17 26 18 28 19 29 20 30 21 31 22 32 30 33 23 34 29 35 24 36
DOCKED: REMARK SMILES IDX 28 37 25 38 27 39 26 40
DOCKED: REMARK H PARENT 7 6 37 17 16 27
DOCKED: USER                              x       y       z     vdW  Elec       q    Type
DOCKED: USER                           _______ _______ _______ _____ _____    ______ ____
DOCKED: ROOT
DOCKED: ATOM      1  C   UNL     1     138.780  78.035 222.189 -0.18 -0.04    +0.208 A  
DOCKED: ATOM      2  N   UNL     1     139.647  77.231 221.544 -0.13 +0.06    -0.251 N  
DOCKED: ATOM      3  N   UNL     1     139.206  76.031 221.475 -0.17 +0.04    -0.167 NA 
DOCKED: ATOM      4  C   UNL     1     138.281  75.475 221.816 -0.20 -0.03    +0.116 A  
DOCKED: ATOM      5  S   UNL     1     137.358  76.970 222.662 -0.29 +0.01    -0.080 S  
DOCKED: ATOM      6  H   UNL     1     140.548  77.593 221.166 +0.08 -0.07    +0.193 HD 
DOCKED: ENDROOT
DOCKED: BRANCH   1   7
DOCKED: ATOM      7  N   UNL     1     138.834  79.356 222.487 -0.16 +0.03    -0.184 NA 
DOCKED: BRANCH   7   8
DOCKED: ATOM      8  C   UNL     1     139.946  80.033 221.917 -0.16 -0.06    +0.251 C  
DOCKED: ATOM      9  O   UNL     1     140.289  79.755 220.722 -0.08 +0.08    -0.272 OA 
DOCKED: BRANCH   8  10
DOCKED: ATOM     10  C   UNL     1     140.668  81.037 222.738 -0.38 -0.01    +0.086 C  
DOCKED: ATOM     11  C   UNL     1     140.960  82.269 221.930 -0.34 -0.00    +0.019 C  
DOCKED: BRANCH  10  12
DOCKED: ATOM     12  C   UNL     1     141.938  80.428 223.285 -0.63 +0.00    -0.001 C  
DOCKED: ATOM     13  C   UNL     1     142.560  81.353 224.291 -0.50 -0.00    +0.014 C  
DOCKED: ATOM     14  C   UNL     1     142.937  80.138 222.195 -0.31 -0.01    +0.014 C  
DOCKED: BRANCH  12  15
DOCKED: ATOM     15  C   UNL     1     141.610  79.089 223.936 -0.46 -0.04    +0.163 C  
DOCKED: BRANCH  15  16
DOCKED: ATOM     16  O   UNL     1     141.709  78.108 222.980 -0.24 +0.19    -0.396 OA 
DOCKED: ATOM     17  H   UNL     1     141.321  78.433 222.117 +0.09 -0.09    +0.210 HD 
DOCKED: ENDBRANCH  15  16
DOCKED: ENDBRANCH  12  15
DOCKED: ENDBRANCH  10  12
DOCKED: ENDBRANCH   8  10
DOCKED: ENDBRANCH   7   8
DOCKED: ENDBRANCH   1   7
DOCKED: BRANCH   4  18
DOCKED: ATOM     18  C   UNL     1     137.423  74.250 221.971 -0.15 -0.02    +0.070 C  
DOCKED: BRANCH  18  19
DOCKED: ATOM     19  C   UNL     1     137.996  72.992 221.457 -0.14 -0.00    +0.008 C  
DOCKED: BRANCH  19  20
DOCKED: ATOM     20  C   UNL     1     138.836  72.166 222.348 -0.22 -0.00    +0.008 C  
DOCKED: BRANCH  20  21
DOCKED: ATOM     21  C   UNL     1     140.210  71.800 221.941 -0.24 -0.01    +0.070 C  
DOCKED: BRANCH  21  22
DOCKED: ATOM     22  C   UNL     1     140.888  73.080 221.532 -0.24 -0.01    +0.116 A  
DOCKED: ATOM     23  N   UNL     1     141.072  74.190 222.049 -0.53 -0.00    -0.167 NA 
DOCKED: ATOM     24  S   UNL     1     141.713  73.278 219.914 -0.19 +0.02    -0.080 S  
DOCKED: ATOM     25  N   UNL     1     141.692  75.188 221.536 -0.14 +0.08    -0.251 N  
DOCKED: ATOM     26  C   UNL     1     142.203  75.062 220.330 -0.21 -0.08    +0.208 A  
DOCKED: ATOM     27  H   UNL     1     141.798  76.119 222.075 -0.49 -0.11    +0.193 HD 
DOCKED: BRANCH  26  28
DOCKED: ATOM     28  N   UNL     1     142.847  75.761 219.518 -0.23 +0.09    -0.183 NA 
DOCKED: BRANCH  28  29
DOCKED: ATOM     29  C   UNL     1     142.600  77.160 219.437 -0.21 -0.17    +0.255 C  
DOCKED: ATOM     30  O   UNL     1     142.215  77.776 220.463 -0.23 +0.20    -0.272 OA 
DOCKED: BRANCH  29  31
DOCKED: ATOM     31  C   UNL     1     142.808  77.856 218.121 -0.25 -0.10    +0.123 C  
DOCKED: ATOM     32  C   UNL     1     142.880  76.803 217.025 -0.17 -0.16    +0.243 C  
DOCKED: ATOM     33  C   UNL     1     141.586  78.701 217.812 -0.19 -0.03    +0.056 C  
DOCKED: ATOM     34  O   UNL     1     141.727  75.988 217.155 +0.00 +0.20    -0.492 OA 
DOCKED: ATOM     35  C   UNL     1     140.392  77.803 217.997 -0.06 +0.00    -0.005 A  
DOCKED: ATOM     36  C   UNL     1     140.519  76.464 217.654 -0.03 -0.04    +0.122 A  
DOCKED: ATOM     37  C   UNL     1     139.192  78.304 218.498 -0.03 -0.00    +0.007 A  
DOCKED: ATOM     38  C   UNL     1     139.433  75.609 217.813 -0.02 -0.01    +0.047 A  
DOCKED: ATOM     39  C   UNL     1     138.106  77.438 218.655 -0.01 -0.00    +0.001 A  
DOCKED: ATOM     40  C   UNL     1     138.220  76.091 218.315 -0.01 -0.00    +0.004 A  
DOCKED: ENDBRANCH  29  31
DOCKED: ENDBRANCH  28  29
DOCKED: ENDBRANCH  26  28
DOCKED: ENDBRANCH  21  22
DOCKED: ENDBRANCH  20  21
DOCKED: ENDBRANCH  19  20
DOCKED: ENDBRANCH  18  19
DOCKED: ENDBRANCH   4  18
DOCKED: TORSDOF 14
DOCKED: TER
DOCKED: ENDMDL
________________________________________________________________________________


    FINAL DOCKED STATE:
    ________________________


Run:   15 / 20
Time taken for this run:   0.356s

DOCKED: MODEL        15
DOCKED: USER    Run = 15
DOCKED: USER
DOCKED: USER    Estimated Free Energy of Binding    =  -3.96 kcal/mol  [=(1)+(2)+(3)-(4)]
DOCKED: USER
DOCKED: USER    (1) Final Intermolecular Energy     =  -8.14 kcal/mol
DOCKED: USER        vdW + Hbond + desolv Energy     =  -7.94 kcal/mol
DOCKED: USER        Electrostatic Energy            =  -0.19 kcal/mol
DOCKED: USER        Moving Ligand-Fixed Receptor    =  -8.14 kcal/mol
DOCKED: USER        Moving Ligand-Moving Receptor   =  +0.00 kcal/mol
DOCKED: USER    (2) Final Total Internal Energy     =  -7.31 kcal/mol
DOCKED: USER    (3) Torsional Free Energy           =  +4.18 kcal/mol
DOCKED: USER    (4) Unbound System's Energy         =  -7.31 kcal/mol
DOCKED: USER
DOCKED: USER
DOCKED: REMARK SMILES C[C@@H](C(=O)/N=c1/[nH]nc(CCCCc2n[nH]/c(=N/C(=O)[C@H]3COc4ccccc4C3)s2)s1)C(C)(C)CO
DOCKED: REMARK SMILES IDX 6 1 7 2 8 3 9 4 32 5 5 7 3 8 4 9 2 10 1 11 33 12 34 13 35 14
DOCKED: REMARK SMILES IDX 36 15 37 16 10 18 11 19 12 20 13 21 14 22 15 23 31 24 16 25
DOCKED: REMARK SMILES IDX 17 26 18 28 19 29 20 30 21 31 22 32 30 33 23 34 29 35 24 36
DOCKED: REMARK SMILES IDX 28 37 25 38 27 39 26 40
DOCKED: REMARK H PARENT 7 6 37 17 16 27
DOCKED: USER                              x       y       z     vdW  Elec       q    Type
DOCKED: USER                           _______ _______ _______ _____ _____    ______ ____
DOCKED: ROOT
DOCKED: ATOM      1  C   UNL     1     140.373  75.209 221.970 -0.21 -0.03    +0.208 A  
DOCKED: ATOM      2  N   UNL     1     141.075  76.355 221.885 -0.24 +0.09    -0.251 N  
DOCKED: ATOM      3  N   UNL     1     140.317  77.377 222.031 -0.25 +0.05    -0.167 NA 
DOCKED: ATOM      4  C   UNL     1     139.215  77.563 222.211 -0.25 -0.02    +0.116 A  
DOCKED: ATOM      5  S   UNL     1     138.627  75.705 222.261 -0.32 +0.02    -0.080 S  
DOCKED: ATOM      6  H   UNL     1     142.104  76.354 221.721 -0.50 -0.16    +0.193 HD 
DOCKED: ENDROOT
DOCKED: BRANCH   1   7
DOCKED: ATOM      7  N   UNL     1     140.758  73.912 221.878 -0.67 +0.01    -0.184 NA 
DOCKED: BRANCH   7   8
DOCKED: ATOM      8  C   UNL     1     141.231  73.541 220.590 -0.14 -0.05    +0.251 C  
DOCKED: ATOM      9  O   UNL     1     141.367  72.304 220.317 -0.09 +0.04    -0.272 OA 
DOCKED: BRANCH   8  10
DOCKED: ATOM     10  C   UNL     1     141.548  74.611 219.610 -0.14 -0.02    +0.086 C  
DOCKED: ATOM     11  C   UNL     1     140.896  74.327 218.288 -0.05 -0.00    +0.019 C  
DOCKED: BRANCH  10  12
DOCKED: ATOM     12  C   UNL     1     143.047  74.737 219.465 -0.30 +0.00    -0.001 C  
DOCKED: ATOM     13  C   UNL     1     143.472  74.268 218.104 -0.17 -0.00    +0.014 C  
DOCKED: ATOM     14  C   UNL     1     143.783  73.944 220.514 -0.39 -0.00    +0.014 C  
DOCKED: BRANCH  12  15
DOCKED: ATOM     15  C   UNL     1     143.448  76.195 219.667 -0.29 -0.11    +0.163 C  
DOCKED: BRANCH  15  16
DOCKED: ATOM     16  O   UNL     1     142.309  76.961 219.664 -0.16 +0.24    -0.396 OA 
DOCKED: ATOM     17  H   UNL     1     142.177  77.371 218.760 +0.07 -0.12    +0.210 HD 
DOCKED: ENDBRANCH  15  16
DOCKED: ENDBRANCH  12  15
DOCKED: ENDBRANCH  10  12
DOCKED: ENDBRANCH   8  10
DOCKED: ENDBRANCH   7   8
DOCKED: ENDBRANCH   1   7
DOCKED: BRANCH   4  18
DOCKED: ATOM     18  C   UNL     1     138.010  78.440 222.413 -0.21 -0.01    +0.070 C  
DOCKED: BRANCH  18  19
DOCKED: ATOM     19  C   UNL     1     138.261  79.745 223.052 -0.30 -0.00    +0.008 C  
DOCKED: BRANCH  19  20
DOCKED: ATOM     20  C   UNL     1     139.379  79.876 224.009 -0.36 -0.00    +0.008 C  
DOCKED: BRANCH  20  21
DOCKED: ATOM     21  C   UNL     1     140.438  80.880 223.776 -0.32 -0.01    +0.070 C  
DOCKED: BRANCH  21  22
DOCKED: ATOM     22  C   UNL     1     141.029  80.571 222.427 -0.35 -0.03    +0.116 A  
DOCKED: ATOM     23  N   UNL     1     141.779  79.701 221.966 -0.31 +0.07    -0.167 NA 
DOCKED: ATOM     24  S   UNL     1     140.698  81.601 220.955 -0.33 +0.02    -0.080 S  
DOCKED: ATOM     25  N   UNL     1     142.187  79.595 220.755 -0.12 +0.15    -0.251 N  
DOCKED: ATOM     26  C   UNL     1     141.789  80.488 219.874 -0.22 -0.10    +0.208 A  
DOCKED: ATOM     27  H   UNL     1     142.844  78.791 220.453 -0.29 -0.21    +0.193 HD 
DOCKED: BRANCH  26  28
DOCKED: ATOM     28  N   UNL     1     141.952  80.727 218.658 -0.21 +0.11    -0.183 NA 
DOCKED: BRANCH  28  29
DOCKED: ATOM     29  C   UNL     1     142.449  79.710 217.797 -0.20 -0.24    +0.255 C  
DOCKED: ATOM     30  O   UNL     1     143.238  78.846 218.258 -0.18 +0.29    -0.272 OA 
DOCKED: BRANCH  29  31
DOCKED: ATOM     31  C   UNL     1     142.012  79.703 216.359 -0.09 -0.12    +0.123 C  
DOCKED: ATOM     32  C   UNL     1     142.020  78.267 215.859 -0.10 -0.20    +0.243 C  
DOCKED: ATOM     33  C   UNL     1     140.570  80.167 216.280 -0.06 -0.03    +0.056 C  
DOCKED: ATOM     34  O   UNL     1     141.254  77.503 216.776 -0.01 +0.25    -0.492 OA 
DOCKED: ATOM     35  C   UNL     1     139.807  79.354 217.292 -0.04 +0.00    -0.005 A  
DOCKED: ATOM     36  C   UNL     1     140.191  78.036 217.497 -0.03 -0.05    +0.122 A  
DOCKED: ATOM     37  C   UNL     1     138.745  79.910 218.001 -0.02 -0.00    +0.007 A  
DOCKED: ATOM     38  C   UNL     1     139.506  77.258 218.425 -0.03 -0.01    +0.047 A  
DOCKED: ATOM     39  C   UNL     1     138.061  79.122 218.932 -0.02 -0.00    +0.001 A  
DOCKED: ATOM     40  C   UNL     1     138.437  77.796 219.148 -0.03 -0.00    +0.004 A  
DOCKED: ENDBRANCH  29  31
DOCKED: ENDBRANCH  28  29
DOCKED: ENDBRANCH  26  28
DOCKED: ENDBRANCH  21  22
DOCKED: ENDBRANCH  20  21
DOCKED: ENDBRANCH  19  20
DOCKED: ENDBRANCH  18  19
DOCKED: ENDBRANCH   4  18
DOCKED: TORSDOF 14
DOCKED: TER
DOCKED: ENDMDL
________________________________________________________________________________


    FINAL DOCKED STATE:
    ________________________


Run:   16 / 20
Time taken for this run:   0.356s

DOCKED: MODEL        16
DOCKED: USER    Run = 16
DOCKED: USER
DOCKED: USER    Estimated Free Energy of Binding    =  -4.69 kcal/mol  [=(1)+(2)+(3)-(4)]
DOCKED: USER
DOCKED: USER    (1) Final Intermolecular Energy     =  -8.87 kcal/mol
DOCKED: USER        vdW + Hbond + desolv Energy     =  -8.66 kcal/mol
DOCKED: USER        Electrostatic Energy            =  -0.21 kcal/mol
DOCKED: USER        Moving Ligand-Fixed Receptor    =  -8.87 kcal/mol
DOCKED: USER        Moving Ligand-Moving Receptor   =  +0.00 kcal/mol
DOCKED: USER    (2) Final Total Internal Energy     =  -7.45 kcal/mol
DOCKED: USER    (3) Torsional Free Energy           =  +4.18 kcal/mol
DOCKED: USER    (4) Unbound System's Energy         =  -7.45 kcal/mol
DOCKED: USER
DOCKED: USER
DOCKED: REMARK SMILES C[C@@H](C(=O)/N=c1/[nH]nc(CCCCc2n[nH]/c(=N/C(=O)[C@H]3COc4ccccc4C3)s2)s1)C(C)(C)CO
DOCKED: REMARK SMILES IDX 6 1 7 2 8 3 9 4 32 5 5 7 3 8 4 9 2 10 1 11 33 12 34 13 35 14
DOCKED: REMARK SMILES IDX 36 15 37 16 10 18 11 19 12 20 13 21 14 22 15 23 31 24 16 25
DOCKED: REMARK SMILES IDX 17 26 18 28 19 29 20 30 21 31 22 32 30 33 23 34 29 35 24 36
DOCKED: REMARK SMILES IDX 28 37 25 38 27 39 26 40
DOCKED: REMARK H PARENT 7 6 37 17 16 27
DOCKED: USER                              x       y       z     vdW  Elec       q    Type
DOCKED: USER                           _______ _______ _______ _____ _____    ______ ____
DOCKED: ROOT
DOCKED: ATOM      1  C   UNL     1     138.939  77.376 221.499 -0.13 -0.05    +0.208 A  
DOCKED: ATOM      2  N   UNL     1     139.364  76.608 220.477 -0.04 +0.06    -0.251 N  
DOCKED: ATOM      3  N   UNL     1     138.755  75.481 220.457 -0.06 +0.04    -0.167 NA 
DOCKED: ATOM      4  C   UNL     1     137.958  74.968 221.075 -0.11 -0.03    +0.116 A  
DOCKED: ATOM      5  S   UNL     1     137.662  76.388 222.378 -0.31 +0.02    -0.080 S  
DOCKED: ATOM      6  H   UNL     1     140.097  76.938 219.813 +0.05 -0.06    +0.193 HD 
DOCKED: ENDROOT
DOCKED: BRANCH   1   7
DOCKED: ATOM      7  N   UNL     1     139.300  78.621 221.894 -0.13 +0.04    -0.184 NA 
DOCKED: BRANCH   7   8
DOCKED: ATOM      8  C   UNL     1     140.328  78.640 222.876 -0.28 -0.06    +0.251 C  
DOCKED: ATOM      9  O   UNL     1     141.081  77.620 222.999 -0.35 +0.09    -0.272 OA 
DOCKED: BRANCH   8  10
DOCKED: ATOM     10  C   UNL     1     140.484  79.851 223.721 -0.41 -0.01    +0.086 C  
DOCKED: ATOM     11  C   UNL     1     139.150  80.491 223.979 -0.36 -0.00    +0.019 C  
DOCKED: BRANCH  10  12
DOCKED: ATOM     12  C   UNL     1     141.434  80.817 223.053 -0.54 +0.00    -0.001 C  
DOCKED: ATOM     13  C   UNL     1     142.348  81.429 224.075 -0.55 -0.00    +0.014 C  
DOCKED: ATOM     14  C   UNL     1     140.701  81.914 222.325 -0.34 -0.00    +0.014 C  
DOCKED: BRANCH  12  15
DOCKED: ATOM     15  C   UNL     1     142.248  80.072 222.001 -0.40 -0.07    +0.163 C  
DOCKED: BRANCH  15  16
DOCKED: ATOM     16  O   UNL     1     143.116  79.225 222.645 -0.24 +0.24    -0.396 OA 
DOCKED: ATOM     17  H   UNL     1     143.010  78.295 222.292 -0.40 -0.22    +0.210 HD 
DOCKED: ENDBRANCH  15  16
DOCKED: ENDBRANCH  12  15
DOCKED: ENDBRANCH  10  12
DOCKED: ENDBRANCH   8  10
DOCKED: ENDBRANCH   7   8
DOCKED: ENDBRANCH   1   7
DOCKED: BRANCH   4  18
DOCKED: ATOM     18  C   UNL     1     137.051  73.819 221.423 -0.10 -0.02    +0.070 C  
DOCKED: BRANCH  18  19
DOCKED: ATOM     19  C   UNL     1     137.676  72.484 221.432 -0.11 -0.00    +0.008 C  
DOCKED: BRANCH  19  20
DOCKED: ATOM     20  C   UNL     1     138.685  72.167 222.463 -0.19 -0.00    +0.008 C  
DOCKED: BRANCH  20  21
DOCKED: ATOM     21  C   UNL     1     140.072  71.842 222.066 -0.25 -0.01    +0.070 C  
DOCKED: BRANCH  21  22
DOCKED: ATOM     22  C   UNL     1     140.670  73.114 221.529 -0.24 -0.01    +0.116 A  
DOCKED: ATOM     23  N   UNL     1     141.070  74.181 222.015 -0.57 -0.00    -0.167 NA 
DOCKED: ATOM     24  S   UNL     1     140.976  73.376 219.747 -0.13 +0.02    -0.080 S  
DOCKED: ATOM     25  N   UNL     1     141.564  75.181 221.383 -0.19 +0.08    -0.251 N  
DOCKED: ATOM     26  C   UNL     1     141.677  75.108 220.074 -0.16 -0.07    +0.208 A  
DOCKED: ATOM     27  H   UNL     1     141.885  76.071 221.906 -0.50 -0.12    +0.193 HD 
DOCKED: BRANCH  26  28
DOCKED: ATOM     28  N   UNL     1     142.085  75.827 219.137 -0.13 +0.08    -0.183 NA 
DOCKED: BRANCH  28  29
DOCKED: ATOM     29  C   UNL     1     142.336  77.209 219.364 -0.21 -0.16    +0.255 C  
DOCKED: ATOM     30  O   UNL     1     142.041  77.712 220.478 -0.22 +0.18    -0.272 OA 
DOCKED: BRANCH  29  31
DOCKED: ATOM     31  C   UNL     1     142.948  78.023 218.258 -0.21 -0.10    +0.123 C  
DOCKED: ATOM     32  C   UNL     1     142.404  77.519 216.930 -0.15 -0.17    +0.243 C  
DOCKED: ATOM     33  C   UNL     1     142.478  79.460 218.386 -0.28 -0.05    +0.056 C  
DOCKED: ATOM     34  O   UNL     1     140.990  77.519 217.034 +0.00 +0.23    -0.492 OA 
DOCKED: ATOM     35  C   UNL     1     140.979  79.405 218.527 -0.16 +0.00    -0.005 A  
DOCKED: ATOM     36  C   UNL     1     140.292  78.419 217.832 -0.04 -0.05    +0.122 A  
DOCKED: ATOM     37  C   UNL     1     140.303  80.318 219.333 -0.12 -0.00    +0.007 A  
DOCKED: ATOM     38  C   UNL     1     138.907  78.342 217.941 -0.02 -0.01    +0.047 A  
DOCKED: ATOM     39  C   UNL     1     138.912  80.234 219.437 -0.05 -0.00    +0.001 A  
DOCKED: ATOM     40  C   UNL     1     138.208  79.249 218.744 -0.02 -0.00    +0.004 A  
DOCKED: ENDBRANCH  29  31
DOCKED: ENDBRANCH  28  29
DOCKED: ENDBRANCH  26  28
DOCKED: ENDBRANCH  21  22
DOCKED: ENDBRANCH  20  21
DOCKED: ENDBRANCH  19  20
DOCKED: ENDBRANCH  18  19
DOCKED: ENDBRANCH   4  18
DOCKED: TORSDOF 14
DOCKED: TER
DOCKED: ENDMDL
________________________________________________________________________________


    FINAL DOCKED STATE:
    ________________________


Run:   17 / 20
Time taken for this run:   0.356s

DOCKED: MODEL        17
DOCKED: USER    Run = 17
DOCKED: USER
DOCKED: USER    Estimated Free Energy of Binding    =  -4.93 kcal/mol  [=(1)+(2)+(3)-(4)]
DOCKED: USER
DOCKED: USER    (1) Final Intermolecular Energy     =  -9.10 kcal/mol
DOCKED: USER        vdW + Hbond + desolv Energy     =  -8.97 kcal/mol
DOCKED: USER        Electrostatic Energy            =  -0.13 kcal/mol
DOCKED: USER        Moving Ligand-Fixed Receptor    =  -9.10 kcal/mol
DOCKED: USER        Moving Ligand-Moving Receptor   =  +0.00 kcal/mol
DOCKED: USER    (2) Final Total Internal Energy     =  -7.20 kcal/mol
DOCKED: USER    (3) Torsional Free Energy           =  +4.18 kcal/mol
DOCKED: USER    (4) Unbound System's Energy         =  -7.20 kcal/mol
DOCKED: USER
DOCKED: USER
DOCKED: REMARK SMILES C[C@@H](C(=O)/N=c1/[nH]nc(CCCCc2n[nH]/c(=N/C(=O)[C@H]3COc4ccccc4C3)s2)s1)C(C)(C)CO
DOCKED: REMARK SMILES IDX 6 1 7 2 8 3 9 4 32 5 5 7 3 8 4 9 2 10 1 11 33 12 34 13 35 14
DOCKED: REMARK SMILES IDX 36 15 37 16 10 18 11 19 12 20 13 21 14 22 15 23 31 24 16 25
DOCKED: REMARK SMILES IDX 17 26 18 28 19 29 20 30 21 31 22 32 30 33 23 34 29 35 24 36
DOCKED: REMARK SMILES IDX 28 37 25 38 27 39 26 40
DOCKED: REMARK H PARENT 7 6 37 17 16 27
DOCKED: USER                              x       y       z     vdW  Elec       q    Type
DOCKED: USER                           _______ _______ _______ _____ _____    ______ ____
DOCKED: ROOT
DOCKED: ATOM      1  C   UNL     1     139.784  76.996 222.505 -0.22 -0.04    +0.208 A  
DOCKED: ATOM      2  N   UNL     1     141.017  76.494 222.297 -0.26 +0.09    -0.251 N  
DOCKED: ATOM      3  N   UNL     1     140.966  75.264 221.945 -0.54 +0.03    -0.167 NA 
DOCKED: ATOM      4  C   UNL     1     140.155  74.494 221.767 -0.23 -0.01    +0.116 A  
DOCKED: ATOM      5  S   UNL     1     138.614  75.618 222.170 -0.32 +0.02    -0.080 S  
DOCKED: ATOM      6  H   UNL     1     141.872  77.078 222.419 -0.43 -0.14    +0.193 HD 
DOCKED: ENDROOT
DOCKED: BRANCH   1   7
DOCKED: ATOM      7  N   UNL     1     139.370  78.231 222.881 -0.21 +0.03    -0.184 NA 
DOCKED: BRANCH   7   8
DOCKED: ATOM      8  C   UNL     1     140.401  79.045 223.424 -0.30 -0.05    +0.251 C  
DOCKED: ATOM      9  O   UNL     1     141.371  78.487 224.032 -0.34 +0.07    -0.272 OA 
DOCKED: BRANCH   8  10
DOCKED: ATOM     10  C   UNL     1     140.306  80.518 223.262 -0.40 -0.01    +0.086 C  
DOCKED: ATOM     11  C   UNL     1     139.154  80.878 222.368 -0.26 -0.00    +0.019 C  
DOCKED: BRANCH  10  12
DOCKED: ATOM     12  C   UNL     1     141.609  81.053 222.715 -0.54 +0.00    -0.001 C  
DOCKED: ATOM     13  C   UNL     1     142.595  81.243 223.832 -0.60 -0.00    +0.014 C  
DOCKED: ATOM     14  C   UNL     1     141.422  82.362 221.993 -0.34 -0.00    +0.014 C  
DOCKED: BRANCH  12  15
DOCKED: ATOM     15  C   UNL     1     142.163  80.070 221.689 -0.35 -0.07    +0.163 C  
DOCKED: BRANCH  15  16
DOCKED: ATOM     16  O   UNL     1     142.972  79.174 222.342 -0.21 +0.27    -0.396 OA 
DOCKED: ATOM     17  H   UNL     1     142.599  78.250 222.253 -0.38 -0.19    +0.210 HD 
DOCKED: ENDBRANCH  15  16
DOCKED: ENDBRANCH  12  15
DOCKED: ENDBRANCH  10  12
DOCKED: ENDBRANCH   8  10
DOCKED: ENDBRANCH   7   8
DOCKED: ENDBRANCH   1   7
DOCKED: BRANCH   4  18
DOCKED: ATOM     18  C   UNL     1     139.652  73.122 221.412 -0.21 -0.01    +0.070 C  
DOCKED: BRANCH  18  19
DOCKED: ATOM     19  C   UNL     1     140.499  71.993 221.841 -0.27 -0.00    +0.008 C  
DOCKED: BRANCH  19  20
DOCKED: ATOM     20  C   UNL     1     141.150  71.151 220.817 -0.14 -0.00    +0.008 C  
DOCKED: BRANCH  20  21
DOCKED: ATOM     21  C   UNL     1     142.571  71.368 220.474 -0.17 -0.01    +0.070 C  
DOCKED: BRANCH  21  22
DOCKED: ATOM     22  C   UNL     1     142.651  72.725 219.829 -0.15 -0.02    +0.116 A  
DOCKED: ATOM     23  N   UNL     1     142.100  73.286 218.872 -0.04 +0.03    -0.167 NA 
DOCKED: ATOM     24  S   UNL     1     143.770  74.035 220.438 -0.46 +0.02    -0.080 S  
DOCKED: ATOM     25  N   UNL     1     142.301  74.483 218.458 -0.04 +0.08    -0.251 N  
DOCKED: ATOM     26  C   UNL     1     143.180  75.231 219.090 -0.21 -0.09    +0.208 A  
DOCKED: ATOM     27  H   UNL     1     141.764  74.879 217.607 +0.04 -0.06    +0.193 HD 
DOCKED: BRANCH  26  28
DOCKED: ATOM     28  N   UNL     1     143.642  76.389 219.007 -0.27 +0.12    -0.183 NA 
DOCKED: BRANCH  28  29
DOCKED: ATOM     29  C   UNL     1     142.803  77.507 219.268 -0.04 -0.19    +0.255 C  
DOCKED: ATOM     30  O   UNL     1     142.208  77.584 220.373 -0.23 +0.19    -0.272 OA 
DOCKED: BRANCH  29  31
DOCKED: ATOM     31  C   UNL     1     142.654  78.563 218.208 -0.25 -0.10    +0.123 C  
DOCKED: ATOM     32  C   UNL     1     142.528  77.876 216.857 -0.17 -0.20    +0.243 C  
DOCKED: ATOM     33  C   UNL     1     141.347  79.301 218.428 -0.19 -0.03    +0.056 C  
DOCKED: ATOM     34  O   UNL     1     141.488  76.919 216.973 -0.00 +0.23    -0.492 OA 
DOCKED: ATOM     35  C   UNL     1     140.284  78.245 218.579 -0.08 +0.00    -0.005 A  
DOCKED: ATOM     36  C   UNL     1     140.405  77.081 217.832 -0.03 -0.04    +0.122 A  
DOCKED: ATOM     37  C   UNL     1     139.209  78.432 219.445 -0.06 -0.00    +0.007 A  
DOCKED: ATOM     38  C   UNL     1     139.440  76.087 217.948 -0.02 -0.01    +0.047 A  
DOCKED: ATOM     39  C   UNL     1     138.243  77.428 219.556 -0.03 -0.00    +0.001 A  
DOCKED: ATOM     40  C   UNL     1     138.353  76.254 218.812 -0.02 -0.00    +0.004 A  
DOCKED: ENDBRANCH  29  31
DOCKED: ENDBRANCH  28  29
DOCKED: ENDBRANCH  26  28
DOCKED: ENDBRANCH  21  22
DOCKED: ENDBRANCH  20  21
DOCKED: ENDBRANCH  19  20
DOCKED: ENDBRANCH  18  19
DOCKED: ENDBRANCH   4  18
DOCKED: TORSDOF 14
DOCKED: TER
DOCKED: ENDMDL
________________________________________________________________________________


    FINAL DOCKED STATE:
    ________________________


Run:   18 / 20
Time taken for this run:   0.356s

DOCKED: MODEL        18
DOCKED: USER    Run = 18
DOCKED: USER
DOCKED: USER    Estimated Free Energy of Binding    =  -4.70 kcal/mol  [=(1)+(2)+(3)-(4)]
DOCKED: USER
DOCKED: USER    (1) Final Intermolecular Energy     =  -8.88 kcal/mol
DOCKED: USER        vdW + Hbond + desolv Energy     =  -8.66 kcal/mol
DOCKED: USER        Electrostatic Energy            =  -0.21 kcal/mol
DOCKED: USER        Moving Ligand-Fixed Receptor    =  -8.88 kcal/mol
DOCKED: USER        Moving Ligand-Moving Receptor   =  +0.00 kcal/mol
DOCKED: USER    (2) Final Total Internal Energy     =  -7.43 kcal/mol
DOCKED: USER    (3) Torsional Free Energy           =  +4.18 kcal/mol
DOCKED: USER    (4) Unbound System's Energy         =  -7.43 kcal/mol
DOCKED: USER
DOCKED: USER
DOCKED: REMARK SMILES C[C@@H](C(=O)/N=c1/[nH]nc(CCCCc2n[nH]/c(=N/C(=O)[C@H]3COc4ccccc4C3)s2)s1)C(C)(C)CO
DOCKED: REMARK SMILES IDX 6 1 7 2 8 3 9 4 32 5 5 7 3 8 4 9 2 10 1 11 33 12 34 13 35 14
DOCKED: REMARK SMILES IDX 36 15 37 16 10 18 11 19 12 20 13 21 14 22 15 23 31 24 16 25
DOCKED: REMARK SMILES IDX 17 26 18 28 19 29 20 30 21 31 22 32 30 33 23 34 29 35 24 36
DOCKED: REMARK SMILES IDX 28 37 25 38 27 39 26 40
DOCKED: REMARK H PARENT 7 6 37 17 16 27
DOCKED: USER                              x       y       z     vdW  Elec       q    Type
DOCKED: USER                           _______ _______ _______ _____ _____    ______ ____
DOCKED: ROOT
DOCKED: ATOM      1  C   UNL     1     138.959  77.327 221.521 -0.14 -0.05    +0.208 A  
DOCKED: ATOM      2  N   UNL     1     139.372  76.522 220.523 -0.05 +0.06    -0.251 N  
DOCKED: ATOM      3  N   UNL     1     138.747  75.404 220.537 -0.06 +0.04    -0.167 NA 
DOCKED: ATOM      4  C   UNL     1     137.942  74.921 221.170 -0.12 -0.03    +0.116 A  
DOCKED: ATOM      5  S   UNL     1     137.667  76.385 222.429 -0.31 +0.02    -0.080 S  
DOCKED: ATOM      6  H   UNL     1     140.109  76.822 219.851 +0.05 -0.06    +0.193 HD 
DOCKED: ENDROOT
DOCKED: BRANCH   1   7
DOCKED: ATOM      7  N   UNL     1     139.337  78.578 221.879 -0.13 +0.04    -0.184 NA 
DOCKED: BRANCH   7   8
DOCKED: ATOM      8  C   UNL     1     140.328  78.613 222.897 -0.28 -0.06    +0.251 C  
DOCKED: ATOM      9  O   UNL     1     141.074  77.593 223.066 -0.35 +0.09    -0.272 OA 
DOCKED: BRANCH   8  10
DOCKED: ATOM     10  C   UNL     1     140.456  79.837 223.727 -0.41 -0.01    +0.086 C  
DOCKED: ATOM     11  C   UNL     1     139.113  80.479 223.932 -0.38 -0.00    +0.019 C  
DOCKED: BRANCH  10  12
DOCKED: ATOM     12  C   UNL     1     141.425  80.794 223.074 -0.54 +0.00    -0.001 C  
DOCKED: ATOM     13  C   UNL     1     142.343  81.381 224.106 -0.56 -0.00    +0.014 C  
DOCKED: ATOM     14  C   UNL     1     140.715  81.910 222.352 -0.34 -0.00    +0.014 C  
DOCKED: BRANCH  12  15
DOCKED: ATOM     15  C   UNL     1     142.233  80.045 222.019 -0.40 -0.07    +0.163 C  
DOCKED: BRANCH  15  16
DOCKED: ATOM     16  O   UNL     1     143.106  79.203 222.661 -0.24 +0.24    -0.396 OA 
DOCKED: ATOM     17  H   UNL     1     142.987  78.267 222.324 -0.40 -0.22    +0.210 HD 
DOCKED: ENDBRANCH  15  16
DOCKED: ENDBRANCH  12  15
DOCKED: ENDBRANCH  10  12
DOCKED: ENDBRANCH   8  10
DOCKED: ENDBRANCH   7   8
DOCKED: ENDBRANCH   1   7
DOCKED: BRANCH   4  18
DOCKED: ATOM     18  C   UNL     1     137.018  73.798 221.552 -0.11 -0.02    +0.070 C  
DOCKED: BRANCH  18  19
DOCKED: ATOM     19  C   UNL     1     137.629  72.690 222.310 -0.13 -0.00    +0.008 C  
DOCKED: BRANCH  19  20
DOCKED: ATOM     20  C   UNL     1     138.619  71.820 221.644 -0.15 -0.00    +0.008 C  
DOCKED: BRANCH  20  21
DOCKED: ATOM     21  C   UNL     1     140.026  71.818 222.096 -0.25 -0.01    +0.070 C  
DOCKED: BRANCH  21  22
DOCKED: ATOM     22  C   UNL     1     140.647  73.082 221.563 -0.24 -0.01    +0.116 A  
DOCKED: ATOM     23  N   UNL     1     141.051  74.145 222.051 -0.54 -0.00    -0.167 NA 
DOCKED: ATOM     24  S   UNL     1     140.981  73.333 219.785 -0.13 +0.02    -0.080 S  
DOCKED: ATOM     25  N   UNL     1     141.565  75.137 221.423 -0.19 +0.07    -0.251 N  
DOCKED: ATOM     26  C   UNL     1     141.696  75.058 220.115 -0.16 -0.07    +0.208 A  
DOCKED: ATOM     27  H   UNL     1     141.889  76.026 221.947 -0.51 -0.12    +0.193 HD 
DOCKED: BRANCH  26  28
DOCKED: ATOM     28  N   UNL     1     142.125  75.769 219.182 -0.13 +0.08    -0.183 NA 
DOCKED: BRANCH  28  29
DOCKED: ATOM     29  C   UNL     1     142.336  77.161 219.391 -0.21 -0.16    +0.255 C  
DOCKED: ATOM     30  O   UNL     1     142.008  77.673 220.492 -0.22 +0.18    -0.272 OA 
DOCKED: BRANCH  29  31
DOCKED: ATOM     31  C   UNL     1     142.945  77.974 218.284 -0.21 -0.10    +0.123 C  
DOCKED: ATOM     32  C   UNL     1     142.441  77.433 216.955 -0.16 -0.17    +0.243 C  
DOCKED: ATOM     33  C   UNL     1     142.431  79.399 218.379 -0.28 -0.05    +0.056 C  
DOCKED: ATOM     34  O   UNL     1     141.026  77.394 217.031 +0.00 +0.22    -0.492 OA 
DOCKED: ATOM     35  C   UNL     1     140.933  79.303 218.493 -0.15 +0.00    -0.005 A  
DOCKED: ATOM     36  C   UNL     1     140.287  78.286 217.802 -0.04 -0.05    +0.122 A  
DOCKED: ATOM     37  C   UNL     1     140.215  80.209 219.270 -0.11 -0.00    +0.007 A  
DOCKED: ATOM     38  C   UNL     1     138.904  78.171 217.886 -0.01 -0.01    +0.047 A  
DOCKED: ATOM     39  C   UNL     1     138.825  80.086 219.350 -0.04 -0.00    +0.001 A  
DOCKED: ATOM     40  C   UNL     1     138.164  79.069 218.661 -0.01 -0.00    +0.004 A  
DOCKED: ENDBRANCH  29  31
DOCKED: ENDBRANCH  28  29
DOCKED: ENDBRANCH  26  28
DOCKED: ENDBRANCH  21  22
DOCKED: ENDBRANCH  20  21
DOCKED: ENDBRANCH  19  20
DOCKED: ENDBRANCH  18  19
DOCKED: ENDBRANCH   4  18
DOCKED: TORSDOF 14
DOCKED: TER
DOCKED: ENDMDL
________________________________________________________________________________


    FINAL DOCKED STATE:
    ________________________


Run:   19 / 20
Time taken for this run:   0.356s

DOCKED: MODEL        19
DOCKED: USER    Run = 19
DOCKED: USER
DOCKED: USER    Estimated Free Energy of Binding    =  -5.13 kcal/mol  [=(1)+(2)+(3)-(4)]
DOCKED: USER
DOCKED: USER    (1) Final Intermolecular Energy     =  -9.30 kcal/mol
DOCKED: USER        vdW + Hbond + desolv Energy     =  -9.34 kcal/mol
DOCKED: USER        Electrostatic Energy            =  +0.04 kcal/mol
DOCKED: USER        Moving Ligand-Fixed Receptor    =  -9.30 kcal/mol
DOCKED: USER        Moving Ligand-Moving Receptor   =  +0.00 kcal/mol
DOCKED: USER    (2) Final Total Internal Energy     =  -6.54 kcal/mol
DOCKED: USER    (3) Torsional Free Energy           =  +4.18 kcal/mol
DOCKED: USER    (4) Unbound System's Energy         =  -6.54 kcal/mol
DOCKED: USER
DOCKED: USER
DOCKED: REMARK SMILES C[C@@H](C(=O)/N=c1/[nH]nc(CCCCc2n[nH]/c(=N/C(=O)[C@H]3COc4ccccc4C3)s2)s1)C(C)(C)CO
DOCKED: REMARK SMILES IDX 6 1 7 2 8 3 9 4 32 5 5 7 3 8 4 9 2 10 1 11 33 12 34 13 35 14
DOCKED: REMARK SMILES IDX 36 15 37 16 10 18 11 19 12 20 13 21 14 22 15 23 31 24 16 25
DOCKED: REMARK SMILES IDX 17 26 18 28 19 29 20 30 21 31 22 32 30 33 23 34 29 35 24 36
DOCKED: REMARK SMILES IDX 28 37 25 38 27 39 26 40
DOCKED: REMARK H PARENT 7 6 37 17 16 27
DOCKED: USER                              x       y       z     vdW  Elec       q    Type
DOCKED: USER                           _______ _______ _______ _____ _____    ______ ____
DOCKED: ROOT
DOCKED: ATOM      1  C   UNL     1     139.108  74.922 221.123 -0.14 -0.05    +0.208 A  
DOCKED: ATOM      2  N   UNL     1     139.517  74.457 222.319 -0.13 +0.04    -0.251 N  
DOCKED: ATOM      3  N   UNL     1     140.366  73.508 222.185 -0.75 +0.01    -0.167 NA 
DOCKED: ATOM      4  C   UNL     1     140.858  72.962 221.323 -0.22 -0.01    +0.116 A  
DOCKED: ATOM      5  S   UNL     1     140.003  73.927 219.861 -0.11 +0.02    -0.080 S  
DOCKED: ATOM      6  H   UNL     1     139.157  74.857 223.212 -0.51 -0.06    +0.193 HD 
DOCKED: ENDROOT
DOCKED: BRANCH   1   7
DOCKED: ATOM      7  N   UNL     1     138.233  75.903 220.793 -0.06 +0.04    -0.184 NA 
DOCKED: BRANCH   7   8
DOCKED: ATOM      8  C   UNL     1     137.952  76.806 221.854 -0.15 -0.05    +0.251 C  
DOCKED: ATOM      9  O   UNL     1     138.819  76.967 222.773 -0.24 +0.05    -0.272 OA 
DOCKED: BRANCH   8  10
DOCKED: ATOM     10  C   UNL     1     136.654  77.529 221.850 -0.12 -0.01    +0.086 C  
DOCKED: ATOM     11  C   UNL     1     136.735  78.764 222.701 -0.18 -0.00    +0.019 C  
DOCKED: BRANCH  10  12
DOCKED: ATOM     12  C   UNL     1     135.559  76.606 222.330 -0.13 +0.00    -0.001 C  
DOCKED: ATOM     13  C   UNL     1     135.149  75.676 221.225 -0.05 -0.00    +0.014 C  
DOCKED: ATOM     14  C   UNL     1     134.350  77.367 222.808 -0.09 -0.00    +0.014 C  
DOCKED: BRANCH  12  15
DOCKED: ATOM     15  C   UNL     1     136.065  75.807 223.527 -0.21 -0.04    +0.163 C  
DOCKED: BRANCH  15  16
DOCKED: ATOM     16  O   UNL     1     136.804  74.749 223.058 -0.01 +0.16    -0.396 OA 
DOCKED: ATOM     17  H   UNL     1     137.752  75.035 222.909 -0.33 -0.09    +0.210 HD 
DOCKED: ENDBRANCH  15  16
DOCKED: ENDBRANCH  12  15
DOCKED: ENDBRANCH  10  12
DOCKED: ENDBRANCH   8  10
DOCKED: ENDBRANCH   7   8
DOCKED: ENDBRANCH   1   7
DOCKED: BRANCH   4  18
DOCKED: ATOM     18  C   UNL     1     141.771  71.926 220.727 -0.19 -0.01    +0.070 C  
DOCKED: BRANCH  18  19
DOCKED: ATOM     19  C   UNL     1     143.157  72.358 220.473 -0.29 -0.00    +0.008 C  
DOCKED: BRANCH  19  20
DOCKED: ATOM     20  C   UNL     1     143.400  73.535 219.614 -0.27 -0.00    +0.008 C  
DOCKED: BRANCH  20  21
DOCKED: ATOM     21  C   UNL     1     143.963  74.772 220.196 -0.37 -0.03    +0.070 C  
DOCKED: BRANCH  21  22
DOCKED: ATOM     22  C   UNL     1     142.889  75.821 220.087 -0.27 -0.07    +0.116 A  
DOCKED: ATOM     23  N   UNL     1     141.833  76.074 220.681 -0.20 +0.08    -0.167 NA 
DOCKED: ATOM     24  S   UNL     1     142.947  77.155 218.839 -0.39 +0.06    -0.080 S  
DOCKED: ATOM     25  N   UNL     1     141.025  77.040 220.442 -0.12 +0.11    -0.251 N  
DOCKED: ATOM     26  C   UNL     1     141.310  77.876 219.467 -0.14 -0.10    +0.208 A  
DOCKED: ATOM     27  H   UNL     1     140.124  77.174 221.025 +0.07 -0.06    +0.193 HD 
DOCKED: BRANCH  26  28
DOCKED: ATOM     28  N   UNL     1     140.808  78.893 218.941 -0.08 +0.08    -0.183 NA 
DOCKED: BRANCH  28  29
DOCKED: ATOM     29  C   UNL     1     141.089  80.180 219.480 -0.14 -0.11    +0.255 C  
DOCKED: ATOM     30  O   UNL     1     142.282  80.571 219.547 -0.22 +0.15    -0.272 OA 
DOCKED: BRANCH  29  31
DOCKED: ATOM     31  C   UNL     1     139.943  81.031 219.953 -0.11 -0.03    +0.123 C  
DOCKED: ATOM     32  C   UNL     1     138.838  80.115 220.455 -0.04 -0.06    +0.243 C  
DOCKED: ATOM     33  C   UNL     1     140.395  81.842 221.154 -0.26 -0.01    +0.056 C  
DOCKED: ATOM     34  O   UNL     1     139.424  79.232 221.396 +0.00 +0.12    -0.492 OA 
DOCKED: ATOM     35  C   UNL     1     141.040  80.868 222.104 -0.40 +0.00    -0.005 A  
DOCKED: ATOM     36  C   UNL     1     140.515  79.584 222.183 -0.27 -0.03    +0.122 A  
DOCKED: ATOM     37  C   UNL     1     142.131  81.245 222.883 -0.54 -0.00    +0.007 A  
DOCKED: ATOM     38  C   UNL     1     141.088  78.662 223.053 -0.49 -0.01    +0.047 A  
DOCKED: ATOM     39  C   UNL     1     142.701  80.312 223.754 -0.66 -0.00    +0.001 A  
DOCKED: ATOM     40  C   UNL     1     142.184  79.020 223.843 -0.55 -0.00    +0.004 A  
DOCKED: ENDBRANCH  29  31
DOCKED: ENDBRANCH  28  29
DOCKED: ENDBRANCH  26  28
DOCKED: ENDBRANCH  21  22
DOCKED: ENDBRANCH  20  21
DOCKED: ENDBRANCH  19  20
DOCKED: ENDBRANCH  18  19
DOCKED: ENDBRANCH   4  18
DOCKED: TORSDOF 14
DOCKED: TER
DOCKED: ENDMDL
________________________________________________________________________________


    FINAL DOCKED STATE:
    ________________________


Run:   20 / 20
Time taken for this run:   0.356s

DOCKED: MODEL        20
DOCKED: USER    Run = 20
DOCKED: USER
DOCKED: USER    Estimated Free Energy of Binding    =  -3.95 kcal/mol  [=(1)+(2)+(3)-(4)]
DOCKED: USER
DOCKED: USER    (1) Final Intermolecular Energy     =  -8.13 kcal/mol
DOCKED: USER        vdW + Hbond + desolv Energy     =  -8.03 kcal/mol
DOCKED: USER        Electrostatic Energy            =  -0.10 kcal/mol
DOCKED: USER        Moving Ligand-Fixed Receptor    =  -8.13 kcal/mol
DOCKED: USER        Moving Ligand-Moving Receptor   =  +0.00 kcal/mol
DOCKED: USER    (2) Final Total Internal Energy     =  -8.25 kcal/mol
DOCKED: USER    (3) Torsional Free Energy           =  +4.18 kcal/mol
DOCKED: USER    (4) Unbound System's Energy         =  -8.25 kcal/mol
DOCKED: USER
DOCKED: USER
DOCKED: REMARK SMILES C[C@@H](C(=O)/N=c1/[nH]nc(CCCCc2n[nH]/c(=N/C(=O)[C@H]3COc4ccccc4C3)s2)s1)C(C)(C)CO
DOCKED: REMARK SMILES IDX 6 1 7 2 8 3 9 4 32 5 5 7 3 8 4 9 2 10 1 11 33 12 34 13 35 14
DOCKED: REMARK SMILES IDX 36 15 37 16 10 18 11 19 12 20 13 21 14 22 15 23 31 24 16 25
DOCKED: REMARK SMILES IDX 17 26 18 28 19 29 20 30 21 31 22 32 30 33 23 34 29 35 24 36
DOCKED: REMARK SMILES IDX 28 37 25 38 27 39 26 40
DOCKED: REMARK H PARENT 7 6 37 17 16 27
DOCKED: USER                              x       y       z     vdW  Elec       q    Type
DOCKED: USER                           _______ _______ _______ _____ _____    ______ ____
DOCKED: ROOT
DOCKED: ATOM      1  C   UNL     1     138.749  78.086 222.151 -0.17 -0.04    +0.208 A  
DOCKED: ATOM      2  N   UNL     1     139.615  77.271 221.519 -0.12 +0.06    -0.251 N  
DOCKED: ATOM      3  N   UNL     1     139.167  76.072 221.459 -0.17 +0.04    -0.167 NA 
DOCKED: ATOM      4  C   UNL     1     138.237  75.525 221.800 -0.20 -0.03    +0.116 A  
DOCKED: ATOM      5  S   UNL     1     137.317  77.034 222.625 -0.28 +0.01    -0.080 S  
DOCKED: ATOM      6  H   UNL     1     140.521  77.623 221.143 +0.08 -0.07    +0.193 HD 
DOCKED: ENDROOT
DOCKED: BRANCH   1   7
DOCKED: ATOM      7  N   UNL     1     138.809  79.410 222.436 -0.15 +0.03    -0.184 NA 
DOCKED: BRANCH   7   8
DOCKED: ATOM      8  C   UNL     1     139.946  80.067 221.894 -0.15 -0.06    +0.251 C  
DOCKED: ATOM      9  O   UNL     1     140.313  79.785 220.707 -0.08 +0.08    -0.272 OA 
DOCKED: BRANCH   8  10
DOCKED: ATOM     10  C   UNL     1     140.665  81.058 222.734 -0.38 -0.01    +0.086 C  
DOCKED: ATOM     11  C   UNL     1     140.970  82.298 221.943 -0.34 -0.00    +0.019 C  
DOCKED: BRANCH  10  12
DOCKED: ATOM     12  C   UNL     1     141.928  80.436 223.283 -0.63 +0.00    -0.001 C  
DOCKED: ATOM     13  C   UNL     1     142.554  81.353 224.295 -0.49 -0.00    +0.014 C  
DOCKED: ATOM     14  C   UNL     1     142.929  80.141 222.197 -0.32 -0.01    +0.014 C  
DOCKED: BRANCH  12  15
DOCKED: ATOM     15  C   UNL     1     141.586  79.098 223.929 -0.46 -0.04    +0.163 C  
DOCKED: BRANCH  15  16
DOCKED: ATOM     16  O   UNL     1     141.687  78.118 222.973 -0.24 +0.19    -0.396 OA 
DOCKED: ATOM     17  H   UNL     1     141.322  78.452 222.103 +0.09 -0.09    +0.210 HD 
DOCKED: ENDBRANCH  15  16
DOCKED: ENDBRANCH  12  15
DOCKED: ENDBRANCH  10  12
DOCKED: ENDBRANCH   8  10
DOCKED: ENDBRANCH   7   8
DOCKED: ENDBRANCH   1   7
DOCKED: BRANCH   4  18
DOCKED: ATOM     18  C   UNL     1     137.371  74.306 221.962 -0.15 -0.02    +0.070 C  
DOCKED: BRANCH  18  19
DOCKED: ATOM     19  C   UNL     1     137.940  73.040 221.464 -0.14 -0.00    +0.008 C  
DOCKED: BRANCH  19  20
DOCKED: ATOM     20  C   UNL     1     138.817  72.247 222.348 -0.22 -0.00    +0.008 C  
DOCKED: BRANCH  20  21
DOCKED: ATOM     21  C   UNL     1     140.173  71.867 221.897 -0.24 -0.01    +0.070 C  
DOCKED: BRANCH  21  22
DOCKED: ATOM     22  C   UNL     1     140.857  73.141 221.482 -0.24 -0.01    +0.116 A  
DOCKED: ATOM     23  N   UNL     1     141.079  74.241 222.007 -0.56 +0.00    -0.167 NA 
DOCKED: ATOM     24  S   UNL     1     141.625  73.349 219.837 -0.18 +0.02    -0.080 S  
DOCKED: ATOM     25  N   UNL     1     141.696  75.236 221.484 -0.15 +0.08    -0.251 N  
DOCKED: ATOM     26  C   UNL     1     142.160  75.119 220.258 -0.20 -0.08    +0.208 A  
DOCKED: ATOM     27  H   UNL     1     141.838  76.157 222.032 -0.51 -0.12    +0.193 HD 
DOCKED: BRANCH  26  28
DOCKED: ATOM     28  N   UNL     1     142.785  75.819 219.433 -0.22 +0.09    -0.183 NA 
DOCKED: BRANCH  28  29
DOCKED: ATOM     29  C   UNL     1     142.568  77.224 219.389 -0.21 -0.17    +0.255 C  
DOCKED: ATOM     30  O   UNL     1     142.217  77.824 220.437 -0.23 +0.20    -0.272 OA 
DOCKED: BRANCH  29  31
DOCKED: ATOM     31  C   UNL     1     142.765  77.945 218.085 -0.25 -0.10    +0.123 C  
DOCKED: ATOM     32  C   UNL     1     142.832  76.915 216.969 -0.16 -0.16    +0.243 C  
DOCKED: ATOM     33  C   UNL     1     141.538  78.793 217.800 -0.19 -0.03    +0.056 C  
DOCKED: ATOM     34  O   UNL     1     141.683  76.093 217.091 +0.00 +0.20    -0.492 OA 
DOCKED: ATOM     35  C   UNL     1     140.348  77.888 217.977 -0.06 +0.00    -0.005 A  
DOCKED: ATOM     36  C   UNL     1     140.477  76.556 217.608 -0.03 -0.04    +0.122 A  
DOCKED: ATOM     37  C   UNL     1     139.150  78.375 218.495 -0.03 -0.00    +0.007 A  
DOCKED: ATOM     38  C   UNL     1     139.395  75.694 217.757 -0.01 -0.01    +0.047 A  
DOCKED: ATOM     39  C   UNL     1     138.068  77.503 218.643 -0.01 -0.00    +0.001 A  
DOCKED: ATOM     40  C   UNL     1     138.184  76.162 218.276 -0.01 -0.00    +0.004 A  
DOCKED: ENDBRANCH  29  31
DOCKED: ENDBRANCH  28  29
DOCKED: ENDBRANCH  26  28
DOCKED: ENDBRANCH  21  22
DOCKED: ENDBRANCH  20  21
DOCKED: ENDBRANCH  19  20
DOCKED: ENDBRANCH  18  19
DOCKED: ENDBRANCH   4  18
DOCKED: TORSDOF 14
DOCKED: TER
DOCKED: ENDMDL
________________________________________________________________________________


    CLUSTERING HISTOGRAM
    ____________________


________________________________________________________________________________
     |           |     |           |     |
Clus | Lowest    | Run | Mean      | Num | Histogram
-ter | Binding   |     | Binding   | in  |
Rank | Energy    |     | Energy    | Clus|    5    10   15   20   25   30   35
_____|___________|_____|___________|_____|____:____|____:____|____:____|____:___
   1 |     -7.14 |   1 |     -5.91 |   2 |##
   2 |     -6.00 |   9 |     -6.00 |   1 |#
   3 |     -5.56 |   6 |     -4.43 |  12 |############
   4 |     -5.13 |  19 |     -4.84 |   2 |##
   5 |     -4.70 |   3 |     -4.70 |   1 |#
   6 |     -3.96 |  15 |     -3.96 |   1 |#
   7 |     -3.62 |  12 |     -3.62 |   1 |#
_____|___________|_____|___________|_____|______________________________________


    RMSD TABLE
    __________


_______________________________________________________________________
     |      |      |           |         |                 |
Rank | Sub- | Run  | Binding   | Cluster | Reference       | Grep
     | Rank |      | Energy    | RMSD    | RMSD            | Pattern
_____|______|______|___________|_________|_________________|___________
   1      1      1       -7.14      0.00    267.98           RANKING
   1      2     10       -4.68      1.76    267.50           RANKING
   2      1      9       -6.00      0.00    267.42           RANKING
   3      1      6       -5.56      0.00    268.20           RANKING
   3      2     17       -4.93      0.99    268.05           RANKING
   3      3      5       -4.76      1.30    268.01           RANKING
   3      4      4       -4.75      1.29    267.98           RANKING
   3      5     18       -4.70      1.30    267.98           RANKING
   3      6     16       -4.69      1.32    267.99           RANKING
   3      7     13       -4.01      1.39    267.89           RANKING
   3      8     11       -4.00      1.38    267.94           RANKING
   3      9      7       -3.97      1.39    267.93           RANKING
   3     10     14       -3.97      1.39    267.95           RANKING
   3     11     20       -3.95      1.38    267.93           RANKING
   3     12      8       -3.92      1.39    267.90           RANKING
   4      1     19       -5.13      0.00    268.12           RANKING
   4      2      2       -4.55      1.44    268.31           RANKING
   5      1      3       -4.70      0.00    268.24           RANKING
   6      1     15       -3.96      0.00    267.64           RANKING
   7      1     12       -3.62      0.00    268.09           RANKING

Run time 7.025 sec
Idle time 0.000 sec
