AutoDock-GPU version: v1.6

**********************************************************
**    AutoDock-GPU AUTODOCKTOOLS-COMPATIBLE DLG FILE    **
**********************************************************


    DOCKING PARAMETERS
    ________________________


Ligand file:                               /home/a/REINVENT4/ReinventStudies/pleaseWork/justRnve/graph-dock-w0wspr/graph-DockGPU/node-autodockgpu/inputs/GHRBDJAYIWVDBG-IBXFXOAWNA-N.pdbqt
Grid fld file:                             /home/a/REINVENT4/ReinventStudies/mols/Rad51/maps/rad51_receptor.maps.fld

Random seed:                               42
Number of runs:                            20
Number of energy evaluations:              5210753
Number of generations:                     42000
Size of population:                        150
Rate of crossover:                         80.000000%
Tournament selection probability limit:    60.000000%
Rate of mutation:                          2.000000%
Maximal allowed delta movement:            +/- 6.000000A
Maximal allowed delta angle:               +/- 90.000000

Rate of local search:                      100.000000%
Maximal number of local search iterations: 300
Rho lower bound:                           0.010000
Spread of local search delta movement:     2.000000A
Spread of local search delta angle:        74.999999
Limit of consecutive successes/failures:   4

Handle symmetry during clustering:         YES
RMSD tolerance:                            2.000000A

Program call in command line was:          /home/a/REINVENT4/ReinventStudies/adgpu-v1.6_linux_x64_cuda12_128wi --filelist batch.txt --heuristics 1 --nrun 20 --psize 150 --lsit 300 --seed 42 --heurmax 12000000 


    GRID PARAMETERS
    ________________________


Receptor name:                             rad51_receptor
Number of grid points (x, y, z):           53, 53, 53
Grid center (x, y, z):                     139.950000, 75.640000, 221.970000A
Grid size (x, y, z):                       19.500000, 19.500000, 19.500000A
Grid spacing:                              0.375000A


    LIGAND PARAMETERS
    ________________________


Ligand name:                               /home/a/REINVENT4/ReinventStudies/pleaseWork/justRnve/graph-dock-w0wspr/graph-DockGPU/node-autodockgpu/inputs/GHRBDJAYIWVDBG-IBXFXOAWNA-N
Number of atoms:                           40
Number of rotatable bonds:                 14
Number of atom types:                      7


    DUMMY DATA (only for ADT-compatibility)
    ________________________


DPF> outlev 1
DPF> ga_run 20
DPF> fld /home/a/REINVENT4/ReinventStudies/mols/Rad51/maps/rad51_receptor.maps.fld
DPF> move /home/a/REINVENT4/ReinventStudies/pleaseWork/justRnve/graph-dock-w0wspr/graph-DockGPU/node-autodockgpu/inputs/GHRBDJAYIWVDBG-IBXFXOAWNA-N.pdbqt


    COUNTER STATES
    ________________________


Number of energy evaluations performed:    1184284
Number of generations used:                120


    INPUT LIGAND PDBQT FILE:
    ________________________


INPUT-LIGAND-PDBQT: REMARK SMILES C[C@@H](C(=O)/N=c1\[nH]nc(CCCCc2n[nH]/c(=N\C(=O)[C@H]3COc4ccccc4C3)s2)s1)C(C)(C)CO
INPUT-LIGAND-PDBQT: REMARK SMILES IDX 6 1 7 2 8 3 9 4 32 5 5 7 3 8 4 9 2 10 1 11 33 12 34 13 35 14
INPUT-LIGAND-PDBQT: REMARK SMILES IDX 36 15 37 16 10 18 11 19 12 20 13 21 14 22 15 23 31 24 16 25
INPUT-LIGAND-PDBQT: REMARK SMILES IDX 17 26 18 28 19 29 20 30 21 31 22 32 30 33 23 34 29 35 24 36
INPUT-LIGAND-PDBQT: REMARK SMILES IDX 28 37 25 38 27 39 26 40
INPUT-LIGAND-PDBQT: REMARK H PARENT 7 6 37 17 16 27
INPUT-LIGAND-PDBQT: ROOT
INPUT-LIGAND-PDBQT: ATOM      1  C   UNL     1      -4.488   1.150   0.443  1.00  0.00     0.208 A 
INPUT-LIGAND-PDBQT: ATOM      2  N   UNL     1      -3.463   0.330   0.117  1.00  0.00    -0.251 N 
INPUT-LIGAND-PDBQT: ATOM      3  N   UNL     1      -2.510   0.305   0.968  1.00  0.00    -0.167 NA
INPUT-LIGAND-PDBQT: ATOM      4  C   UNL     1      -2.323   0.842   1.981  1.00  0.00     0.116 A 
INPUT-LIGAND-PDBQT: ATOM      5  S   UNL     1      -3.950   1.876   2.079  1.00  0.00    -0.080 S 
INPUT-LIGAND-PDBQT: ATOM      6  H   UNL     1      -3.522  -0.220  -0.797  1.00  0.00     0.193 HD
INPUT-LIGAND-PDBQT: ENDROOT
INPUT-LIGAND-PDBQT: BRANCH   1   7
INPUT-LIGAND-PDBQT: ATOM      7  N   UNL     1      -5.587   1.446  -0.121  1.00  0.00    -0.184 NA
INPUT-LIGAND-PDBQT: BRANCH   7   8
INPUT-LIGAND-PDBQT: ATOM      8  C   UNL     1      -5.958   0.857  -1.389  1.00  0.00     0.251 C 
INPUT-LIGAND-PDBQT: ATOM      9  O   UNL     1      -5.173   0.850  -2.366  1.00  0.00    -0.272 OA
INPUT-LIGAND-PDBQT: BRANCH   8  10
INPUT-LIGAND-PDBQT: ATOM     10  C   UNL     1      -7.307   0.270  -1.462  1.00  0.00     0.086 C 
INPUT-LIGAND-PDBQT: ATOM     11  C   UNL     1      -8.372   1.304  -1.182  1.00  0.00     0.019 C 
INPUT-LIGAND-PDBQT: BRANCH  10  12
INPUT-LIGAND-PDBQT: ATOM     12  C   UNL     1      -7.474  -0.919  -0.548  1.00  0.00    -0.001 C 
INPUT-LIGAND-PDBQT: ATOM     13  C   UNL     1      -7.373  -0.586   0.906  1.00  0.00     0.014 C 
INPUT-LIGAND-PDBQT: ATOM     14  C   UNL     1      -8.848  -1.535  -0.812  1.00  0.00     0.014 C 
INPUT-LIGAND-PDBQT: BRANCH  12  15
INPUT-LIGAND-PDBQT: ATOM     15  C   UNL     1      -6.463  -1.991  -0.897  1.00  0.00     0.163 C 
INPUT-LIGAND-PDBQT: BRANCH  15  16
INPUT-LIGAND-PDBQT: ATOM     16  O   UNL     1      -6.646  -2.412  -2.227  1.00  0.00    -0.396 OA
INPUT-LIGAND-PDBQT: ATOM     17  H   UNL     1      -7.475  -2.897  -2.364  1.00  0.00     0.210 HD
INPUT-LIGAND-PDBQT: ENDBRANCH  15  16
INPUT-LIGAND-PDBQT: ENDBRANCH  12  15
INPUT-LIGAND-PDBQT: ENDBRANCH  10  12
INPUT-LIGAND-PDBQT: ENDBRANCH   8  10
INPUT-LIGAND-PDBQT: ENDBRANCH   7   8
INPUT-LIGAND-PDBQT: ENDBRANCH   1   7
INPUT-LIGAND-PDBQT: BRANCH   4  18
INPUT-LIGAND-PDBQT: ATOM     18  C   UNL     1      -1.378   1.014   3.134  1.00  0.00     0.070 C 
INPUT-LIGAND-PDBQT: BRANCH  18  19
INPUT-LIGAND-PDBQT: ATOM     19  C   UNL     1      -0.429   2.146   2.809  1.00  0.00     0.008 C 
INPUT-LIGAND-PDBQT: BRANCH  19  20
INPUT-LIGAND-PDBQT: ATOM     20  C   UNL     1       0.515   2.324   3.954  1.00  0.00     0.008 C 
INPUT-LIGAND-PDBQT: BRANCH  20  21
INPUT-LIGAND-PDBQT: ATOM     21  C   UNL     1       1.346   1.133   4.269  1.00  0.00     0.070 C 
INPUT-LIGAND-PDBQT: BRANCH  21  22
INPUT-LIGAND-PDBQT: ATOM     22  C   UNL     1       2.140   0.848   3.025  1.00  0.00     0.116 A 
INPUT-LIGAND-PDBQT: ATOM     23  N   UNL     1       2.387   1.144   1.938  1.00  0.00    -0.167 NA
INPUT-LIGAND-PDBQT: ATOM     24  S   UNL     1       3.300  -0.676   3.217  1.00  0.00    -0.080 S 
INPUT-LIGAND-PDBQT: ATOM     25  N   UNL     1       3.178   0.667   1.049  1.00  0.00    -0.251 N 
INPUT-LIGAND-PDBQT: ATOM     26  C   UNL     1       3.880  -0.417   1.459  1.00  0.00     0.208 A 
INPUT-LIGAND-PDBQT: ATOM     27  H   UNL     1       3.330   1.028   0.058  1.00  0.00     0.193 HD
INPUT-LIGAND-PDBQT: BRANCH  26  28
INPUT-LIGAND-PDBQT: ATOM     28  N   UNL     1       4.744  -1.163   0.897  1.00  0.00    -0.183 NA
INPUT-LIGAND-PDBQT: BRANCH  28  29
INPUT-LIGAND-PDBQT: ATOM     29  C   UNL     1       5.161  -0.921  -0.466  1.00  0.00     0.255 C 
INPUT-LIGAND-PDBQT: ATOM     30  O   UNL     1       4.400  -1.190  -1.427  1.00  0.00    -0.272 OA
INPUT-LIGAND-PDBQT: BRANCH  29  31
INPUT-LIGAND-PDBQT: ATOM     31  C   UNL     1       6.527  -0.343  -0.649  1.00  0.00     0.123 C 
INPUT-LIGAND-PDBQT: ATOM     32  C   UNL     1       7.479  -1.334  -0.045  1.00  0.00     0.243 C 
INPUT-LIGAND-PDBQT: ATOM     33  C   UNL     1       6.704  -0.085  -2.102  1.00  0.00     0.056 C 
INPUT-LIGAND-PDBQT: ATOM     34  O   UNL     1       8.800  -1.191  -0.511  1.00  0.00    -0.492 OA
INPUT-LIGAND-PDBQT: ATOM     35  C   UNL     1       8.052  -0.370  -2.608  1.00  0.00    -0.005 A 
INPUT-LIGAND-PDBQT: ATOM     36  C   UNL     1       9.074  -0.905  -1.851  1.00  0.00     0.122 A 
INPUT-LIGAND-PDBQT: ATOM     37  C   UNL     1       8.328  -0.090  -3.928  1.00  0.00     0.007 A 
INPUT-LIGAND-PDBQT: ATOM     38  C   UNL     1      10.333  -1.164  -2.351  1.00  0.00     0.047 A 
INPUT-LIGAND-PDBQT: ATOM     39  C   UNL     1       9.572  -0.333  -4.469  1.00  0.00     0.001 A 
INPUT-LIGAND-PDBQT: ATOM     40  C   UNL     1      10.573  -0.870  -3.678  1.00  0.00     0.004 A 
INPUT-LIGAND-PDBQT: ENDBRANCH  29  31
INPUT-LIGAND-PDBQT: ENDBRANCH  28  29
INPUT-LIGAND-PDBQT: ENDBRANCH  26  28
INPUT-LIGAND-PDBQT: ENDBRANCH  21  22
INPUT-LIGAND-PDBQT: ENDBRANCH  20  21
INPUT-LIGAND-PDBQT: ENDBRANCH  19  20
INPUT-LIGAND-PDBQT: ENDBRANCH  18  19
INPUT-LIGAND-PDBQT: ENDBRANCH   4  18
INPUT-LIGAND-PDBQT: TORSDOF 14


    FINAL DOCKED STATE:
    ________________________


Run:   1 / 20
Time taken for this run:   0.088s

DOCKED: MODEL        1
DOCKED: USER    Run = 1
DOCKED: USER
DOCKED: USER    Estimated Free Energy of Binding    =  -5.49 kcal/mol  [=(1)+(2)+(3)-(4)]
DOCKED: USER
DOCKED: USER    (1) Final Intermolecular Energy     =  -9.67 kcal/mol
DOCKED: USER        vdW + Hbond + desolv Energy     =  -9.47 kcal/mol
DOCKED: USER        Electrostatic Energy            =  -0.20 kcal/mol
DOCKED: USER        Moving Ligand-Fixed Receptor    =  -9.67 kcal/mol
DOCKED: USER        Moving Ligand-Moving Receptor   =  +0.00 kcal/mol
DOCKED: USER    (2) Final Total Internal Energy     =  -5.90 kcal/mol
DOCKED: USER    (3) Torsional Free Energy           =  +4.18 kcal/mol
DOCKED: USER    (4) Unbound System's Energy         =  -5.90 kcal/mol
DOCKED: USER
DOCKED: USER
DOCKED: REMARK SMILES C[C@@H](C(=O)/N=c1\[nH]nc(CCCCc2n[nH]/c(=N\C(=O)[C@H]3COc4ccccc4C3)s2)s1)C(C)(C)CO
DOCKED: REMARK SMILES IDX 6 1 7 2 8 3 9 4 32 5 5 7 3 8 4 9 2 10 1 11 33 12 34 13 35 14
DOCKED: REMARK SMILES IDX 36 15 37 16 10 18 11 19 12 20 13 21 14 22 15 23 31 24 16 25
DOCKED: REMARK SMILES IDX 17 26 18 28 19 29 20 30 21 31 22 32 30 33 23 34 29 35 24 36
DOCKED: REMARK SMILES IDX 28 37 25 38 27 39 26 40
DOCKED: REMARK H PARENT 7 6 37 17 16 27
DOCKED: USER                              x       y       z     vdW  Elec       q    Type
DOCKED: USER                           _______ _______ _______ _____ _____    ______ ____
DOCKED: ROOT
DOCKED: ATOM      1  C   UNL     1     138.678  78.272 221.944 -0.14 -0.04    +0.208 A  
DOCKED: ATOM      2  N   UNL     1     139.308  77.076 221.949 -0.16 +0.06    -0.251 N  
DOCKED: ATOM      3  N   UNL     1     138.530  76.064 221.895 -0.19 +0.04    -0.167 NA 
DOCKED: ATOM      4  C   UNL     1     137.376  75.939 221.843 -0.16 -0.03    +0.116 A  
DOCKED: ATOM      5  S   UNL     1     136.871  77.802 221.856 -0.16 +0.01    -0.080 S  
DOCKED: ATOM      6  H   UNL     1     140.375  77.063 221.996 +0.08 -0.06    +0.193 HD 
DOCKED: ENDROOT
DOCKED: BRANCH   1   7
DOCKED: ATOM      7  N   UNL     1     139.081  79.476 221.985 -0.11 +0.04    -0.184 NA 
DOCKED: BRANCH   7   8
DOCKED: ATOM      8  C   UNL     1     139.550  80.065 223.221 -0.26 -0.04    +0.251 C  
DOCKED: ATOM      9  O   UNL     1     138.902  79.957 224.288 -0.30 +0.03    -0.272 OA 
DOCKED: BRANCH   8  10
DOCKED: ATOM     10  C   UNL     1     140.828  80.794 223.149 -0.43 -0.01    +0.086 C  
DOCKED: ATOM     11  C   UNL     1     140.833  81.782 222.006 -0.37 -0.00    +0.019 C  
DOCKED: BRANCH  10  12
DOCKED: ATOM     12  C   UNL     1     142.019  79.873 223.054 -0.62 +0.00    -0.001 C  
DOCKED: ATOM     13  C   UNL     1     143.321  80.527 223.389 -0.60 -0.00    +0.014 C  
DOCKED: ATOM     14  C   UNL     1     141.798  78.706 224.017 -0.53 -0.00    +0.014 C  
DOCKED: BRANCH  12  15
DOCKED: ATOM     15  C   UNL     1     142.097  79.262 221.671 -0.28 -0.09    +0.163 C  
DOCKED: BRANCH  15  16
DOCKED: ATOM     16  O   UNL     1     141.805  77.887 221.734 -0.12 +0.25    -0.396 OA 
DOCKED: ATOM     17  H   UNL     1     142.536  77.326 221.429 -0.43 -0.23    +0.210 HD 
DOCKED: ENDBRANCH  15  16
DOCKED: ENDBRANCH  12  15
DOCKED: ENDBRANCH  10  12
DOCKED: ENDBRANCH   8  10
DOCKED: ENDBRANCH   7   8
DOCKED: ENDBRANCH   1   7
DOCKED: BRANCH   4  18
DOCKED: ATOM     18  C   UNL     1     136.239  74.962 221.773 -0.11 -0.02    +0.070 C  
DOCKED: BRANCH  18  19
DOCKED: ATOM     19  C   UNL     1     136.634  73.715 222.532 -0.10 -0.00    +0.008 C  
DOCKED: BRANCH  19  20
DOCKED: ATOM     20  C   UNL     1     137.548  72.901 221.675 -0.13 -0.00    +0.008 C  
DOCKED: BRANCH  20  21
DOCKED: ATOM     21  C   UNL     1     138.817  72.489 222.331 -0.18 -0.02    +0.070 C  
DOCKED: BRANCH  21  22
DOCKED: ATOM     22  C   UNL     1     139.862  73.451 221.840 -0.24 -0.02    +0.116 A  
DOCKED: ATOM     23  N   UNL     1     140.623  74.278 222.100 -0.71 -0.00    -0.167 NA 
DOCKED: ATOM     24  S   UNL     1     140.137  73.343 219.938 -0.11 +0.02    -0.080 S  
DOCKED: ATOM     25  N   UNL     1     141.446  74.973 221.405 -0.21 +0.06    -0.251 N  
DOCKED: ATOM     26  C   UNL     1     141.430  74.686 220.080 -0.14 -0.06    +0.208 A  
DOCKED: ATOM     27  H   UNL     1     142.116  75.724 221.756 -0.47 -0.12    +0.193 HD 
DOCKED: BRANCH  26  28
DOCKED: ATOM     28  N   UNL     1     142.074  75.137 219.080 -0.09 +0.07    -0.183 NA 
DOCKED: BRANCH  28  29
DOCKED: ATOM     29  C   UNL     1     142.591  76.487 219.076 -0.21 -0.14    +0.255 C  
DOCKED: ATOM     30  O   UNL     1     143.651  76.770 219.684 -0.33 +0.22    -0.272 OA 
DOCKED: BRANCH  29  31
DOCKED: ATOM     31  C   UNL     1     141.795  77.499 218.316 -0.18 -0.07    +0.123 C  
DOCKED: ATOM     32  C   UNL     1     140.489  77.627 219.044 -0.05 -0.09    +0.243 C  
DOCKED: ATOM     33  C   UNL     1     142.614  78.737 218.243 -0.29 -0.05    +0.056 C  
DOCKED: ATOM     34  O   UNL     1     139.808  78.826 218.757 +0.01 +0.17    -0.492 OA 
DOCKED: ATOM     35  C   UNL     1     141.846  79.980 218.375 -0.28 +0.00    -0.005 A  
DOCKED: ATOM     36  C   UNL     1     140.490  80.039 218.624 -0.09 -0.05    +0.122 A  
DOCKED: ATOM     37  C   UNL     1     142.513  81.178 218.245 -0.31 -0.01    +0.007 A  
DOCKED: ATOM     38  C   UNL     1     139.791  81.221 218.745 -0.07 -0.01    +0.047 A  
DOCKED: ATOM     39  C   UNL     1     141.854  82.384 218.358 -0.24 -0.00    +0.001 A  
DOCKED: ATOM     40  C   UNL     1     140.492  82.402 218.608 -0.13 -0.00    +0.004 A  
DOCKED: ENDBRANCH  29  31
DOCKED: ENDBRANCH  28  29
DOCKED: ENDBRANCH  26  28
DOCKED: ENDBRANCH  21  22
DOCKED: ENDBRANCH  20  21
DOCKED: ENDBRANCH  19  20
DOCKED: ENDBRANCH  18  19
DOCKED: ENDBRANCH   4  18
DOCKED: TORSDOF 14
DOCKED: TER
DOCKED: ENDMDL
________________________________________________________________________________


    FINAL DOCKED STATE:
    ________________________


Run:   2 / 20
Time taken for this run:   0.088s

DOCKED: MODEL        2
DOCKED: USER    Run = 2
DOCKED: USER
DOCKED: USER    Estimated Free Energy of Binding    =  -5.36 kcal/mol  [=(1)+(2)+(3)-(4)]
DOCKED: USER
DOCKED: USER    (1) Final Intermolecular Energy     =  -9.54 kcal/mol
DOCKED: USER        vdW + Hbond + desolv Energy     =  -9.50 kcal/mol
DOCKED: USER        Electrostatic Energy            =  -0.03 kcal/mol
DOCKED: USER        Moving Ligand-Fixed Receptor    =  -9.54 kcal/mol
DOCKED: USER        Moving Ligand-Moving Receptor   =  +0.00 kcal/mol
DOCKED: USER    (2) Final Total Internal Energy     =  -5.92 kcal/mol
DOCKED: USER    (3) Torsional Free Energy           =  +4.18 kcal/mol
DOCKED: USER    (4) Unbound System's Energy         =  -5.92 kcal/mol
DOCKED: USER
DOCKED: USER
DOCKED: REMARK SMILES C[C@@H](C(=O)/N=c1\[nH]nc(CCCCc2n[nH]/c(=N\C(=O)[C@H]3COc4ccccc4C3)s2)s1)C(C)(C)CO
DOCKED: REMARK SMILES IDX 6 1 7 2 8 3 9 4 32 5 5 7 3 8 4 9 2 10 1 11 33 12 34 13 35 14
DOCKED: REMARK SMILES IDX 36 15 37 16 10 18 11 19 12 20 13 21 14 22 15 23 31 24 16 25
DOCKED: REMARK SMILES IDX 17 26 18 28 19 29 20 30 21 31 22 32 30 33 23 34 29 35 24 36
DOCKED: REMARK SMILES IDX 28 37 25 38 27 39 26 40
DOCKED: REMARK H PARENT 7 6 37 17 16 27
DOCKED: USER                              x       y       z     vdW  Elec       q    Type
DOCKED: USER                           _______ _______ _______ _____ _____    ______ ____
DOCKED: ROOT
DOCKED: ATOM      1  C   UNL     1     141.738  75.421 220.740 -0.21 -0.08    +0.208 A  
DOCKED: ATOM      2  N   UNL     1     140.872  74.672 221.461 -0.21 +0.04    -0.251 N  
DOCKED: ATOM      3  N   UNL     1     139.976  75.341 222.079 -0.57 +0.02    -0.167 NA 
DOCKED: ATOM      4  C   UNL     1     139.735  76.474 222.164 -0.31 -0.03    +0.116 A  
DOCKED: ATOM      5  S   UNL     1     141.142  77.167 221.038 -0.35 +0.04    -0.080 S  
DOCKED: ATOM      6  H   UNL     1     140.995  73.611 221.460 +0.06 -0.02    +0.193 HD 
DOCKED: ENDROOT
DOCKED: BRANCH   1   7
DOCKED: ATOM      7  N   UNL     1     142.738  75.143 220.008 -0.22 +0.08    -0.184 NA 
DOCKED: BRANCH   7   8
DOCKED: ATOM      8  C   UNL     1     142.843  73.864 219.340 -0.12 -0.06    +0.251 C  
DOCKED: ATOM      9  O   UNL     1     141.835  73.151 219.124 -0.04 +0.05    -0.272 OA 
DOCKED: BRANCH   8  10
DOCKED: ATOM     10  C   UNL     1     144.197  73.454 218.933 -0.21 -0.01    +0.086 C  
DOCKED: ATOM     11  C   UNL     1     144.192  72.831 217.557 -0.12 -0.00    +0.019 C  
DOCKED: BRANCH  10  12
DOCKED: ATOM     12  C   UNL     1     144.848  72.525 219.929 -0.41 -0.00    -0.001 C  
DOCKED: ATOM     13  C   UNL     1     145.525  71.346 219.307 -0.30 +0.01    +0.014 C  
DOCKED: ATOM     14  C   UNL     1     145.886  73.323 220.718 -0.66 -0.00    +0.014 C  
DOCKED: BRANCH  12  15
DOCKED: ATOM     15  C   UNL     1     143.828  72.051 220.943 -0.14 -0.03    +0.163 C  
DOCKED: BRANCH  15  16
DOCKED: ATOM     16  O   UNL     1     142.897  71.195 220.327 -0.09 +0.04    -0.396 OA 
DOCKED: ATOM     17  H   UNL     1     141.977  71.467 220.465 +0.06 -0.03    +0.210 HD 
DOCKED: ENDBRANCH  15  16
DOCKED: ENDBRANCH  12  15
DOCKED: ENDBRANCH  10  12
DOCKED: ENDBRANCH   8  10
DOCKED: ENDBRANCH   7   8
DOCKED: ENDBRANCH   1   7
DOCKED: BRANCH   4  18
DOCKED: ATOM     18  C   UNL     1     138.822  77.503 222.763 -0.23 -0.01    +0.070 C  
DOCKED: BRANCH  18  19
DOCKED: ATOM     19  C   UNL     1     137.392  77.087 222.496 -0.25 -0.00    +0.008 C  
DOCKED: BRANCH  19  20
DOCKED: ATOM     20  C   UNL     1     137.175  77.039 221.019 -0.09 -0.00    +0.008 C  
DOCKED: BRANCH  20  21
DOCKED: ATOM     21  C   UNL     1     136.442  75.840 220.534 -0.04 -0.01    +0.070 C  
DOCKED: BRANCH  21  22
DOCKED: ATOM     22  C   UNL     1     137.494  74.801 220.264 -0.04 -0.02    +0.116 A  
DOCKED: ATOM     23  N   UNL     1     138.315  74.407 219.556 -0.02 +0.03    -0.167 NA 
DOCKED: ATOM     24  S   UNL     1     137.610  73.481 221.661 -0.17 +0.02    -0.080 S  
DOCKED: ATOM     25  N   UNL     1     139.115  73.406 219.600 -0.01 +0.05    -0.251 N  
DOCKED: ATOM     26  C   UNL     1     138.978  72.637 220.707 -0.06 -0.04    +0.208 A  
DOCKED: ATOM     27  H   UNL     1     139.848  73.132 218.877 +0.02 -0.04    +0.193 HD 
DOCKED: BRANCH  26  28
DOCKED: ATOM     28  N   UNL     1     139.563  71.585 221.119 -0.08 +0.03    -0.183 NA 
DOCKED: BRANCH  28  29
DOCKED: ATOM     29  C   UNL     1     140.277  71.575 222.376 -0.20 -0.03    +0.255 C  
DOCKED: ATOM     30  O   UNL     1     141.453  72.007 222.449 -0.11 +0.01    -0.272 OA 
DOCKED: BRANCH  29  31
DOCKED: ATOM     31  C   UNL     1     139.538  71.028 223.554 -0.30 -0.02    +0.123 C  
DOCKED: ATOM     32  C   UNL     1     139.437  69.548 223.328 -0.10 -0.04    +0.243 C  
DOCKED: ATOM     33  C   UNL     1     140.283  71.443 224.772 -0.45 -0.01    +0.056 C  
DOCKED: ATOM     34  O   UNL     1     139.187  68.821 224.508 -0.14 +0.07    -0.492 OA 
DOCKED: ATOM     35  C   UNL     1     140.328  70.428 225.830 -0.54 +0.00    -0.005 A  
DOCKED: ATOM     36  C   UNL     1     139.803  69.156 225.716 -0.39 -0.02    +0.122 A  
DOCKED: ATOM     37  C   UNL     1     140.934  70.753 227.023 -0.64 -0.00    +0.007 A  
DOCKED: ATOM     38  C   UNL     1     139.859  68.219 226.727 -0.60 -0.01    +0.047 A  
DOCKED: ATOM     39  C   UNL     1     141.012  69.847 228.059 -0.60 -0.00    +0.001 A  
DOCKED: ATOM     40  C   UNL     1     140.473  68.581 227.908 -0.66 -0.00    +0.004 A  
DOCKED: ENDBRANCH  29  31
DOCKED: ENDBRANCH  28  29
DOCKED: ENDBRANCH  26  28
DOCKED: ENDBRANCH  21  22
DOCKED: ENDBRANCH  20  21
DOCKED: ENDBRANCH  19  20
DOCKED: ENDBRANCH  18  19
DOCKED: ENDBRANCH   4  18
DOCKED: TORSDOF 14
DOCKED: TER
DOCKED: ENDMDL
________________________________________________________________________________


    FINAL DOCKED STATE:
    ________________________


Run:   3 / 20
Time taken for this run:   0.088s

DOCKED: MODEL        3
DOCKED: USER    Run = 3
DOCKED: USER
DOCKED: USER    Estimated Free Energy of Binding    =  -2.79 kcal/mol  [=(1)+(2)+(3)-(4)]
DOCKED: USER
DOCKED: USER    (1) Final Intermolecular Energy     =  -6.96 kcal/mol
DOCKED: USER        vdW + Hbond + desolv Energy     =  -7.01 kcal/mol
DOCKED: USER        Electrostatic Energy            =  +0.05 kcal/mol
DOCKED: USER        Moving Ligand-Fixed Receptor    =  -6.96 kcal/mol
DOCKED: USER        Moving Ligand-Moving Receptor   =  +0.00 kcal/mol
DOCKED: USER    (2) Final Total Internal Energy     =  -7.28 kcal/mol
DOCKED: USER    (3) Torsional Free Energy           =  +4.18 kcal/mol
DOCKED: USER    (4) Unbound System's Energy         =  -7.28 kcal/mol
DOCKED: USER
DOCKED: USER
DOCKED: REMARK SMILES C[C@@H](C(=O)/N=c1\[nH]nc(CCCCc2n[nH]/c(=N\C(=O)[C@H]3COc4ccccc4C3)s2)s1)C(C)(C)CO
DOCKED: REMARK SMILES IDX 6 1 7 2 8 3 9 4 32 5 5 7 3 8 4 9 2 10 1 11 33 12 34 13 35 14
DOCKED: REMARK SMILES IDX 36 15 37 16 10 18 11 19 12 20 13 21 14 22 15 23 31 24 16 25
DOCKED: REMARK SMILES IDX 17 26 18 28 19 29 20 30 21 31 22 32 30 33 23 34 29 35 24 36
DOCKED: REMARK SMILES IDX 28 37 25 38 27 39 26 40
DOCKED: REMARK H PARENT 7 6 37 17 16 27
DOCKED: USER                              x       y       z     vdW  Elec       q    Type
DOCKED: USER                           _______ _______ _______ _____ _____    ______ ____
DOCKED: ROOT
DOCKED: ATOM      1  C   UNL     1     141.321  79.110 218.874 -0.14 -0.11    +0.208 A  
DOCKED: ATOM      2  N   UNL     1     140.571  78.013 218.622 -0.03 +0.10    -0.251 N  
DOCKED: ATOM      3  N   UNL     1     140.907  77.370 217.570 -0.04 +0.07    -0.167 NA 
DOCKED: ATOM      4  C   UNL     1     141.729  77.521 216.763 -0.11 -0.07    +0.116 A  
DOCKED: ATOM      5  S   UNL     1     142.544  79.126 217.461 -0.30 +0.08    -0.080 S  
DOCKED: ATOM      6  H   UNL     1     139.780  77.770 219.297 +0.04 -0.06    +0.193 HD 
DOCKED: ENDROOT
DOCKED: BRANCH   1   7
DOCKED: ATOM      7  N   UNL     1     141.307  79.988 219.792 -0.16 +0.08    -0.184 NA 
DOCKED: BRANCH   7   8
DOCKED: ATOM      8  C   UNL     1     140.710  79.713 221.081 -0.16 -0.08    +0.251 C  
DOCKED: ATOM      9  O   UNL     1     140.027  78.682 221.282 -0.09 +0.08    -0.272 OA 
DOCKED: BRANCH   8  10
DOCKED: ATOM     10  C   UNL     1     140.953  80.712 222.135 -0.36 -0.02    +0.086 C  
DOCKED: ATOM     11  C   UNL     1     141.491  82.000 221.558 -0.37 -0.00    +0.019 C  
DOCKED: BRANCH  10  12
DOCKED: ATOM     12  C   UNL     1     141.866  80.200 223.222 -0.62 +0.00    -0.001 C  
DOCKED: ATOM     13  C   UNL     1     143.191  79.716 222.725 -0.45 -0.01    +0.014 C  
DOCKED: ATOM     14  C   UNL     1     142.105  81.335 224.218 -0.50 -0.00    +0.014 C  
DOCKED: BRANCH  12  15
DOCKED: ATOM     15  C   UNL     1     141.181  79.098 224.002 -0.37 -0.03    +0.163 C  
DOCKED: BRANCH  15  16
DOCKED: ATOM     16  O   UNL     1     141.471  77.847 223.427 -0.29 +0.15    -0.396 OA 
DOCKED: ATOM     17  H   UNL     1     140.724  77.469 222.938 +0.09 -0.06    +0.210 HD 
DOCKED: ENDBRANCH  15  16
DOCKED: ENDBRANCH  12  15
DOCKED: ENDBRANCH  10  12
DOCKED: ENDBRANCH   8  10
DOCKED: ENDBRANCH   7   8
DOCKED: ENDBRANCH   1   7
DOCKED: BRANCH   4  18
DOCKED: ATOM     18  C   UNL     1     142.338  76.984 215.502 -0.11 -0.04    +0.070 C  
DOCKED: BRANCH  18  19
DOCKED: ATOM     19  C   UNL     1     143.216  75.805 215.859 -0.15 -0.00    +0.008 C  
DOCKED: BRANCH  19  20
DOCKED: ATOM     20  C   UNL     1     143.691  75.970 217.267 -0.22 -0.00    +0.008 C  
DOCKED: BRANCH  20  21
DOCKED: ATOM     21  C   UNL     1     143.362  74.840 218.173 -0.18 -0.03    +0.070 C  
DOCKED: BRANCH  21  22
DOCKED: ATOM     22  C   UNL     1     142.672  75.454 219.359 -0.24 -0.05    +0.116 A  
DOCKED: ATOM     23  N   UNL     1     142.568  76.361 220.063 -0.24 +0.10    -0.167 NA 
DOCKED: ATOM     24  S   UNL     1     141.345  74.292 220.130 -0.23 +0.02    -0.080 S  
DOCKED: ATOM     25  N   UNL     1     141.825  76.614 221.077 -0.02 +0.15    -0.251 N  
DOCKED: ATOM     26  C   UNL     1     140.976  75.610 221.403 -0.25 -0.06    +0.208 A  
DOCKED: ATOM     27  H   UNL     1     141.813  77.503 221.664 -0.28 -0.13    +0.193 HD 
DOCKED: BRANCH  26  28
DOCKED: ATOM     28  N   UNL     1     140.099  75.467 222.314 -0.53 +0.02    -0.183 NA 
DOCKED: BRANCH  28  29
DOCKED: ATOM     29  C   UNL     1     138.878  76.241 222.299 -0.22 -0.05    +0.255 C  
DOCKED: ATOM     30  O   UNL     1     138.729  77.218 223.072 -0.19 +0.04    -0.272 OA 
DOCKED: BRANCH  29  31
DOCKED: ATOM     31  C   UNL     1     137.831  75.809 221.324 -0.13 -0.03    +0.123 C  
DOCKED: ATOM     32  C   UNL     1     136.592  76.577 221.682 -0.08 -0.05    +0.243 C  
DOCKED: ATOM     33  C   UNL     1     138.370  76.058 219.961 -0.05 -0.01    +0.056 C  
DOCKED: ATOM     34  O   UNL     1     135.659  76.648 220.630 +0.01 +0.08    -0.492 OA 
DOCKED: ATOM     35  C   UNL     1     137.377  76.546 218.997 -0.01 +0.00    -0.005 A  
DOCKED: ATOM     36  C   UNL     1     136.064  76.836 219.306 -0.01 -0.02    +0.122 A  
DOCKED: ATOM     37  C   UNL     1     137.771  76.734 217.691 -0.00 -0.00    +0.007 A  
DOCKED: ATOM     38  C   UNL     1     135.150  77.294 218.381 -0.00 -0.01    +0.047 A  
DOCKED: ATOM     39  C   UNL     1     136.891  77.190 216.733 +0.00 -0.00    +0.001 A  
DOCKED: ATOM     40  C   UNL     1     135.581  77.469 217.081 +0.00 -0.00    +0.004 A  
DOCKED: ENDBRANCH  29  31
DOCKED: ENDBRANCH  28  29
DOCKED: ENDBRANCH  26  28
DOCKED: ENDBRANCH  21  22
DOCKED: ENDBRANCH  20  21
DOCKED: ENDBRANCH  19  20
DOCKED: ENDBRANCH  18  19
DOCKED: ENDBRANCH   4  18
DOCKED: TORSDOF 14
DOCKED: TER
DOCKED: ENDMDL
________________________________________________________________________________


    FINAL DOCKED STATE:
    ________________________


Run:   4 / 20
Time taken for this run:   0.088s

DOCKED: MODEL        4
DOCKED: USER    Run = 4
DOCKED: USER
DOCKED: USER    Estimated Free Energy of Binding    =  -7.47 kcal/mol  [=(1)+(2)+(3)-(4)]
DOCKED: USER
DOCKED: USER    (1) Final Intermolecular Energy     = -11.65 kcal/mol
DOCKED: USER        vdW + Hbond + desolv Energy     = -11.55 kcal/mol
DOCKED: USER        Electrostatic Energy            =  -0.10 kcal/mol
DOCKED: USER        Moving Ligand-Fixed Receptor    = -11.65 kcal/mol
DOCKED: USER        Moving Ligand-Moving Receptor   =  +0.00 kcal/mol
DOCKED: USER    (2) Final Total Internal Energy     =  -2.49 kcal/mol
DOCKED: USER    (3) Torsional Free Energy           =  +4.18 kcal/mol
DOCKED: USER    (4) Unbound System's Energy         =  -2.49 kcal/mol
DOCKED: USER
DOCKED: USER
DOCKED: REMARK SMILES C[C@@H](C(=O)/N=c1\[nH]nc(CCCCc2n[nH]/c(=N\C(=O)[C@H]3COc4ccccc4C3)s2)s1)C(C)(C)CO
DOCKED: REMARK SMILES IDX 6 1 7 2 8 3 9 4 32 5 5 7 3 8 4 9 2 10 1 11 33 12 34 13 35 14
DOCKED: REMARK SMILES IDX 36 15 37 16 10 18 11 19 12 20 13 21 14 22 15 23 31 24 16 25
DOCKED: REMARK SMILES IDX 17 26 18 28 19 29 20 30 21 31 22 32 30 33 23 34 29 35 24 36
DOCKED: REMARK SMILES IDX 28 37 25 38 27 39 26 40
DOCKED: REMARK H PARENT 7 6 37 17 16 27
DOCKED: USER                              x       y       z     vdW  Elec       q    Type
DOCKED: USER                           _______ _______ _______ _____ _____    ______ ____
DOCKED: ROOT
DOCKED: ATOM      1  C   UNL     1     139.870  76.047 221.700 -0.24 -0.05    +0.208 A  
DOCKED: ATOM      2  N   UNL     1     140.913  75.222 221.944 -0.22 +0.04    -0.251 N  
DOCKED: ATOM      3  N   UNL     1     140.594  73.996 222.113 -0.74 -0.00    -0.167 NA 
DOCKED: ATOM      4  C   UNL     1     139.586  73.420 222.104 -0.21 -0.02    +0.116 A  
DOCKED: ATOM      5  S   UNL     1     138.398  74.896 221.738 -0.25 +0.02    -0.080 S  
DOCKED: ATOM      6  H   UNL     1     141.896  75.640 221.977 -0.42 -0.09    +0.193 HD 
DOCKED: ENDROOT
DOCKED: BRANCH   1   7
DOCKED: ATOM      7  N   UNL     1     139.771  77.295 221.485 -0.15 +0.05    -0.184 NA 
DOCKED: BRANCH   7   8
DOCKED: ATOM      8  C   UNL     1     140.940  78.097 221.195 -0.20 -0.11    +0.251 C  
DOCKED: ATOM      9  O   UNL     1     142.036  77.576 220.884 -0.19 +0.19    -0.272 OA 
DOCKED: BRANCH   8  10
DOCKED: ATOM     10  C   UNL     1     140.764  79.557 221.290 -0.25 -0.03    +0.086 C  
DOCKED: ATOM     11  C   UNL     1     141.625  80.280 220.281 -0.31 -0.01    +0.019 C  
DOCKED: BRANCH  10  12
DOCKED: ATOM     12  C   UNL     1     141.024  80.085 222.679 -0.47 +0.00    -0.001 C  
DOCKED: ATOM     13  C   UNL     1     141.433  81.523 222.715 -0.49 -0.00    +0.014 C  
DOCKED: ATOM     14  C   UNL     1     139.743  79.923 223.499 -0.44 -0.00    +0.014 C  
DOCKED: BRANCH  12  15
DOCKED: ATOM     15  C   UNL     1     142.071  79.239 223.371 -0.49 -0.06    +0.163 C  
DOCKED: BRANCH  15  16
DOCKED: ATOM     16  O   UNL     1     143.315  79.393 222.732 -0.30 +0.22    -0.396 OA 
DOCKED: ATOM     17  H   UNL     1     143.424  78.812 221.963 -0.46 -0.22    +0.210 HD 
DOCKED: ENDBRANCH  15  16
DOCKED: ENDBRANCH  12  15
DOCKED: ENDBRANCH  10  12
DOCKED: ENDBRANCH   8  10
DOCKED: ENDBRANCH   7   8
DOCKED: ENDBRANCH   1   7
DOCKED: BRANCH   4  18
DOCKED: ATOM     18  C   UNL     1     138.925  72.081 222.255 -0.20 -0.02    +0.070 C  
DOCKED: BRANCH  18  19
DOCKED: ATOM     19  C   UNL     1     137.821  71.974 221.227 -0.09 -0.00    +0.008 C  
DOCKED: BRANCH  19  20
DOCKED: ATOM     20  C   UNL     1     136.815  70.978 221.704 -0.07 -0.00    +0.008 C  
DOCKED: BRANCH  20  21
DOCKED: ATOM     21  C   UNL     1     137.378  69.851 222.493 -0.12 -0.01    +0.070 C  
DOCKED: BRANCH  21  22
DOCKED: ATOM     22  C   UNL     1     136.241  69.327 223.325 -0.14 -0.01    +0.116 A  
DOCKED: ATOM     23  N   UNL     1     135.420  68.529 223.459 -0.47 +0.01    -0.167 NA 
DOCKED: ATOM     24  S   UNL     1     135.924  70.386 224.901 -0.12 +0.01    -0.080 S  
DOCKED: ATOM     25  N   UNL     1     134.522  68.324 224.351 -0.07 +0.00    -0.251 N  
DOCKED: ATOM     26  C   UNL     1     134.526  69.232 225.357 -0.19 -0.01    +0.208 A  
DOCKED: ATOM     27  H   UNL     1     133.801  67.540 224.376 +0.03 -0.02    +0.193 HD 
DOCKED: BRANCH  26  28
DOCKED: ATOM     28  N   UNL     1     133.819  69.381 226.404 -0.70 -0.00    -0.183 NA 
DOCKED: BRANCH  28  29
DOCKED: ATOM     29  C   UNL     1     133.813  70.633 227.126 -0.18 -0.01    +0.255 C  
DOCKED: ATOM     30  O   UNL     1     134.462  70.762 228.193 -0.43 +0.04    -0.272 OA 
DOCKED: BRANCH  29  31
DOCKED: ATOM     31  C   UNL     1     133.001  71.738 226.532 -0.31 -0.01    +0.123 C  
DOCKED: ATOM     32  C   UNL     1     131.957  72.080 227.555 -0.18 -0.05    +0.243 C  
DOCKED: ATOM     33  C   UNL     1     133.941  72.834 226.180 -0.31 +0.00    +0.056 C  
DOCKED: ATOM     34  O   UNL     1     131.403  73.362 227.376 -0.17 +0.07    -0.492 OA 
DOCKED: ATOM     35  C   UNL     1     133.417  74.183 226.426 -0.33 -0.00    -0.005 A  
DOCKED: ATOM     36  C   UNL     1     132.193  74.453 227.004 -0.32 -0.01    +0.122 A  
DOCKED: ATOM     37  C   UNL     1     134.191  75.262 226.061 -0.41 +0.00    +0.007 A  
DOCKED: ATOM     38  C   UNL     1     131.724  75.731 227.225 -0.31 -0.00    +0.047 A  
DOCKED: ATOM     39  C   UNL     1     133.761  76.556 226.263 -0.32 -0.00    +0.001 A  
DOCKED: ATOM     40  C   UNL     1     132.527  76.787 226.845 -0.30 -0.00    +0.004 A  
DOCKED: ENDBRANCH  29  31
DOCKED: ENDBRANCH  28  29
DOCKED: ENDBRANCH  26  28
DOCKED: ENDBRANCH  21  22
DOCKED: ENDBRANCH  20  21
DOCKED: ENDBRANCH  19  20
DOCKED: ENDBRANCH  18  19
DOCKED: ENDBRANCH   4  18
DOCKED: TORSDOF 14
DOCKED: TER
DOCKED: ENDMDL
________________________________________________________________________________


    FINAL DOCKED STATE:
    ________________________


Run:   5 / 20
Time taken for this run:   0.088s

DOCKED: MODEL        5
DOCKED: USER    Run = 5
DOCKED: USER
DOCKED: USER    Estimated Free Energy of Binding    =  -5.33 kcal/mol  [=(1)+(2)+(3)-(4)]
DOCKED: USER
DOCKED: USER    (1) Final Intermolecular Energy     =  -9.50 kcal/mol
DOCKED: USER        vdW + Hbond + desolv Energy     =  -9.25 kcal/mol
DOCKED: USER        Electrostatic Energy            =  -0.25 kcal/mol
DOCKED: USER        Moving Ligand-Fixed Receptor    =  -9.50 kcal/mol
DOCKED: USER        Moving Ligand-Moving Receptor   =  +0.00 kcal/mol
DOCKED: USER    (2) Final Total Internal Energy     =  -4.29 kcal/mol
DOCKED: USER    (3) Torsional Free Energy           =  +4.18 kcal/mol
DOCKED: USER    (4) Unbound System's Energy         =  -4.29 kcal/mol
DOCKED: USER
DOCKED: USER
DOCKED: REMARK SMILES C[C@@H](C(=O)/N=c1\[nH]nc(CCCCc2n[nH]/c(=N\C(=O)[C@H]3COc4ccccc4C3)s2)s1)C(C)(C)CO
DOCKED: REMARK SMILES IDX 6 1 7 2 8 3 9 4 32 5 5 7 3 8 4 9 2 10 1 11 33 12 34 13 35 14
DOCKED: REMARK SMILES IDX 36 15 37 16 10 18 11 19 12 20 13 21 14 22 15 23 31 24 16 25
DOCKED: REMARK SMILES IDX 17 26 18 28 19 29 20 30 21 31 22 32 30 33 23 34 29 35 24 36
DOCKED: REMARK SMILES IDX 28 37 25 38 27 39 26 40
DOCKED: REMARK H PARENT 7 6 37 17 16 27
DOCKED: USER                              x       y       z     vdW  Elec       q    Type
DOCKED: USER                           _______ _______ _______ _____ _____    ______ ____
DOCKED: ROOT
DOCKED: ATOM      1  C   UNL     1     143.013  76.472 218.762 -0.24 -0.12    +0.208 A  
DOCKED: ATOM      2  N   UNL     1     142.424  77.074 219.821 -0.21 +0.17    -0.251 N  
DOCKED: ATOM      3  N   UNL     1     141.736  78.110 219.529 -0.18 +0.10    -0.167 NA 
DOCKED: ATOM      4  C   UNL     1     141.498  78.663 218.535 -0.17 -0.07    +0.116 A  
DOCKED: ATOM      5  S   UNL     1     142.484  77.534 217.318 -0.29 +0.06    -0.080 S  
DOCKED: ATOM      6  H   UNL     1     142.571  76.654 220.792 -0.38 -0.16    +0.193 HD 
DOCKED: ENDROOT
DOCKED: BRANCH   1   7
DOCKED: ATOM      7  N   UNL     1     143.756  75.449 218.637 -0.16 +0.10    -0.184 NA 
DOCKED: BRANCH   7   8
DOCKED: ATOM      8  C   UNL     1     143.640  74.327 219.542 -0.21 -0.09    +0.251 C  
DOCKED: ATOM      9  O   UNL     1     143.513  74.489 220.778 -0.27 +0.11    -0.272 OA 
DOCKED: BRANCH   8  10
DOCKED: ATOM     10  C   UNL     1     143.681  72.989 218.926 -0.16 -0.01    +0.086 C  
DOCKED: ATOM     11  C   UNL     1     142.291  72.467 218.652 -0.07 -0.00    +0.019 C  
DOCKED: BRANCH  10  12
DOCKED: ATOM     12  C   UNL     1     144.465  71.995 219.747 -0.32 -0.00    -0.001 C  
DOCKED: ATOM     13  C   UNL     1     143.763  71.544 220.987 -0.13 -0.00    +0.014 C  
DOCKED: ATOM     14  C   UNL     1     144.746  70.772 218.874 -0.24 +0.00    +0.014 C  
DOCKED: BRANCH  12  15
DOCKED: ATOM     15  C   UNL     1     145.819  72.569 220.107 -0.37 +0.04    +0.163 C  
DOCKED: BRANCH  15  16
DOCKED: ATOM     16  O   UNL     1     146.302  73.366 219.053 -0.69 -0.26    -0.396 OA 
DOCKED: ATOM     17  H   UNL     1     145.792  74.182 218.926 -0.42 -0.07    +0.210 HD 
DOCKED: ENDBRANCH  15  16
DOCKED: ENDBRANCH  12  15
DOCKED: ENDBRANCH  10  12
DOCKED: ENDBRANCH   8  10
DOCKED: ENDBRANCH   7   8
DOCKED: ENDBRANCH   1   7
DOCKED: BRANCH   4  18
DOCKED: ATOM     18  C   UNL     1     140.777  79.818 217.904 -0.11 -0.03    +0.070 C  
DOCKED: BRANCH  18  19
DOCKED: ATOM     19  C   UNL     1     141.806  80.772 217.338 -0.22 -0.01    +0.008 C  
DOCKED: BRANCH  19  20
DOCKED: ATOM     20  C   UNL     1     142.450  81.507 218.468 -0.13 -0.00    +0.008 C  
DOCKED: BRANCH  20  21
DOCKED: ATOM     21  C   UNL     1     141.504  82.174 219.400 -0.21 -0.02    +0.070 C  
DOCKED: BRANCH  21  22
DOCKED: ATOM     22  C   UNL     1     141.451  81.301 220.622 -0.28 -0.04    +0.116 A  
DOCKED: ATOM     23  N   UNL     1     142.025  80.804 221.490 -0.30 +0.06    -0.167 NA 
DOCKED: ATOM     24  S   UNL     1     139.674  80.670 221.008 -0.19 +0.02    -0.080 S  
DOCKED: ATOM     25  N   UNL     1     141.676  80.047 222.464 -0.28 +0.08    -0.251 N  
DOCKED: ATOM     26  C   UNL     1     140.352  79.760 222.492 -0.24 -0.05    +0.208 A  
DOCKED: ATOM     27  H   UNL     1     142.303  79.639 223.222 +0.13 -0.06    +0.193 HD 
DOCKED: BRANCH  26  28
DOCKED: ATOM     28  N   UNL     1     139.625  79.064 223.271 -0.26 +0.03    -0.183 NA 
DOCKED: BRANCH  28  29
DOCKED: ATOM     29  C   UNL     1     138.749  78.038 222.751 -0.18 -0.04    +0.255 C  
DOCKED: ATOM     30  O   UNL     1     137.535  78.012 223.066 -0.16 +0.04    -0.272 OA 
DOCKED: BRANCH  29  31
DOCKED: ATOM     31  C   UNL     1     139.372  77.036 221.835 -0.25 -0.03    +0.123 C  
DOCKED: ATOM     32  C   UNL     1     140.713  76.711 222.428 -0.24 -0.07    +0.243 C  
DOCKED: ATOM     33  C   UNL     1     138.426  75.895 221.722 -0.23 -0.01    +0.056 C  
DOCKED: ATOM     34  O   UNL     1     141.240  75.487 221.973 -0.32 +0.12    -0.492 OA 
DOCKED: ATOM     35  C   UNL     1     139.070  74.577 221.672 -0.25 +0.00    -0.005 A  
DOCKED: ATOM     36  C   UNL     1     140.428  74.365 221.793 -0.21 -0.01    +0.122 A  
DOCKED: ATOM     37  C   UNL     1     138.274  73.467 221.494 -0.16 -0.00    +0.007 A  
DOCKED: ATOM     38  C   UNL     1     141.008  73.115 221.742 -0.27 -0.00    +0.047 A  
DOCKED: ATOM     39  C   UNL     1     138.812  72.199 221.438 -0.14 -0.00    +0.001 A  
DOCKED: ATOM     40  C   UNL     1     140.180  72.026 221.562 -0.23 -0.00    +0.004 A  
DOCKED: ENDBRANCH  29  31
DOCKED: ENDBRANCH  28  29
DOCKED: ENDBRANCH  26  28
DOCKED: ENDBRANCH  21  22
DOCKED: ENDBRANCH  20  21
DOCKED: ENDBRANCH  19  20
DOCKED: ENDBRANCH  18  19
DOCKED: ENDBRANCH   4  18
DOCKED: TORSDOF 14
DOCKED: TER
DOCKED: ENDMDL
________________________________________________________________________________


    FINAL DOCKED STATE:
    ________________________


Run:   6 / 20
Time taken for this run:   0.088s

DOCKED: MODEL        6
DOCKED: USER    Run = 6
DOCKED: USER
DOCKED: USER    Estimated Free Energy of Binding    =  -4.13 kcal/mol  [=(1)+(2)+(3)-(4)]
DOCKED: USER
DOCKED: USER    (1) Final Intermolecular Energy     =  -8.30 kcal/mol
DOCKED: USER        vdW + Hbond + desolv Energy     =  -8.35 kcal/mol
DOCKED: USER        Electrostatic Energy            =  +0.04 kcal/mol
DOCKED: USER        Moving Ligand-Fixed Receptor    =  -8.30 kcal/mol
DOCKED: USER        Moving Ligand-Moving Receptor   =  +0.00 kcal/mol
DOCKED: USER    (2) Final Total Internal Energy     =  -6.40 kcal/mol
DOCKED: USER    (3) Torsional Free Energy           =  +4.18 kcal/mol
DOCKED: USER    (4) Unbound System's Energy         =  -6.40 kcal/mol
DOCKED: USER
DOCKED: USER
DOCKED: REMARK SMILES C[C@@H](C(=O)/N=c1\[nH]nc(CCCCc2n[nH]/c(=N\C(=O)[C@H]3COc4ccccc4C3)s2)s1)C(C)(C)CO
DOCKED: REMARK SMILES IDX 6 1 7 2 8 3 9 4 32 5 5 7 3 8 4 9 2 10 1 11 33 12 34 13 35 14
DOCKED: REMARK SMILES IDX 36 15 37 16 10 18 11 19 12 20 13 21 14 22 15 23 31 24 16 25
DOCKED: REMARK SMILES IDX 17 26 18 28 19 29 20 30 21 31 22 32 30 33 23 34 29 35 24 36
DOCKED: REMARK SMILES IDX 28 37 25 38 27 39 26 40
DOCKED: REMARK H PARENT 7 6 37 17 16 27
DOCKED: USER                              x       y       z     vdW  Elec       q    Type
DOCKED: USER                           _______ _______ _______ _____ _____    ______ ____
DOCKED: ROOT
DOCKED: ATOM      1  C   UNL     1     138.386  77.684 222.132 -0.17 -0.04    +0.208 A  
DOCKED: ATOM      2  N   UNL     1     138.023  77.465 220.848 -0.03 +0.05    -0.251 N  
DOCKED: ATOM      3  N   UNL     1     137.263  76.452 220.675 -0.04 +0.03    -0.167 NA 
DOCKED: ATOM      4  C   UNL     1     136.806  75.659 221.390 -0.09 -0.02    +0.116 A  
DOCKED: ATOM      5  S   UNL     1     137.536  76.301 223.058 -0.26 +0.02    -0.080 S  
DOCKED: ATOM      6  H   UNL     1     138.384  78.132 220.095 +0.03 -0.04    +0.193 HD 
DOCKED: ENDROOT
DOCKED: BRANCH   1   7
DOCKED: ATOM      7  N   UNL     1     139.109  78.560 222.701 -0.20 +0.03    -0.184 NA 
DOCKED: BRANCH   7   8
DOCKED: ATOM      8  C   UNL     1     139.579  79.723 221.981 -0.15 -0.05    +0.251 C  
DOCKED: ATOM      9  O   UNL     1     139.375  79.863 220.752 -0.05 +0.07    -0.272 OA 
DOCKED: BRANCH   8  10
DOCKED: ATOM     10  C   UNL     1     140.309  80.726 222.774 -0.35 -0.02    +0.086 C  
DOCKED: ATOM     11  C   UNL     1     140.368  82.055 222.059 -0.30 -0.00    +0.019 C  
DOCKED: BRANCH  10  12
DOCKED: ATOM     12  C   UNL     1     141.697  80.270 223.154 -0.59 +0.00    -0.001 C  
DOCKED: ATOM     13  C   UNL     1     142.583  79.986 221.984 -0.41 -0.01    +0.014 C  
DOCKED: ATOM     14  C   UNL     1     142.345  81.365 224.001 -0.57 -0.00    +0.014 C  
DOCKED: BRANCH  12  15
DOCKED: ATOM     15  C   UNL     1     141.619  79.047 224.043 -0.43 -0.04    +0.163 C  
DOCKED: BRANCH  15  16
DOCKED: ATOM     16  O   UNL     1     141.665  77.878 223.261 -0.25 +0.18    -0.396 OA 
DOCKED: ATOM     17  H   UNL     1     141.206  77.968 222.411 +0.06 -0.09    +0.210 HD 
DOCKED: ENDBRANCH  15  16
DOCKED: ENDBRANCH  12  15
DOCKED: ENDBRANCH  10  12
DOCKED: ENDBRANCH   8  10
DOCKED: ENDBRANCH   7   8
DOCKED: ENDBRANCH   1   7
DOCKED: BRANCH   4  18
DOCKED: ATOM     18  C   UNL     1     135.940  74.438 221.492 -0.08 -0.01    +0.070 C  
DOCKED: BRANCH  18  19
DOCKED: ATOM     19  C   UNL     1     136.676  73.276 220.863 -0.06 -0.00    +0.008 C  
DOCKED: BRANCH  19  20
DOCKED: ATOM     20  C   UNL     1     137.874  72.959 221.699 -0.15 -0.00    +0.008 C  
DOCKED: BRANCH  20  21
DOCKED: ATOM     21  C   UNL     1     139.131  72.751 220.934 -0.12 -0.01    +0.070 C  
DOCKED: BRANCH  21  22
DOCKED: ATOM     22  C   UNL     1     139.992  73.948 221.229 -0.21 -0.02    +0.116 A  
DOCKED: ATOM     23  N   UNL     1     140.677  74.494 221.979 -0.73 +0.01    -0.167 NA 
DOCKED: ATOM     24  S   UNL     1     140.049  75.200 219.768 -0.12 +0.02    -0.080 S  
DOCKED: ATOM     25  N   UNL     1     141.325  75.599 221.943 -0.20 +0.07    -0.251 N  
DOCKED: ATOM     26  C   UNL     1     141.184  76.284 220.783 -0.20 -0.08    +0.208 A  
DOCKED: ATOM     27  H   UNL     1     141.939  76.014 222.709 -0.47 -0.11    +0.193 HD 
DOCKED: BRANCH  26  28
DOCKED: ATOM     28  N   UNL     1     141.648  77.391 220.359 -0.19 +0.10    -0.183 NA 
DOCKED: BRANCH  28  29
DOCKED: ATOM     29  C   UNL     1     141.098  78.024 219.181 -0.10 -0.12    +0.255 C  
DOCKED: ATOM     30  O   UNL     1     139.869  77.968 218.936 -0.02 +0.09    -0.272 OA 
DOCKED: BRANCH  29  31
DOCKED: ATOM     31  C   UNL     1     142.071  78.734 218.295 -0.24 -0.09    +0.123 C  
DOCKED: ATOM     32  C   UNL     1     141.534  78.596 216.900 -0.10 -0.16    +0.243 C  
DOCKED: ATOM     33  C   UNL     1     142.193  80.125 218.802 -0.30 -0.04    +0.056 C  
DOCKED: ATOM     34  O   UNL     1     142.050  79.557 216.009 -0.05 +0.51    -0.492 OA 
DOCKED: ATOM     35  C   UNL     1     142.313  81.144 217.753 -0.31 +0.00    -0.005 A  
DOCKED: ATOM     36  C   UNL     1     142.245  80.884 216.399 -0.12 -0.13    +0.122 A  
DOCKED: ATOM     37  C   UNL     1     142.506  82.454 218.132 -0.22 -0.00    +0.007 A  
DOCKED: ATOM     38  C   UNL     1     142.361  81.861 215.432 -0.14 -0.04    +0.047 A  
DOCKED: ATOM     39  C   UNL     1     142.626  83.462 217.199 -0.25 -0.00    +0.001 A  
DOCKED: ATOM     40  C   UNL     1     142.553  83.162 215.850 -0.17 -0.00    +0.004 A  
DOCKED: ENDBRANCH  29  31
DOCKED: ENDBRANCH  28  29
DOCKED: ENDBRANCH  26  28
DOCKED: ENDBRANCH  21  22
DOCKED: ENDBRANCH  20  21
DOCKED: ENDBRANCH  19  20
DOCKED: ENDBRANCH  18  19
DOCKED: ENDBRANCH   4  18
DOCKED: TORSDOF 14
DOCKED: TER
DOCKED: ENDMDL
________________________________________________________________________________


    FINAL DOCKED STATE:
    ________________________


Run:   7 / 20
Time taken for this run:   0.088s

DOCKED: MODEL        7
DOCKED: USER    Run = 7
DOCKED: USER
DOCKED: USER    Estimated Free Energy of Binding    =  -5.10 kcal/mol  [=(1)+(2)+(3)-(4)]
DOCKED: USER
DOCKED: USER    (1) Final Intermolecular Energy     =  -9.28 kcal/mol
DOCKED: USER        vdW + Hbond + desolv Energy     =  -9.14 kcal/mol
DOCKED: USER        Electrostatic Energy            =  -0.14 kcal/mol
DOCKED: USER        Moving Ligand-Fixed Receptor    =  -9.28 kcal/mol
DOCKED: USER        Moving Ligand-Moving Receptor   =  +0.00 kcal/mol
DOCKED: USER    (2) Final Total Internal Energy     =  -5.32 kcal/mol
DOCKED: USER    (3) Torsional Free Energy           =  +4.18 kcal/mol
DOCKED: USER    (4) Unbound System's Energy         =  -5.32 kcal/mol
DOCKED: USER
DOCKED: USER
DOCKED: REMARK SMILES C[C@@H](C(=O)/N=c1\[nH]nc(CCCCc2n[nH]/c(=N\C(=O)[C@H]3COc4ccccc4C3)s2)s1)C(C)(C)CO
DOCKED: REMARK SMILES IDX 6 1 7 2 8 3 9 4 32 5 5 7 3 8 4 9 2 10 1 11 33 12 34 13 35 14
DOCKED: REMARK SMILES IDX 36 15 37 16 10 18 11 19 12 20 13 21 14 22 15 23 31 24 16 25
DOCKED: REMARK SMILES IDX 17 26 18 28 19 29 20 30 21 31 22 32 30 33 23 34 29 35 24 36
DOCKED: REMARK SMILES IDX 28 37 25 38 27 39 26 40
DOCKED: REMARK H PARENT 7 6 37 17 16 27
DOCKED: USER                              x       y       z     vdW  Elec       q    Type
DOCKED: USER                           _______ _______ _______ _____ _____    ______ ____
DOCKED: ROOT
DOCKED: ATOM      1  C   UNL     1     135.398  73.857 220.890 -0.02 -0.04    +0.208 A  
DOCKED: ATOM      2  N   UNL     1     136.561  73.166 220.883 -0.02 +0.05    -0.251 N  
DOCKED: ATOM      3  N   UNL     1     137.593  73.865 220.605 -0.04 +0.04    -0.167 NA 
DOCKED: ATOM      4  C   UNL     1     137.760  74.986 220.350 -0.05 -0.02    +0.116 A  
DOCKED: ATOM      5  S   UNL     1     135.931  75.595 220.460 -0.04 +0.01    -0.080 S  
DOCKED: ATOM      6  H   UNL     1     136.533  72.121 221.104 +0.03 -0.04    +0.193 HD 
DOCKED: ENDROOT
DOCKED: BRANCH   1   7
DOCKED: ATOM      7  N   UNL     1     134.189  73.536 221.113 -0.01 +0.03    -0.184 NA 
DOCKED: BRANCH   7   8
DOCKED: ATOM      8  C   UNL     1     133.857  72.457 222.018 -0.00 -0.04    +0.251 C  
DOCKED: ATOM      9  O   UNL     1     133.830  71.263 221.636 -0.00 +0.04    -0.272 OA 
DOCKED: BRANCH   8  10
DOCKED: ATOM     10  C   UNL     1     133.555  72.844 223.406 -0.06 -0.01    +0.086 C  
DOCKED: ATOM     11  C   UNL     1     132.931  74.218 223.470 -0.06 -0.00    +0.019 C  
DOCKED: BRANCH  10  12
DOCKED: ATOM     12  C   UNL     1     134.764  72.772 224.306 -0.21 +0.00    -0.001 C  
DOCKED: ATOM     13  C   UNL     1     135.370  74.103 224.617 -0.27 -0.00    +0.014 C  
DOCKED: ATOM     14  C   UNL     1     134.343  72.111 225.619 -0.24 -0.00    +0.014 C  
DOCKED: BRANCH  12  15
DOCKED: ATOM     15  C   UNL     1     135.812  71.864 223.700 -0.14 -0.03    +0.163 C  
DOCKED: BRANCH  15  16
DOCKED: ATOM     16  O   UNL     1     136.930  72.618 223.297 -0.03 +0.15    -0.396 OA 
DOCKED: ATOM     17  H   UNL     1     137.288  72.343 222.438 +0.01 -0.06    +0.210 HD 
DOCKED: ENDBRANCH  15  16
DOCKED: ENDBRANCH  12  15
DOCKED: ENDBRANCH  10  12
DOCKED: ENDBRANCH   8  10
DOCKED: ENDBRANCH   7   8
DOCKED: ENDBRANCH   1   7
DOCKED: BRANCH   4  18
DOCKED: ATOM     18  C   UNL     1     138.771  76.039 220.002 -0.06 -0.02    +0.070 C  
DOCKED: BRANCH  18  19
DOCKED: ATOM     19  C   UNL     1     139.615  76.314 221.227 -0.24 -0.00    +0.008 C  
DOCKED: BRANCH  19  20
DOCKED: ATOM     20  C   UNL     1     141.035  76.500 220.800 -0.29 -0.00    +0.008 C  
DOCKED: BRANCH  20  21
DOCKED: ATOM     21  C   UNL     1     141.865  75.268 220.837 -0.26 -0.03    +0.070 C  
DOCKED: BRANCH  21  22
DOCKED: ATOM     22  C   UNL     1     141.024  74.230 221.526 -0.26 -0.01    +0.116 A  
DOCKED: ATOM     23  N   UNL     1     140.221  73.997 222.320 -0.79 -0.00    -0.167 NA 
DOCKED: ATOM     24  S   UNL     1     141.353  72.451 220.867 -0.25 +0.01    -0.080 S  
DOCKED: ATOM     25  N   UNL     1     139.655  72.917 222.716 -0.14 +0.05    -0.251 N  
DOCKED: ATOM     26  C   UNL     1     140.081  71.803 222.074 -0.20 -0.03    +0.208 A  
DOCKED: ATOM     27  H   UNL     1     138.910  72.817 223.472 -0.37 -0.12    +0.193 HD 
DOCKED: BRANCH  26  28
DOCKED: ATOM     28  N   UNL     1     139.779  70.570 222.168 -0.12 +0.03    -0.183 NA 
DOCKED: BRANCH  28  29
DOCKED: ATOM     29  C   UNL     1     138.442  70.158 222.532 -0.11 -0.05    +0.255 C  
DOCKED: ATOM     30  O   UNL     1     137.485  70.308 221.734 -0.03 +0.05    -0.272 OA 
DOCKED: BRANCH  29  31
DOCKED: ATOM     31  C   UNL     1     138.280  69.556 223.890 -0.24 -0.02    +0.123 C  
DOCKED: ATOM     32  C   UNL     1     138.832  68.163 223.793 -0.18 -0.03    +0.243 C  
DOCKED: ATOM     33  C   UNL     1     138.968  70.454 224.853 -0.32 -0.01    +0.056 C  
DOCKED: ATOM     34  O   UNL     1     139.177  67.614 225.043 -0.70 -0.01    -0.492 OA 
DOCKED: ATOM     35  C   UNL     1     139.679  69.756 225.931 -0.47 +0.00    -0.005 A  
DOCKED: ATOM     36  C   UNL     1     139.789  68.385 226.035 -0.47 -0.02    +0.122 A  
DOCKED: ATOM     37  C   UNL     1     140.284  70.511 226.912 -0.59 -0.00    +0.007 A  
DOCKED: ATOM     38  C   UNL     1     140.463  67.753 227.058 -0.62 -0.01    +0.047 A  
DOCKED: ATOM     39  C   UNL     1     140.968  69.921 227.953 -0.61 -0.00    +0.001 A  
DOCKED: ATOM     40  C   UNL     1     141.056  68.541 228.023 -0.65 -0.00    +0.004 A  
DOCKED: ENDBRANCH  29  31
DOCKED: ENDBRANCH  28  29
DOCKED: ENDBRANCH  26  28
DOCKED: ENDBRANCH  21  22
DOCKED: ENDBRANCH  20  21
DOCKED: ENDBRANCH  19  20
DOCKED: ENDBRANCH  18  19
DOCKED: ENDBRANCH   4  18
DOCKED: TORSDOF 14
DOCKED: TER
DOCKED: ENDMDL
________________________________________________________________________________


    FINAL DOCKED STATE:
    ________________________


Run:   8 / 20
Time taken for this run:   0.088s

DOCKED: MODEL        8
DOCKED: USER    Run = 8
DOCKED: USER
DOCKED: USER    Estimated Free Energy of Binding    =  -7.02 kcal/mol  [=(1)+(2)+(3)-(4)]
DOCKED: USER
DOCKED: USER    (1) Final Intermolecular Energy     = -11.20 kcal/mol
DOCKED: USER        vdW + Hbond + desolv Energy     = -10.72 kcal/mol
DOCKED: USER        Electrostatic Energy            =  -0.48 kcal/mol
DOCKED: USER        Moving Ligand-Fixed Receptor    = -11.20 kcal/mol
DOCKED: USER        Moving Ligand-Moving Receptor   =  +0.00 kcal/mol
DOCKED: USER    (2) Final Total Internal Energy     =  -2.69 kcal/mol
DOCKED: USER    (3) Torsional Free Energy           =  +4.18 kcal/mol
DOCKED: USER    (4) Unbound System's Energy         =  -2.69 kcal/mol
DOCKED: USER
DOCKED: USER
DOCKED: REMARK SMILES C[C@@H](C(=O)/N=c1\[nH]nc(CCCCc2n[nH]/c(=N\C(=O)[C@H]3COc4ccccc4C3)s2)s1)C(C)(C)CO
DOCKED: REMARK SMILES IDX 6 1 7 2 8 3 9 4 32 5 5 7 3 8 4 9 2 10 1 11 33 12 34 13 35 14
DOCKED: REMARK SMILES IDX 36 15 37 16 10 18 11 19 12 20 13 21 14 22 15 23 31 24 16 25
DOCKED: REMARK SMILES IDX 17 26 18 28 19 29 20 30 21 31 22 32 30 33 23 34 29 35 24 36
DOCKED: REMARK SMILES IDX 28 37 25 38 27 39 26 40
DOCKED: REMARK H PARENT 7 6 37 17 16 27
DOCKED: USER                              x       y       z     vdW  Elec       q    Type
DOCKED: USER                           _______ _______ _______ _____ _____    ______ ____
DOCKED: ROOT
DOCKED: ATOM      1  C   UNL     1     142.601  77.706 218.305 -0.24 -0.15    +0.208 A  
DOCKED: ATOM      2  N   UNL     1     142.950  78.970 217.974 -0.22 +0.26    -0.251 N  
DOCKED: ATOM      3  N   UNL     1     142.491  79.872 218.754 -0.23 +0.13    -0.167 NA 
DOCKED: ATOM      4  C   UNL     1     141.825  79.847 219.706 -0.25 -0.06    +0.116 A  
DOCKED: ATOM      5  S   UNL     1     141.554  77.940 219.836 -0.31 +0.04    -0.080 S  
DOCKED: ATOM      6  H   UNL     1     143.566  79.119 217.113 -0.51 -0.39    +0.193 HD 
DOCKED: ENDROOT
DOCKED: BRANCH   1   7
DOCKED: ATOM      7  N   UNL     1     142.846  76.568 217.798 -0.18 +0.11    -0.184 NA 
DOCKED: BRANCH   7   8
DOCKED: ATOM      8  C   UNL     1     142.318  75.358 218.389 -0.09 -0.10    +0.251 C  
DOCKED: ATOM      9  O   UNL     1     141.287  74.803 217.942 -0.02 +0.08    -0.272 OA 
DOCKED: BRANCH   8  10
DOCKED: ATOM     10  C   UNL     1     143.060  74.821 219.543 -0.28 -0.03    +0.086 C  
DOCKED: ATOM     11  C   UNL     1     144.093  75.807 220.038 -0.10 -0.01    +0.019 C  
DOCKED: BRANCH  10  12
DOCKED: ATOM     12  C   UNL     1     143.703  73.487 219.251 -0.25 +0.00    -0.001 C  
DOCKED: ATOM     13  C   UNL     1     142.869  72.312 219.649 -0.18 -0.00    +0.014 C  
DOCKED: ATOM     14  C   UNL     1     143.975  73.406 217.749 -0.13 -0.00    +0.014 C  
DOCKED: BRANCH  12  15
DOCKED: ATOM     15  C   UNL     1     145.057  73.403 219.925 -0.39 -0.01    +0.163 C  
DOCKED: BRANCH  15  16
DOCKED: ATOM     16  O   UNL     1     146.066  73.233 218.959 -0.70 -0.24    -0.396 OA 
DOCKED: ATOM     17  H   UNL     1     146.392  74.071 218.595 -0.48 -0.00    +0.210 HD 
DOCKED: ENDBRANCH  15  16
DOCKED: ENDBRANCH  12  15
DOCKED: ENDBRANCH  10  12
DOCKED: ENDBRANCH   8  10
DOCKED: ENDBRANCH   7   8
DOCKED: ENDBRANCH   1   7
DOCKED: BRANCH   4  18
DOCKED: ATOM     18  C   UNL     1     141.160  80.668 220.771 -0.29 -0.02    +0.070 C  
DOCKED: BRANCH  18  19
DOCKED: ATOM     19  C   UNL     1     142.197  81.035 221.809 -0.41 -0.00    +0.008 C  
DOCKED: BRANCH  19  20
DOCKED: ATOM     20  C   UNL     1     142.567  79.804 222.573 -0.59 -0.00    +0.008 C  
DOCKED: BRANCH  20  21
DOCKED: ATOM     21  C   UNL     1     141.745  79.551 223.785 -0.56 -0.02    +0.070 C  
DOCKED: BRANCH  21  22
DOCKED: ATOM     22  C   UNL     1     140.466  78.936 223.290 -0.38 -0.03    +0.116 A  
DOCKED: ATOM     23  N   UNL     1     139.339  79.066 223.084 -0.24 +0.03    -0.167 NA 
DOCKED: ATOM     24  S   UNL     1     140.692  77.112 222.717 -0.41 +0.02    -0.080 S  
DOCKED: ATOM     25  N   UNL     1     138.430  78.292 222.617 -0.15 +0.04    -0.251 N  
DOCKED: ATOM     26  C   UNL     1     138.872  77.053 222.293 -0.22 -0.04    +0.208 A  
DOCKED: ATOM     27  H   UNL     1     137.400  78.521 222.466 +0.05 -0.03    +0.193 HD 
DOCKED: BRANCH  26  28
DOCKED: ATOM     28  N   UNL     1     138.306  76.020 221.813 -0.16 +0.04    -0.183 NA 
DOCKED: BRANCH  28  29
DOCKED: ATOM     29  C   UNL     1     138.850  75.342 220.658 -0.08 -0.06    +0.255 C  
DOCKED: ATOM     30  O   UNL     1     138.854  75.896 219.532 -0.02 +0.06    -0.272 OA 
DOCKED: BRANCH  29  31
DOCKED: ATOM     31  C   UNL     1     139.394  73.969 220.889 -0.15 -0.02    +0.123 C  
DOCKED: ATOM     32  C   UNL     1     140.672  74.155 221.653 -0.18 -0.02    +0.243 C  
DOCKED: ATOM     33  C   UNL     1     138.337  73.189 221.585 -0.16 -0.01    +0.056 C  
DOCKED: ATOM     34  O   UNL     1     141.082  72.996 222.341 -0.43 -0.01    -0.492 OA 
DOCKED: ATOM     35  C   UNL     1     138.839  72.273 222.616 -0.19 +0.00    -0.005 A  
DOCKED: ATOM     36  C   UNL     1     140.163  72.170 222.992 -0.29 -0.02    +0.122 A  
DOCKED: ATOM     37  C   UNL     1     137.937  71.456 223.261 -0.22 -0.00    +0.007 A  
DOCKED: ATOM     38  C   UNL     1     140.609  71.301 223.965 -0.37 -0.01    +0.047 A  
DOCKED: ATOM     39  C   UNL     1     138.340  70.573 224.239 -0.31 -0.00    +0.001 A  
DOCKED: ATOM     40  C   UNL     1     139.677  70.497 224.589 -0.41 -0.00    +0.004 A  
DOCKED: ENDBRANCH  29  31
DOCKED: ENDBRANCH  28  29
DOCKED: ENDBRANCH  26  28
DOCKED: ENDBRANCH  21  22
DOCKED: ENDBRANCH  20  21
DOCKED: ENDBRANCH  19  20
DOCKED: ENDBRANCH  18  19
DOCKED: ENDBRANCH   4  18
DOCKED: TORSDOF 14
DOCKED: TER
DOCKED: ENDMDL
________________________________________________________________________________


    FINAL DOCKED STATE:
    ________________________


Run:   9 / 20
Time taken for this run:   0.088s

DOCKED: MODEL        9
DOCKED: USER    Run = 9
DOCKED: USER
DOCKED: USER    Estimated Free Energy of Binding    =  -7.08 kcal/mol  [=(1)+(2)+(3)-(4)]
DOCKED: USER
DOCKED: USER    (1) Final Intermolecular Energy     = -11.25 kcal/mol
DOCKED: USER        vdW + Hbond + desolv Energy     = -11.30 kcal/mol
DOCKED: USER        Electrostatic Energy            =  +0.05 kcal/mol
DOCKED: USER        Moving Ligand-Fixed Receptor    = -11.25 kcal/mol
DOCKED: USER        Moving Ligand-Moving Receptor   =  +0.00 kcal/mol
DOCKED: USER    (2) Final Total Internal Energy     =  -4.59 kcal/mol
DOCKED: USER    (3) Torsional Free Energy           =  +4.18 kcal/mol
DOCKED: USER    (4) Unbound System's Energy         =  -4.59 kcal/mol
DOCKED: USER
DOCKED: USER
DOCKED: REMARK SMILES C[C@@H](C(=O)/N=c1\[nH]nc(CCCCc2n[nH]/c(=N\C(=O)[C@H]3COc4ccccc4C3)s2)s1)C(C)(C)CO
DOCKED: REMARK SMILES IDX 6 1 7 2 8 3 9 4 32 5 5 7 3 8 4 9 2 10 1 11 33 12 34 13 35 14
DOCKED: REMARK SMILES IDX 36 15 37 16 10 18 11 19 12 20 13 21 14 22 15 23 31 24 16 25
DOCKED: REMARK SMILES IDX 17 26 18 28 19 29 20 30 21 31 22 32 30 33 23 34 29 35 24 36
DOCKED: REMARK SMILES IDX 28 37 25 38 27 39 26 40
DOCKED: REMARK H PARENT 7 6 37 17 16 27
DOCKED: USER                              x       y       z     vdW  Elec       q    Type
DOCKED: USER                           _______ _______ _______ _____ _____    ______ ____
DOCKED: ROOT
DOCKED: ATOM      1  C   UNL     1     142.195  77.866 219.398 -0.21 -0.14    +0.208 A  
DOCKED: ATOM      2  N   UNL     1     142.713  76.841 220.112 -0.18 +0.19    -0.251 N  
DOCKED: ATOM      3  N   UNL     1     143.289  75.942 219.410 -0.28 +0.10    -0.167 NA 
DOCKED: ATOM      4  C   UNL     1     143.470  75.805 218.271 -0.21 -0.06    +0.116 A  
DOCKED: ATOM      5  S   UNL     1     142.613  77.412 217.634 -0.32 +0.06    -0.080 S  
DOCKED: ATOM      6  H   UNL     1     142.608  76.857 221.175 -0.44 -0.20    +0.193 HD 
DOCKED: ENDROOT
DOCKED: BRANCH   1   7
DOCKED: ATOM      7  N   UNL     1     141.564  78.923 219.713 -0.17 +0.10    -0.184 NA 
DOCKED: BRANCH   7   8
DOCKED: ATOM      8  C   UNL     1     141.287  79.243 221.096 -0.21 -0.11    +0.251 C  
DOCKED: ATOM      9  O   UNL     1     142.186  79.641 221.872 -0.32 +0.13    -0.272 OA 
DOCKED: BRANCH   8  10
DOCKED: ATOM     10  C   UNL     1     139.891  79.073 221.534 -0.20 -0.02    +0.086 C  
DOCKED: ATOM     11  C   UNL     1     139.565  79.981 222.697 -0.33 -0.00    +0.019 C  
DOCKED: BRANCH  10  12
DOCKED: ATOM     12  C   UNL     1     139.558  77.641 221.875 -0.29 +0.00    -0.001 C  
DOCKED: ATOM     13  C   UNL     1     138.331  77.486 222.714 -0.28 -0.00    +0.014 C  
DOCKED: ATOM     14  C   UNL     1     139.354  76.874 220.568 -0.13 -0.00    +0.014 C  
DOCKED: BRANCH  12  15
DOCKED: ATOM     15  C   UNL     1     140.735  76.983 222.564 -0.28 -0.05    +0.163 C  
DOCKED: BRANCH  15  16
DOCKED: ATOM     16  O   UNL     1     140.967  75.709 222.012 -0.37 +0.10    -0.396 OA 
DOCKED: ATOM     17  H   UNL     1     140.271  75.067 222.226 +0.05 -0.01    +0.210 HD 
DOCKED: ENDBRANCH  15  16
DOCKED: ENDBRANCH  12  15
DOCKED: ENDBRANCH  10  12
DOCKED: ENDBRANCH   8  10
DOCKED: ENDBRANCH   7   8
DOCKED: ENDBRANCH   1   7
DOCKED: BRANCH   4  18
DOCKED: ATOM     18  C   UNL     1     144.067  74.927 217.210 -0.13 -0.03    +0.070 C  
DOCKED: BRANCH  18  19
DOCKED: ATOM     19  C   UNL     1     143.782  73.485 217.567 -0.12 -0.00    +0.008 C  
DOCKED: BRANCH  19  20
DOCKED: ATOM     20  C   UNL     1     145.080  72.789 217.824 -0.19 +0.00    +0.008 C  
DOCKED: BRANCH  20  21
DOCKED: ATOM     21  C   UNL     1     145.453  72.674 219.257 -0.32 +0.02    +0.070 C  
DOCKED: BRANCH  21  22
DOCKED: ATOM     22  C   UNL     1     144.174  72.845 220.028 -0.29 -0.01    +0.116 A  
DOCKED: ATOM     23  N   UNL     1     143.447  73.564 220.562 -0.23 +0.04    -0.167 NA 
DOCKED: ATOM     24  S   UNL     1     143.250  71.180 220.311 -0.26 +0.01    -0.080 S  
DOCKED: ATOM     25  N   UNL     1     142.338  73.400 221.183 -0.11 +0.03    -0.251 N  
DOCKED: ATOM     26  C   UNL     1     141.917  72.113 221.231 -0.15 -0.02    +0.208 A  
DOCKED: ATOM     27  H   UNL     1     141.739  74.150 221.645 +0.05 -0.02    +0.193 HD 
DOCKED: BRANCH  26  28
DOCKED: ATOM     28  N   UNL     1     140.897  71.545 221.737 -0.15 +0.02    -0.183 NA 
DOCKED: BRANCH  28  29
DOCKED: ATOM     29  C   UNL     1     140.078  72.223 222.717 -0.22 -0.04    +0.255 C  
DOCKED: ATOM     30  O   UNL     1     139.950  73.471 222.692 -0.75 +0.01    -0.272 OA 
DOCKED: BRANCH  29  31
DOCKED: ATOM     31  C   UNL     1     139.411  71.358 223.737 -0.29 -0.03    +0.123 C  
DOCKED: ATOM     32  C   UNL     1     139.442  69.964 223.181 -0.14 -0.04    +0.243 C  
DOCKED: ATOM     33  C   UNL     1     140.134  71.555 225.020 -0.37 -0.01    +0.056 C  
DOCKED: ATOM     34  O   UNL     1     139.278  68.970 224.164 -0.09 +0.08    -0.492 OA 
DOCKED: ATOM     35  C   UNL     1     140.289  70.334 225.821 -0.52 +0.00    -0.005 A  
DOCKED: ATOM     36  C   UNL     1     139.881  69.079 225.420 -0.36 -0.02    +0.122 A  
DOCKED: ATOM     37  C   UNL     1     140.882  70.436 227.060 -0.61 -0.00    +0.007 A  
DOCKED: ATOM     38  C   UNL     1     140.038  67.947 226.192 -0.59 -0.01    +0.047 A  
DOCKED: ATOM     39  C   UNL     1     141.059  69.331 227.865 -0.61 -0.00    +0.001 A  
DOCKED: ATOM     40  C   UNL     1     140.636  68.087 227.428 -0.67 -0.00    +0.004 A  
DOCKED: ENDBRANCH  29  31
DOCKED: ENDBRANCH  28  29
DOCKED: ENDBRANCH  26  28
DOCKED: ENDBRANCH  21  22
DOCKED: ENDBRANCH  20  21
DOCKED: ENDBRANCH  19  20
DOCKED: ENDBRANCH  18  19
DOCKED: ENDBRANCH   4  18
DOCKED: TORSDOF 14
DOCKED: TER
DOCKED: ENDMDL
________________________________________________________________________________


    FINAL DOCKED STATE:
    ________________________


Run:   10 / 20
Time taken for this run:   0.088s

DOCKED: MODEL        10
DOCKED: USER    Run = 10
DOCKED: USER
DOCKED: USER    Estimated Free Energy of Binding    =  -4.19 kcal/mol  [=(1)+(2)+(3)-(4)]
DOCKED: USER
DOCKED: USER    (1) Final Intermolecular Energy     =  -8.36 kcal/mol
DOCKED: USER        vdW + Hbond + desolv Energy     =  -8.30 kcal/mol
DOCKED: USER        Electrostatic Energy            =  -0.06 kcal/mol
DOCKED: USER        Moving Ligand-Fixed Receptor    =  -8.36 kcal/mol
DOCKED: USER        Moving Ligand-Moving Receptor   =  +0.00 kcal/mol
DOCKED: USER    (2) Final Total Internal Energy     =  -6.30 kcal/mol
DOCKED: USER    (3) Torsional Free Energy           =  +4.18 kcal/mol
DOCKED: USER    (4) Unbound System's Energy         =  -6.30 kcal/mol
DOCKED: USER
DOCKED: USER
DOCKED: REMARK SMILES C[C@@H](C(=O)/N=c1\[nH]nc(CCCCc2n[nH]/c(=N\C(=O)[C@H]3COc4ccccc4C3)s2)s1)C(C)(C)CO
DOCKED: REMARK SMILES IDX 6 1 7 2 8 3 9 4 32 5 5 7 3 8 4 9 2 10 1 11 33 12 34 13 35 14
DOCKED: REMARK SMILES IDX 36 15 37 16 10 18 11 19 12 20 13 21 14 22 15 23 31 24 16 25
DOCKED: REMARK SMILES IDX 17 26 18 28 19 29 20 30 21 31 22 32 30 33 23 34 29 35 24 36
DOCKED: REMARK SMILES IDX 28 37 25 38 27 39 26 40
DOCKED: REMARK H PARENT 7 6 37 17 16 27
DOCKED: USER                              x       y       z     vdW  Elec       q    Type
DOCKED: USER                           _______ _______ _______ _____ _____    ______ ____
DOCKED: ROOT
DOCKED: ATOM      1  C   UNL     1     139.961  78.145 219.372 -0.04 -0.07    +0.208 A  
DOCKED: ATOM      2  N   UNL     1     139.029  79.057 219.731 -0.01 +0.07    -0.251 N  
DOCKED: ATOM      3  N   UNL     1     139.494  80.087 220.328 -0.05 +0.04    -0.167 NA 
DOCKED: ATOM      4  C   UNL     1     140.562  80.422 220.638 -0.18 -0.04    +0.116 A  
DOCKED: ATOM      5  S   UNL     1     141.558  78.908 219.973 -0.32 +0.04    -0.080 S  
DOCKED: ATOM      6  H   UNL     1     138.005  78.857 219.498 +0.02 -0.04    +0.193 HD 
DOCKED: ENDROOT
DOCKED: BRANCH   1   7
DOCKED: ATOM      7  N   UNL     1     139.907  77.023 218.780 -0.02 +0.06    -0.184 NA 
DOCKED: BRANCH   7   8
DOCKED: ATOM      8  C   UNL     1     139.524  75.822 219.490 -0.02 -0.06    +0.251 C  
DOCKED: ATOM      9  O   UNL     1     138.576  75.815 220.308 -0.03 +0.06    -0.272 OA 
DOCKED: BRANCH   8  10
DOCKED: ATOM     10  C   UNL     1     140.314  74.614 219.193 -0.05 -0.02    +0.086 C  
DOCKED: ATOM     11  C   UNL     1     139.421  73.427 218.920 -0.03 -0.00    +0.019 C  
DOCKED: BRANCH  10  12
DOCKED: ATOM     12  C   UNL     1     141.306  74.286 220.282 -0.22 +0.00    -0.001 C  
DOCKED: ATOM     13  C   UNL     1     142.456  73.448 219.824 -0.20 -0.00    +0.014 C  
DOCKED: ATOM     14  C   UNL     1     141.853  75.600 220.841 -0.25 -0.01    +0.014 C  
DOCKED: BRANCH  12  15
DOCKED: ATOM     15  C   UNL     1     140.606  73.602 221.437 -0.23 -0.02    +0.163 C  
DOCKED: BRANCH  15  16
DOCKED: ATOM     16  O   UNL     1     140.091  74.563 222.327 -0.72 +0.00    -0.396 OA 
DOCKED: ATOM     17  H   UNL     1     139.966  75.434 221.918 +0.06 -0.04    +0.210 HD 
DOCKED: ENDBRANCH  15  16
DOCKED: ENDBRANCH  12  15
DOCKED: ENDBRANCH  10  12
DOCKED: ENDBRANCH   8  10
DOCKED: ENDBRANCH   7   8
DOCKED: ENDBRANCH   1   7
DOCKED: BRANCH   4  18
DOCKED: ATOM     18  C   UNL     1     141.379  81.493 221.299 -0.35 -0.02    +0.070 C  
DOCKED: BRANCH  18  19
DOCKED: ATOM     19  C   UNL     1     142.516  80.833 222.046 -0.41 -0.00    +0.008 C  
DOCKED: BRANCH  19  20
DOCKED: ATOM     20  C   UNL     1     142.022  80.402 223.389 -0.64 -0.00    +0.008 C  
DOCKED: BRANCH  20  21
DOCKED: ATOM     21  C   UNL     1     142.175  78.952 223.675 -0.47 -0.02    +0.070 C  
DOCKED: BRANCH  21  22
DOCKED: ATOM     22  C   UNL     1     140.890  78.310 223.233 -0.36 -0.03    +0.116 A  
DOCKED: ATOM     23  N   UNL     1     140.372  77.402 222.747 -0.27 +0.04    -0.167 NA 
DOCKED: ATOM     24  S   UNL     1     139.350  79.411 223.584 -0.45 +0.01    -0.080 S  
DOCKED: ATOM     25  N   UNL     1     139.151  77.118 222.480 -0.20 +0.05    -0.251 N  
DOCKED: ATOM     26  C   UNL     1     138.268  78.082 222.838 -0.17 -0.03    +0.208 A  
DOCKED: ATOM     27  H   UNL     1     138.778  76.231 222.021 +0.05 -0.04    +0.193 HD 
DOCKED: BRANCH  26  28
DOCKED: ATOM     28  N   UNL     1     137.003  78.186 222.750 -0.14 +0.03    -0.183 NA 
DOCKED: BRANCH  28  29
DOCKED: ATOM     29  C   UNL     1     136.395  79.329 222.108 -0.07 -0.04    +0.255 C  
DOCKED: ATOM     30  O   UNL     1     136.487  79.492 220.866 -0.02 +0.04    -0.272 OA 
DOCKED: BRANCH  29  31
DOCKED: ATOM     31  C   UNL     1     135.667  80.282 223.000 -0.10 -0.02    +0.123 C  
DOCKED: ATOM     32  C   UNL     1     134.764  79.440 223.853 -0.09 -0.03    +0.243 C  
DOCKED: ATOM     33  C   UNL     1     136.693  81.070 223.732 -0.22 -0.01    +0.056 C  
DOCKED: ATOM     34  O   UNL     1     134.348  80.089 225.032 -0.04 +0.06    -0.492 OA 
DOCKED: ATOM     35  C   UNL     1     136.352  81.357 225.130 -0.31 +0.00    -0.005 A  
DOCKED: ATOM     36  C   UNL     1     135.223  80.889 225.771 -0.18 -0.02    +0.122 A  
DOCKED: ATOM     37  C   UNL     1     137.211  82.145 225.864 -0.41 -0.00    +0.007 A  
DOCKED: ATOM     38  C   UNL     1     134.926  81.173 227.088 -0.26 -0.01    +0.047 A  
DOCKED: ATOM     39  C   UNL     1     136.953  82.453 227.183 -0.45 -0.00    +0.001 A  
DOCKED: ATOM     40  C   UNL     1     135.809  81.966 227.792 -0.46 -0.00    +0.004 A  
DOCKED: ENDBRANCH  29  31
DOCKED: ENDBRANCH  28  29
DOCKED: ENDBRANCH  26  28
DOCKED: ENDBRANCH  21  22
DOCKED: ENDBRANCH  20  21
DOCKED: ENDBRANCH  19  20
DOCKED: ENDBRANCH  18  19
DOCKED: ENDBRANCH   4  18
DOCKED: TORSDOF 14
DOCKED: TER
DOCKED: ENDMDL
________________________________________________________________________________


    FINAL DOCKED STATE:
    ________________________


Run:   11 / 20
Time taken for this run:   0.088s

DOCKED: MODEL        11
DOCKED: USER    Run = 11
DOCKED: USER
DOCKED: USER    Estimated Free Energy of Binding    =  -5.20 kcal/mol  [=(1)+(2)+(3)-(4)]
DOCKED: USER
DOCKED: USER    (1) Final Intermolecular Energy     =  -9.37 kcal/mol
DOCKED: USER        vdW + Hbond + desolv Energy     =  -9.28 kcal/mol
DOCKED: USER        Electrostatic Energy            =  -0.09 kcal/mol
DOCKED: USER        Moving Ligand-Fixed Receptor    =  -9.37 kcal/mol
DOCKED: USER        Moving Ligand-Moving Receptor   =  +0.00 kcal/mol
DOCKED: USER    (2) Final Total Internal Energy     =  -5.66 kcal/mol
DOCKED: USER    (3) Torsional Free Energy           =  +4.18 kcal/mol
DOCKED: USER    (4) Unbound System's Energy         =  -5.66 kcal/mol
DOCKED: USER
DOCKED: USER
DOCKED: REMARK SMILES C[C@@H](C(=O)/N=c1\[nH]nc(CCCCc2n[nH]/c(=N\C(=O)[C@H]3COc4ccccc4C3)s2)s1)C(C)(C)CO
DOCKED: REMARK SMILES IDX 6 1 7 2 8 3 9 4 32 5 5 7 3 8 4 9 2 10 1 11 33 12 34 13 35 14
DOCKED: REMARK SMILES IDX 36 15 37 16 10 18 11 19 12 20 13 21 14 22 15 23 31 24 16 25
DOCKED: REMARK SMILES IDX 17 26 18 28 19 29 20 30 21 31 22 32 30 33 23 34 29 35 24 36
DOCKED: REMARK SMILES IDX 28 37 25 38 27 39 26 40
DOCKED: REMARK H PARENT 7 6 37 17 16 27
DOCKED: USER                              x       y       z     vdW  Elec       q    Type
DOCKED: USER                           _______ _______ _______ _____ _____    ______ ____
DOCKED: ROOT
DOCKED: ATOM      1  C   UNL     1     140.281  78.897 219.562 -0.07 -0.08    +0.208 A  
DOCKED: ATOM      2  N   UNL     1     139.260  79.581 220.128 -0.02 +0.07    -0.251 N  
DOCKED: ATOM      3  N   UNL     1     139.613  80.622 220.780 -0.08 +0.04    -0.167 NA 
DOCKED: ATOM      4  C   UNL     1     140.638  81.122 221.001 -0.22 -0.03    +0.116 A  
DOCKED: ATOM      5  S   UNL     1     141.785  79.890 220.058 -0.35 +0.04    -0.080 S  
DOCKED: ATOM      6  H   UNL     1     138.266  79.215 219.992 +0.03 -0.04    +0.193 HD 
DOCKED: ENDROOT
DOCKED: BRANCH   1   7
DOCKED: ATOM      7  N   UNL     1     140.346  77.843 218.856 -0.04 +0.07    -0.184 NA 
DOCKED: BRANCH   7   8
DOCKED: ATOM      8  C   UNL     1     140.622  76.557 219.458 -0.06 -0.09    +0.251 C  
DOCKED: ATOM      9  O   UNL     1     139.716  75.715 219.655 -0.03 +0.07    -0.272 OA 
DOCKED: BRANCH   8  10
DOCKED: ATOM     10  C   UNL     1     142.026  76.300 219.823 -0.26 -0.04    +0.086 C  
DOCKED: ATOM     11  C   UNL     1     142.976  77.016 218.892 -0.34 -0.01    +0.019 C  
DOCKED: BRANCH  10  12
DOCKED: ATOM     12  C   UNL     1     142.352  74.828 219.879 -0.27 +0.00    -0.001 C  
DOCKED: ATOM     13  C   UNL     1     141.946  74.069 218.656 -0.09 -0.00    +0.014 C  
DOCKED: ATOM     14  C   UNL     1     143.862  74.680 220.065 -0.42 -0.01    +0.014 C  
DOCKED: BRANCH  12  15
DOCKED: ATOM     15  C   UNL     1     141.718  74.200 221.102 -0.17 -0.03    +0.163 C  
DOCKED: BRANCH  15  16
DOCKED: ATOM     16  O   UNL     1     141.212  75.201 221.951 -0.44 +0.07    -0.396 OA 
DOCKED: ATOM     17  H   UNL     1     141.838  75.926 222.104 -0.48 -0.11    +0.210 HD 
DOCKED: ENDBRANCH  15  16
DOCKED: ENDBRANCH  12  15
DOCKED: ENDBRANCH  10  12
DOCKED: ENDBRANCH   8  10
DOCKED: ENDBRANCH   7   8
DOCKED: ENDBRANCH   1   7
DOCKED: BRANCH   4  18
DOCKED: ATOM     18  C   UNL     1     141.336  82.263 221.681 -0.33 -0.01    +0.070 C  
DOCKED: BRANCH  18  19
DOCKED: ATOM     19  C   UNL     1     141.792  81.799 223.046 -0.39 -0.00    +0.008 C  
DOCKED: BRANCH  19  20
DOCKED: ATOM     20  C   UNL     1     142.697  80.622 222.875 -0.60 -0.00    +0.008 C  
DOCKED: BRANCH  20  21
DOCKED: ATOM     21  C   UNL     1     142.462  79.509 223.831 -0.38 -0.02    +0.070 C  
DOCKED: BRANCH  21  22
DOCKED: ATOM     22  C   UNL     1     141.312  78.722 223.269 -0.48 -0.04    +0.116 A  
DOCKED: ATOM     23  N   UNL     1     140.963  77.838 222.615 -0.33 +0.06    -0.167 NA 
DOCKED: ATOM     24  S   UNL     1     139.601  79.410 223.822 -0.46 +0.01    -0.080 S  
DOCKED: ATOM     25  N   UNL     1     139.812  77.375 222.294 -0.21 +0.06    -0.251 N  
DOCKED: ATOM     26  C   UNL     1     138.772  78.059 222.830 -0.19 -0.03    +0.208 A  
DOCKED: ATOM     27  H   UNL     1     139.603  76.535 221.672 +0.07 -0.05    +0.193 HD 
DOCKED: BRANCH  26  28
DOCKED: ATOM     28  N   UNL     1     137.509  77.926 222.759 -0.16 +0.03    -0.183 NA 
DOCKED: BRANCH  28  29
DOCKED: ATOM     29  C   UNL     1     136.703  78.868 222.016 -0.08 -0.04    +0.255 C  
DOCKED: ATOM     30  O   UNL     1     136.689  78.850 220.761 -0.02 +0.05    -0.272 OA 
DOCKED: BRANCH  29  31
DOCKED: ATOM     31  C   UNL     1     135.907  79.842 222.822 -0.11 -0.02    +0.123 C  
DOCKED: ATOM     32  C   UNL     1     135.030  79.016 223.719 -0.09 -0.03    +0.243 C  
DOCKED: ATOM     33  C   UNL     1     136.874  80.735 223.513 -0.22 -0.01    +0.056 C  
DOCKED: ATOM     34  O   UNL     1     134.556  79.726 224.839 -0.04 +0.06    -0.492 OA 
DOCKED: ATOM     35  C   UNL     1     136.488  81.103 224.881 -0.31 +0.00    -0.005 A  
DOCKED: ATOM     36  C   UNL     1     135.371  80.623 225.534 -0.08 -0.02    +0.122 A  
DOCKED: ATOM     37  C   UNL     1     137.288  81.987 225.571 -0.40 -0.00    +0.007 A  
DOCKED: ATOM     38  C   UNL     1     135.031  80.984 226.820 -0.23 -0.01    +0.047 A  
DOCKED: ATOM     39  C   UNL     1     136.985  82.375 226.858 -0.48 -0.00    +0.001 A  
DOCKED: ATOM     40  C   UNL     1     135.856  81.873 227.480 -0.45 -0.00    +0.004 A  
DOCKED: ENDBRANCH  29  31
DOCKED: ENDBRANCH  28  29
DOCKED: ENDBRANCH  26  28
DOCKED: ENDBRANCH  21  22
DOCKED: ENDBRANCH  20  21
DOCKED: ENDBRANCH  19  20
DOCKED: ENDBRANCH  18  19
DOCKED: ENDBRANCH   4  18
DOCKED: TORSDOF 14
DOCKED: TER
DOCKED: ENDMDL
________________________________________________________________________________


    FINAL DOCKED STATE:
    ________________________


Run:   12 / 20
Time taken for this run:   0.088s

DOCKED: MODEL        12
DOCKED: USER    Run = 12
DOCKED: USER
DOCKED: USER    Estimated Free Energy of Binding    =  -5.09 kcal/mol  [=(1)+(2)+(3)-(4)]
DOCKED: USER
DOCKED: USER    (1) Final Intermolecular Energy     =  -9.27 kcal/mol
DOCKED: USER        vdW + Hbond + desolv Energy     =  -9.20 kcal/mol
DOCKED: USER        Electrostatic Energy            =  -0.07 kcal/mol
DOCKED: USER        Moving Ligand-Fixed Receptor    =  -9.27 kcal/mol
DOCKED: USER        Moving Ligand-Moving Receptor   =  +0.00 kcal/mol
DOCKED: USER    (2) Final Total Internal Energy     =  -5.50 kcal/mol
DOCKED: USER    (3) Torsional Free Energy           =  +4.18 kcal/mol
DOCKED: USER    (4) Unbound System's Energy         =  -5.50 kcal/mol
DOCKED: USER
DOCKED: USER
DOCKED: REMARK SMILES C[C@@H](C(=O)/N=c1\[nH]nc(CCCCc2n[nH]/c(=N\C(=O)[C@H]3COc4ccccc4C3)s2)s1)C(C)(C)CO
DOCKED: REMARK SMILES IDX 6 1 7 2 8 3 9 4 32 5 5 7 3 8 4 9 2 10 1 11 33 12 34 13 35 14
DOCKED: REMARK SMILES IDX 36 15 37 16 10 18 11 19 12 20 13 21 14 22 15 23 31 24 16 25
DOCKED: REMARK SMILES IDX 17 26 18 28 19 29 20 30 21 31 22 32 30 33 23 34 29 35 24 36
DOCKED: REMARK SMILES IDX 28 37 25 38 27 39 26 40
DOCKED: REMARK H PARENT 7 6 37 17 16 27
DOCKED: USER                              x       y       z     vdW  Elec       q    Type
DOCKED: USER                           _______ _______ _______ _____ _____    ______ ____
DOCKED: ROOT
DOCKED: ATOM      1  C   UNL     1     139.004  75.024 222.201 -0.15 -0.05    +0.208 A  
DOCKED: ATOM      2  N   UNL     1     138.041  74.111 221.939 -0.11 +0.08    -0.251 N  
DOCKED: ATOM      3  N   UNL     1     136.873  74.442 222.338 -0.13 +0.05    -0.167 NA 
DOCKED: ATOM      4  C   UNL     1     136.444  75.371 222.887 -0.20 -0.03    +0.116 A  
DOCKED: ATOM      5  S   UNL     1     138.072  76.391 223.070 -0.22 +0.02    -0.080 S  
DOCKED: ATOM      6  H   UNL     1     138.317  73.211 221.435 +0.03 -0.05    +0.193 HD 
DOCKED: ENDROOT
DOCKED: BRANCH   1   7
DOCKED: ATOM      7  N   UNL     1     140.253  75.069 221.975 -0.67 +0.02    -0.184 NA 
DOCKED: BRANCH   7   8
DOCKED: ATOM      8  C   UNL     1     140.864  74.211 220.983 -0.18 -0.05    +0.251 C  
DOCKED: ATOM      9  O   UNL     1     140.187  73.403 220.306 -0.06 +0.05    -0.272 OA 
DOCKED: BRANCH   8  10
DOCKED: ATOM     10  C   UNL     1     142.322  74.344 220.819 -0.23 -0.02    +0.086 C  
DOCKED: ATOM     11  C   UNL     1     142.669  75.489 219.897 -0.32 -0.01    +0.019 C  
DOCKED: BRANCH  10  12
DOCKED: ATOM     12  C   UNL     1     142.972  73.069 220.343 -0.29 +0.00    -0.001 C  
DOCKED: ATOM     13  C   UNL     1     142.750  72.779 218.893 -0.11 -0.00    +0.014 C  
DOCKED: ATOM     14  C   UNL     1     144.476  73.177 220.592 -0.45 -0.00    +0.014 C  
DOCKED: BRANCH  12  15
DOCKED: ATOM     15  C   UNL     1     142.495  71.897 221.176 -0.11 -0.02    +0.163 C  
DOCKED: BRANCH  15  16
DOCKED: ATOM     16  O   UNL     1     141.520  71.169 220.470 -0.06 +0.05    -0.396 OA 
DOCKED: ATOM     17  H   UNL     1     140.629  71.544 220.551 +0.05 -0.03    +0.210 HD 
DOCKED: ENDBRANCH  15  16
DOCKED: ENDBRANCH  12  15
DOCKED: ENDBRANCH  10  12
DOCKED: ENDBRANCH   8  10
DOCKED: ENDBRANCH   7   8
DOCKED: ENDBRANCH   1   7
DOCKED: BRANCH   4  18
DOCKED: ATOM     18  C   UNL     1     135.212  76.014 223.453 -0.20 -0.01    +0.070 C  
DOCKED: BRANCH  18  19
DOCKED: ATOM     19  C   UNL     1     134.006  75.228 222.989 -0.09 -0.00    +0.008 C  
DOCKED: BRANCH  19  20
DOCKED: ATOM     20  C   UNL     1     133.204  74.829 224.185 -0.12 -0.00    +0.008 C  
DOCKED: BRANCH  20  21
DOCKED: ATOM     21  C   UNL     1     133.069  73.362 224.385 -0.11 -0.01    +0.070 C  
DOCKED: BRANCH  21  22
DOCKED: ATOM     22  C   UNL     1     134.454  72.799 224.229 -0.15 -0.01    +0.116 A  
DOCKED: ATOM     23  N   UNL     1     135.560  72.831 224.553 -0.16 +0.03    -0.167 NA 
DOCKED: ATOM     24  S   UNL     1     134.537  71.382 222.929 -0.08 +0.01    -0.080 S  
DOCKED: ATOM     25  N   UNL     1     136.601  72.166 224.210 -0.02 +0.07    -0.251 N  
DOCKED: ATOM     26  C   UNL     1     136.368  71.221 223.267 -0.11 -0.04    +0.208 A  
DOCKED: ATOM     27  H   UNL     1     137.593  72.281 224.583 -0.42 -0.11    +0.193 HD 
DOCKED: BRANCH  26  28
DOCKED: ATOM     28  N   UNL     1     137.111  70.374 222.676 -0.07 +0.03    -0.183 NA 
DOCKED: BRANCH  28  29
DOCKED: ATOM     29  C   UNL     1     138.417  70.749 222.180 -0.10 -0.05    +0.255 C  
DOCKED: ATOM     30  O   UNL     1     138.552  71.230 221.029 -0.04 +0.05    -0.272 OA 
DOCKED: BRANCH  29  31
DOCKED: ATOM     31  C   UNL     1     139.567  70.529 223.109 -0.23 -0.02    +0.123 C  
DOCKED: ATOM     32  C   UNL     1     140.061  71.895 223.486 -0.23 -0.04    +0.243 C  
DOCKED: ATOM     33  C   UNL     1     139.071  69.692 224.232 -0.31 -0.01    +0.056 C  
DOCKED: ATOM     34  O   UNL     1     140.820  71.904 224.671 -0.15 +0.05    -0.492 OA 
DOCKED: ATOM     35  C   UNL     1     139.618  70.054 225.545 -0.45 +0.00    -0.005 A  
DOCKED: ATOM     36  C   UNL     1     140.464  71.120 225.772 -0.49 -0.02    +0.122 A  
DOCKED: ATOM     37  C   UNL     1     139.271  69.285 226.634 -0.49 -0.00    +0.007 A  
DOCKED: ATOM     38  C   UNL     1     140.965  71.440 227.017 -0.70 -0.01    +0.047 A  
DOCKED: ATOM     39  C   UNL     1     139.748  69.568 227.895 -0.62 -0.00    +0.001 A  
DOCKED: ATOM     40  C   UNL     1     140.595  70.647 228.084 -0.66 -0.00    +0.004 A  
DOCKED: ENDBRANCH  29  31
DOCKED: ENDBRANCH  28  29
DOCKED: ENDBRANCH  26  28
DOCKED: ENDBRANCH  21  22
DOCKED: ENDBRANCH  20  21
DOCKED: ENDBRANCH  19  20
DOCKED: ENDBRANCH  18  19
DOCKED: ENDBRANCH   4  18
DOCKED: TORSDOF 14
DOCKED: TER
DOCKED: ENDMDL
________________________________________________________________________________


    FINAL DOCKED STATE:
    ________________________


Run:   13 / 20
Time taken for this run:   0.088s

DOCKED: MODEL        13
DOCKED: USER    Run = 13
DOCKED: USER
DOCKED: USER    Estimated Free Energy of Binding    =  -4.07 kcal/mol  [=(1)+(2)+(3)-(4)]
DOCKED: USER
DOCKED: USER    (1) Final Intermolecular Energy     =  -8.25 kcal/mol
DOCKED: USER        vdW + Hbond + desolv Energy     =  -8.28 kcal/mol
DOCKED: USER        Electrostatic Energy            =  +0.04 kcal/mol
DOCKED: USER        Moving Ligand-Fixed Receptor    =  -8.25 kcal/mol
DOCKED: USER        Moving Ligand-Moving Receptor   =  +0.00 kcal/mol
DOCKED: USER    (2) Final Total Internal Energy     =  -6.69 kcal/mol
DOCKED: USER    (3) Torsional Free Energy           =  +4.18 kcal/mol
DOCKED: USER    (4) Unbound System's Energy         =  -6.69 kcal/mol
DOCKED: USER
DOCKED: USER
DOCKED: REMARK SMILES C[C@@H](C(=O)/N=c1\[nH]nc(CCCCc2n[nH]/c(=N\C(=O)[C@H]3COc4ccccc4C3)s2)s1)C(C)(C)CO
DOCKED: REMARK SMILES IDX 6 1 7 2 8 3 9 4 32 5 5 7 3 8 4 9 2 10 1 11 33 12 34 13 35 14
DOCKED: REMARK SMILES IDX 36 15 37 16 10 18 11 19 12 20 13 21 14 22 15 23 31 24 16 25
DOCKED: REMARK SMILES IDX 17 26 18 28 19 29 20 30 21 31 22 32 30 33 23 34 29 35 24 36
DOCKED: REMARK SMILES IDX 28 37 25 38 27 39 26 40
DOCKED: REMARK H PARENT 7 6 37 17 16 27
DOCKED: USER                              x       y       z     vdW  Elec       q    Type
DOCKED: USER                           _______ _______ _______ _____ _____    ______ ____
DOCKED: ROOT
DOCKED: ATOM      1  C   UNL     1     135.611  73.003 222.641 -0.08 -0.04    +0.208 A  
DOCKED: ATOM      2  N   UNL     1     136.875  72.885 223.109 +0.03 +0.10    -0.251 N  
DOCKED: ATOM      3  N   UNL     1     137.142  71.754 223.641 -0.13 +0.05    -0.167 NA 
DOCKED: ATOM      4  C   UNL     1     136.528  70.784 223.817 -0.17 -0.02    +0.116 A  
DOCKED: ATOM      5  S   UNL     1     134.852  71.343 223.039 -0.10 +0.01    -0.080 S  
DOCKED: ATOM      6  H   UNL     1     137.537  73.717 223.003 -0.47 -0.12    +0.193 HD 
DOCKED: ENDROOT
DOCKED: BRANCH   1   7
DOCKED: ATOM      7  N   UNL     1     134.975  73.938 222.063 -0.04 +0.03    -0.184 NA 
DOCKED: BRANCH   7   8
DOCKED: ATOM      8  C   UNL     1     135.672  75.019 221.402 -0.04 -0.05    +0.251 C  
DOCKED: ATOM      9  O   UNL     1     136.683  74.812 220.690 -0.03 +0.05    -0.272 OA 
DOCKED: BRANCH   8  10
DOCKED: ATOM     10  C   UNL     1     135.127  76.370 221.615 -0.05 -0.01    +0.086 C  
DOCKED: ATOM     11  C   UNL     1     135.303  77.234 220.389 -0.02 -0.00    +0.019 C  
DOCKED: BRANCH  10  12
DOCKED: ATOM     12  C   UNL     1     135.715  77.050 222.827 -0.18 +0.00    -0.001 C  
DOCKED: ATOM     13  C   UNL     1     135.182  78.426 223.070 -0.13 -0.00    +0.014 C  
DOCKED: ATOM     14  C   UNL     1     135.413  76.188 224.052 -0.23 -0.00    +0.014 C  
DOCKED: BRANCH  12  15
DOCKED: ATOM     15  C   UNL     1     137.224  77.101 222.715 -0.19 -0.03    +0.163 C  
DOCKED: BRANCH  15  16
DOCKED: ATOM     16  O   UNL     1     137.778  75.863 223.090 -0.15 +0.12    -0.396 OA 
DOCKED: ATOM     17  H   UNL     1     137.996  75.297 222.333 -0.03 -0.06    +0.210 HD 
DOCKED: ENDBRANCH  15  16
DOCKED: ENDBRANCH  12  15
DOCKED: ENDBRANCH  10  12
DOCKED: ENDBRANCH   8  10
DOCKED: ENDBRANCH   7   8
DOCKED: ENDBRANCH   1   7
DOCKED: BRANCH   4  18
DOCKED: ATOM     18  C   UNL     1     136.551  69.389 224.369 -0.22 -0.00    +0.070 C  
DOCKED: BRANCH  18  19
DOCKED: ATOM     19  C   UNL     1     137.384  68.524 223.450 -0.14 -0.00    +0.008 C  
DOCKED: BRANCH  19  20
DOCKED: ATOM     20  C   UNL     1     138.770  69.080 223.394 -0.27 -0.00    +0.008 C  
DOCKED: BRANCH  20  21
DOCKED: ATOM     21  C   UNL     1     139.322  69.244 222.024 -0.13 -0.01    +0.070 C  
DOCKED: BRANCH  21  22
DOCKED: ATOM     22  C   UNL     1     139.205  70.709 221.710 -0.12 -0.02    +0.116 A  
DOCKED: ATOM     23  N   UNL     1     138.744  71.528 221.040 -0.05 +0.03    -0.167 NA 
DOCKED: ATOM     24  S   UNL     1     140.253  71.810 222.891 -0.39 +0.01    -0.080 S  
DOCKED: ATOM     25  N   UNL     1     138.840  72.806 221.013 -0.06 +0.05    -0.251 N  
DOCKED: ATOM     26  C   UNL     1     139.652  73.320 221.968 -0.21 -0.04    +0.208 A  
DOCKED: ATOM     27  H   UNL     1     138.360  73.476 220.337 +0.03 -0.04    +0.193 HD 
DOCKED: BRANCH  26  28
DOCKED: ATOM     28  N   UNL     1     140.004  74.504 222.272 -0.75 +0.01    -0.183 NA 
DOCKED: BRANCH  28  29
DOCKED: ATOM     29  C   UNL     1     139.985  75.561 221.286 -0.20 -0.06    +0.255 C  
DOCKED: ATOM     30  O   UNL     1     139.058  75.637 220.443 -0.05 +0.06    -0.272 OA 
DOCKED: BRANCH  29  31
DOCKED: ATOM     31  C   UNL     1     141.118  76.535 221.336 -0.26 -0.05    +0.123 C  
DOCKED: ATOM     32  C   UNL     1     140.936  77.441 220.153 -0.13 -0.10    +0.243 C  
DOCKED: ATOM     33  C   UNL     1     141.070  77.197 222.666 -0.34 -0.02    +0.056 C  
DOCKED: ATOM     34  O   UNL     1     141.619  78.666 220.281 -0.08 +0.27    -0.492 OA 
DOCKED: ATOM     35  C   UNL     1     141.405  78.626 222.644 -0.50 +0.00    -0.005 A  
DOCKED: ATOM     36  C   UNL     1     141.671  79.348 221.499 -0.33 -0.06    +0.122 A  
DOCKED: ATOM     37  C   UNL     1     141.458  79.303 223.842 -0.60 -0.00    +0.007 A  
DOCKED: ATOM     38  C   UNL     1     141.983  80.692 221.506 -0.40 -0.02    +0.047 A  
DOCKED: ATOM     39  C   UNL     1     141.765  80.646 223.895 -0.56 -0.00    +0.001 A  
DOCKED: ATOM     40  C   UNL     1     142.028  81.338 222.725 -0.51 -0.00    +0.004 A  
DOCKED: ENDBRANCH  29  31
DOCKED: ENDBRANCH  28  29
DOCKED: ENDBRANCH  26  28
DOCKED: ENDBRANCH  21  22
DOCKED: ENDBRANCH  20  21
DOCKED: ENDBRANCH  19  20
DOCKED: ENDBRANCH  18  19
DOCKED: ENDBRANCH   4  18
DOCKED: TORSDOF 14
DOCKED: TER
DOCKED: ENDMDL
________________________________________________________________________________


    FINAL DOCKED STATE:
    ________________________


Run:   14 / 20
Time taken for this run:   0.088s

DOCKED: MODEL        14
DOCKED: USER    Run = 14
DOCKED: USER
DOCKED: USER    Estimated Free Energy of Binding    =  -6.98 kcal/mol  [=(1)+(2)+(3)-(4)]
DOCKED: USER
DOCKED: USER    (1) Final Intermolecular Energy     = -11.16 kcal/mol
DOCKED: USER        vdW + Hbond + desolv Energy     = -10.87 kcal/mol
DOCKED: USER        Electrostatic Energy            =  -0.28 kcal/mol
DOCKED: USER        Moving Ligand-Fixed Receptor    = -11.16 kcal/mol
DOCKED: USER        Moving Ligand-Moving Receptor   =  +0.00 kcal/mol
DOCKED: USER    (2) Final Total Internal Energy     =  -3.04 kcal/mol
DOCKED: USER    (3) Torsional Free Energy           =  +4.18 kcal/mol
DOCKED: USER    (4) Unbound System's Energy         =  -3.04 kcal/mol
DOCKED: USER
DOCKED: USER
DOCKED: REMARK SMILES C[C@@H](C(=O)/N=c1\[nH]nc(CCCCc2n[nH]/c(=N\C(=O)[C@H]3COc4ccccc4C3)s2)s1)C(C)(C)CO
DOCKED: REMARK SMILES IDX 6 1 7 2 8 3 9 4 32 5 5 7 3 8 4 9 2 10 1 11 33 12 34 13 35 14
DOCKED: REMARK SMILES IDX 36 15 37 16 10 18 11 19 12 20 13 21 14 22 15 23 31 24 16 25
DOCKED: REMARK SMILES IDX 17 26 18 28 19 29 20 30 21 31 22 32 30 33 23 34 29 35 24 36
DOCKED: REMARK SMILES IDX 28 37 25 38 27 39 26 40
DOCKED: REMARK H PARENT 7 6 37 17 16 27
DOCKED: USER                              x       y       z     vdW  Elec       q    Type
DOCKED: USER                           _______ _______ _______ _____ _____    ______ ____
DOCKED: ROOT
DOCKED: ATOM      1  C   UNL     1     142.663  75.557 218.325 -0.14 -0.09    +0.208 A  
DOCKED: ATOM      2  N   UNL     1     141.346  75.685 218.048 -0.02 +0.09    -0.251 N  
DOCKED: ATOM      3  N   UNL     1     140.847  76.822 218.348 -0.04 +0.06    -0.167 NA 
DOCKED: ATOM      4  C   UNL     1     141.282  77.793 218.816 -0.14 -0.06    +0.116 A  
DOCKED: ATOM      5  S   UNL     1     143.110  77.220 219.053 -0.24 +0.06    -0.080 S  
DOCKED: ATOM      6  H   UNL     1     140.834  74.854 217.613 +0.03 -0.05    +0.193 HD 
DOCKED: ENDROOT
DOCKED: BRANCH   1   7
DOCKED: ATOM      7  N   UNL     1     143.502  74.614 218.181 -0.11 +0.07    -0.184 NA 
DOCKED: BRANCH   7   8
DOCKED: ATOM      8  C   UNL     1     144.041  73.913 219.325 -0.19 -0.07    +0.251 C  
DOCKED: ATOM      9  O   UNL     1     144.736  74.499 220.188 -0.37 +0.11    -0.272 OA 
DOCKED: BRANCH   8  10
DOCKED: ATOM     10  C   UNL     1     143.727  72.477 219.415 -0.19 -0.01    +0.086 C  
DOCKED: ATOM     11  C   UNL     1     143.709  72.007 220.850 -0.29 -0.00    +0.019 C  
DOCKED: BRANCH  10  12
DOCKED: ATOM     12  C   UNL     1     144.662  71.625 218.593 -0.21 -0.00    -0.001 C  
DOCKED: ATOM     13  C   UNL     1     145.783  71.022 219.377 -0.22 +0.01    +0.014 C  
DOCKED: ATOM     14  C   UNL     1     143.847  70.495 217.962 -0.09 -0.00    +0.014 C  
DOCKED: BRANCH  12  15
DOCKED: ATOM     15  C   UNL     1     145.222  72.429 217.438 -0.11 +0.06    +0.163 C  
DOCKED: BRANCH  15  16
DOCKED: ATOM     16  O   UNL     1     146.167  73.357 217.912 -0.57 -0.28    -0.396 OA 
DOCKED: ATOM     17  H   UNL     1     145.767  74.177 218.241 -0.45 -0.06    +0.210 HD 
DOCKED: ENDBRANCH  15  16
DOCKED: ENDBRANCH  12  15
DOCKED: ENDBRANCH  10  12
DOCKED: ENDBRANCH   8  10
DOCKED: ENDBRANCH   7   8
DOCKED: ENDBRANCH   1   7
DOCKED: BRANCH   4  18
DOCKED: ATOM     18  C   UNL     1     140.981  79.194 219.262 -0.17 -0.03    +0.070 C  
DOCKED: BRANCH  18  19
DOCKED: ATOM     19  C   UNL     1     141.463  79.356 220.686 -0.33 -0.00    +0.008 C  
DOCKED: BRANCH  19  20
DOCKED: ATOM     20  C   UNL     1     140.523  78.634 221.596 -0.30 -0.00    +0.008 C  
DOCKED: BRANCH  20  21
DOCKED: ATOM     21  C   UNL     1     141.170  77.677 222.531 -0.34 -0.03    +0.070 C  
DOCKED: BRANCH  21  22
DOCKED: ATOM     22  C   UNL     1     140.410  76.388 222.388 -0.32 -0.03    +0.116 A  
DOCKED: ATOM     23  N   UNL     1     139.477  75.771 222.667 -0.39 +0.03    -0.167 NA 
DOCKED: ATOM     24  S   UNL     1     141.306  75.122 221.247 -0.36 +0.02    -0.080 S  
DOCKED: ATOM     25  N   UNL     1     139.070  74.594 222.361 -0.09 +0.06    -0.251 N  
DOCKED: ATOM     26  C   UNL     1     139.904  73.919 221.535 -0.20 -0.03    +0.208 A  
DOCKED: ATOM     27  H   UNL     1     138.173  74.117 222.682 -0.50 -0.10    +0.193 HD 
DOCKED: BRANCH  26  28
DOCKED: ATOM     28  N   UNL     1     139.868  72.759 221.013 -0.11 +0.03    -0.183 NA 
DOCKED: BRANCH  28  29
DOCKED: ATOM     29  C   UNL     1     140.205  71.584 221.785 -0.16 -0.04    +0.255 C  
DOCKED: ATOM     30  O   UNL     1     141.069  70.773 221.374 -0.01 +0.03    -0.272 OA 
DOCKED: BRANCH  29  31
DOCKED: ATOM     31  C   UNL     1     139.471  71.406 223.075 -0.27 -0.03    +0.123 C  
DOCKED: ATOM     32  C   UNL     1     139.129  69.947 223.157 -0.15 -0.04    +0.243 C  
DOCKED: ATOM     33  C   UNL     1     140.351  71.922 224.156 -0.26 -0.01    +0.056 C  
DOCKED: ATOM     34  O   UNL     1     138.850  69.514 224.467 -0.09 +0.07    -0.492 OA 
DOCKED: ATOM     35  C   UNL     1     140.311  71.137 225.396 -0.55 +0.00    -0.005 A  
DOCKED: ATOM     36  C   UNL     1     139.590  69.972 225.560 -0.37 -0.02    +0.122 A  
DOCKED: ATOM     37  C   UNL     1     141.038  71.584 226.476 -0.71 -0.00    +0.007 A  
DOCKED: ATOM     38  C   UNL     1     139.569  69.253 226.737 -0.50 -0.01    +0.047 A  
DOCKED: ATOM     39  C   UNL     1     141.046  70.896 227.671 -0.69 -0.00    +0.001 A  
DOCKED: ATOM     40  C   UNL     1     140.310  69.731 227.798 -0.62 -0.00    +0.004 A  
DOCKED: ENDBRANCH  29  31
DOCKED: ENDBRANCH  28  29
DOCKED: ENDBRANCH  26  28
DOCKED: ENDBRANCH  21  22
DOCKED: ENDBRANCH  20  21
DOCKED: ENDBRANCH  19  20
DOCKED: ENDBRANCH  18  19
DOCKED: ENDBRANCH   4  18
DOCKED: TORSDOF 14
DOCKED: TER
DOCKED: ENDMDL
________________________________________________________________________________


    FINAL DOCKED STATE:
    ________________________


Run:   15 / 20
Time taken for this run:   0.088s

DOCKED: MODEL        15
DOCKED: USER    Run = 15
DOCKED: USER
DOCKED: USER    Estimated Free Energy of Binding    =  -7.63 kcal/mol  [=(1)+(2)+(3)-(4)]
DOCKED: USER
DOCKED: USER    (1) Final Intermolecular Energy     = -11.80 kcal/mol
DOCKED: USER        vdW + Hbond + desolv Energy     = -11.61 kcal/mol
DOCKED: USER        Electrostatic Energy            =  -0.20 kcal/mol
DOCKED: USER        Moving Ligand-Fixed Receptor    = -11.80 kcal/mol
DOCKED: USER        Moving Ligand-Moving Receptor   =  +0.00 kcal/mol
DOCKED: USER    (2) Final Total Internal Energy     =  -2.43 kcal/mol
DOCKED: USER    (3) Torsional Free Energy           =  +4.18 kcal/mol
DOCKED: USER    (4) Unbound System's Energy         =  -2.43 kcal/mol
DOCKED: USER
DOCKED: USER
DOCKED: REMARK SMILES C[C@@H](C(=O)/N=c1\[nH]nc(CCCCc2n[nH]/c(=N\C(=O)[C@H]3COc4ccccc4C3)s2)s1)C(C)(C)CO
DOCKED: REMARK SMILES IDX 6 1 7 2 8 3 9 4 32 5 5 7 3 8 4 9 2 10 1 11 33 12 34 13 35 14
DOCKED: REMARK SMILES IDX 36 15 37 16 10 18 11 19 12 20 13 21 14 22 15 23 31 24 16 25
DOCKED: REMARK SMILES IDX 17 26 18 28 19 29 20 30 21 31 22 32 30 33 23 34 29 35 24 36
DOCKED: REMARK SMILES IDX 28 37 25 38 27 39 26 40
DOCKED: REMARK H PARENT 7 6 37 17 16 27
DOCKED: USER                              x       y       z     vdW  Elec       q    Type
DOCKED: USER                           _______ _______ _______ _____ _____    ______ ____
DOCKED: ROOT
DOCKED: ATOM      1  C   UNL     1     134.947  70.984 225.035 -0.11 -0.02    +0.208 A  
DOCKED: ATOM      2  N   UNL     1     134.730  72.257 224.633 -0.11 +0.03    -0.251 N  
DOCKED: ATOM      3  N   UNL     1     133.931  72.921 225.378 -0.20 +0.01    -0.167 NA 
DOCKED: ATOM      4  C   UNL     1     133.336  72.669 226.343 -0.30 -0.00    +0.116 A  
DOCKED: ATOM      5  S   UNL     1     133.897  70.837 226.574 -0.45 +0.00    -0.080 S  
DOCKED: ATOM      6  H   UNL     1     135.226  72.605 223.753 +0.04 -0.03    +0.193 HD 
DOCKED: ENDROOT
DOCKED: BRANCH   1   7
DOCKED: ATOM      7  N   UNL     1     135.652  70.030 224.581 -0.14 +0.02    -0.184 NA 
DOCKED: BRANCH   7   8
DOCKED: ATOM      8  C   UNL     1     137.092  70.140 224.495 -0.12 -0.03    +0.251 C  
DOCKED: ATOM      9  O   UNL     1     137.850  69.376 225.137 -0.21 +0.02    -0.272 OA 
DOCKED: BRANCH   8  10
DOCKED: ATOM     10  C   UNL     1     137.611  71.200 223.613 -0.20 -0.02    +0.086 C  
DOCKED: ATOM     11  C   UNL     1     136.797  71.306 222.345 -0.12 -0.00    +0.019 C  
DOCKED: BRANCH  10  12
DOCKED: ATOM     12  C   UNL     1     139.073  71.022 223.288 -0.30 +0.00    -0.001 C  
DOCKED: ATOM     13  C   UNL     1     139.983  71.207 224.459 -0.45 -0.00    +0.014 C  
DOCKED: ATOM     14  C   UNL     1     139.271  69.610 222.737 -0.19 -0.00    +0.014 C  
DOCKED: BRANCH  12  15
DOCKED: ATOM     15  C   UNL     1     139.478  71.964 222.173 -0.21 -0.03    +0.163 C  
DOCKED: BRANCH  15  16
DOCKED: ATOM     16  O   UNL     1     139.953  73.173 222.713 -0.66 +0.04    -0.396 OA 
DOCKED: ATOM     17  H   UNL     1     139.245  73.799 222.931 -0.49 -0.07    +0.210 HD 
DOCKED: ENDBRANCH  15  16
DOCKED: ENDBRANCH  12  15
DOCKED: ENDBRANCH  10  12
DOCKED: ENDBRANCH   8  10
DOCKED: ENDBRANCH   7   8
DOCKED: ENDBRANCH   1   7
DOCKED: BRANCH   4  18
DOCKED: ATOM     18  C   UNL     1     132.384  73.189 227.380 -0.31 -0.01    +0.070 C  
DOCKED: BRANCH  18  19
DOCKED: ATOM     19  C   UNL     1     132.011  74.609 227.017 -0.37 -0.00    +0.008 C  
DOCKED: BRANCH  19  20
DOCKED: ATOM     20  C   UNL     1     133.262  75.416 226.891 -0.37 +0.00    +0.008 C  
DOCKED: BRANCH  20  21
DOCKED: ATOM     21  C   UNL     1     133.297  76.335 225.723 -0.24 -0.01    +0.070 C  
DOCKED: BRANCH  21  22
DOCKED: ATOM     22  C   UNL     1     134.465  75.889 224.888 -0.25 -0.01    +0.116 A  
DOCKED: ATOM     23  N   UNL     1     135.244  75.070 224.662 -0.27 +0.03    -0.167 NA 
DOCKED: ATOM     24  S   UNL     1     134.978  77.196 223.571 -0.19 +0.01    -0.080 S  
DOCKED: ATOM     25  N   UNL     1     136.200  74.967 223.813 -0.12 +0.08    -0.251 N  
DOCKED: ATOM     26  C   UNL     1     136.335  76.044 223.002 -0.19 -0.04    +0.208 A  
DOCKED: ATOM     27  H   UNL     1     136.870  74.148 223.690 -0.44 -0.13    +0.193 HD 
DOCKED: BRANCH  26  28
DOCKED: ATOM     28  N   UNL     1     137.136  76.330 222.055 -0.13 +0.04    -0.183 NA 
DOCKED: BRANCH  28  29
DOCKED: ATOM     29  C   UNL     1     138.540  76.561 222.313 -0.21 -0.05    +0.255 C  
DOCKED: ATOM     30  O   UNL     1     139.271  75.641 222.754 -0.43 +0.05    -0.272 OA 
DOCKED: BRANCH  29  31
DOCKED: ATOM     31  C   UNL     1     139.049  77.936 222.025 -0.22 -0.03    +0.123 C  
DOCKED: ATOM     32  C   UNL     1     138.397  78.837 223.033 -0.17 -0.04    +0.243 C  
DOCKED: ATOM     33  C   UNL     1     140.533  77.876 222.082 -0.36 -0.02    +0.056 C  
DOCKED: ATOM     34  O   UNL     1     139.078  80.057 223.212 -0.10 +0.07    -0.492 OA 
DOCKED: ATOM     35  C   UNL     1     141.164  79.055 222.686 -0.47 +0.00    -0.005 A  
DOCKED: ATOM     36  C   UNL     1     140.474  80.115 223.237 -0.37 -0.02    +0.122 A  
DOCKED: ATOM     37  C   UNL     1     142.540  79.119 222.713 -0.51 -0.00    +0.007 A  
DOCKED: ATOM     38  C   UNL     1     141.092  81.213 223.800 -0.40 -0.01    +0.047 A  
DOCKED: ATOM     39  C   UNL     1     143.198  80.196 223.266 -0.63 -0.00    +0.001 A  
DOCKED: ATOM     40  C   UNL     1     142.472  81.242 223.808 -0.63 -0.00    +0.004 A  
DOCKED: ENDBRANCH  29  31
DOCKED: ENDBRANCH  28  29
DOCKED: ENDBRANCH  26  28
DOCKED: ENDBRANCH  21  22
DOCKED: ENDBRANCH  20  21
DOCKED: ENDBRANCH  19  20
DOCKED: ENDBRANCH  18  19
DOCKED: ENDBRANCH   4  18
DOCKED: TORSDOF 14
DOCKED: TER
DOCKED: ENDMDL
________________________________________________________________________________


    FINAL DOCKED STATE:
    ________________________


Run:   16 / 20
Time taken for this run:   0.088s

DOCKED: MODEL        16
DOCKED: USER    Run = 16
DOCKED: USER
DOCKED: USER    Estimated Free Energy of Binding    =  -5.92 kcal/mol  [=(1)+(2)+(3)-(4)]
DOCKED: USER
DOCKED: USER    (1) Final Intermolecular Energy     = -10.09 kcal/mol
DOCKED: USER        vdW + Hbond + desolv Energy     = -10.00 kcal/mol
DOCKED: USER        Electrostatic Energy            =  -0.10 kcal/mol
DOCKED: USER        Moving Ligand-Fixed Receptor    = -10.09 kcal/mol
DOCKED: USER        Moving Ligand-Moving Receptor   =  +0.00 kcal/mol
DOCKED: USER    (2) Final Total Internal Energy     =  -4.07 kcal/mol
DOCKED: USER    (3) Torsional Free Energy           =  +4.18 kcal/mol
DOCKED: USER    (4) Unbound System's Energy         =  -4.07 kcal/mol
DOCKED: USER
DOCKED: USER
DOCKED: REMARK SMILES C[C@@H](C(=O)/N=c1\[nH]nc(CCCCc2n[nH]/c(=N\C(=O)[C@H]3COc4ccccc4C3)s2)s1)C(C)(C)CO
DOCKED: REMARK SMILES IDX 6 1 7 2 8 3 9 4 32 5 5 7 3 8 4 9 2 10 1 11 33 12 34 13 35 14
DOCKED: REMARK SMILES IDX 36 15 37 16 10 18 11 19 12 20 13 21 14 22 15 23 31 24 16 25
DOCKED: REMARK SMILES IDX 17 26 18 28 19 29 20 30 21 31 22 32 30 33 23 34 29 35 24 36
DOCKED: REMARK SMILES IDX 28 37 25 38 27 39 26 40
DOCKED: REMARK H PARENT 7 6 37 17 16 27
DOCKED: USER                              x       y       z     vdW  Elec       q    Type
DOCKED: USER                           _______ _______ _______ _____ _____    ______ ____
DOCKED: ROOT
DOCKED: ATOM      1  C   UNL     1     142.567  77.778 219.000 -0.21 -0.15    +0.208 A  
DOCKED: ATOM      2  N   UNL     1     142.865  77.081 220.120 -0.13 +0.21    -0.251 N  
DOCKED: ATOM      3  N   UNL     1     143.374  75.927 219.910 -0.29 +0.11    -0.167 NA 
DOCKED: ATOM      4  C   UNL     1     143.642  75.330 218.950 -0.25 -0.06    +0.116 A  
DOCKED: ATOM      5  S   UNL     1     143.085  76.620 217.627 -0.31 +0.05    -0.080 S  
DOCKED: ATOM      6  H   UNL     1     142.662  77.530 221.068 -0.41 -0.20    +0.193 HD 
DOCKED: ENDROOT
DOCKED: BRANCH   1   7
DOCKED: ATOM      7  N   UNL     1     142.064  78.925 218.789 -0.20 +0.13    -0.184 NA 
DOCKED: BRANCH   7   8
DOCKED: ATOM      8  C   UNL     1     141.742  79.812 219.885 -0.19 -0.13    +0.251 C  
DOCKED: ATOM      9  O   UNL     1     142.124  81.005 219.900 -0.19 +0.12    -0.272 OA 
DOCKED: BRANCH   8  10
DOCKED: ATOM     10  C   UNL     1     140.943  79.230 220.977 -0.25 -0.03    +0.086 C  
DOCKED: ATOM     11  C   UNL     1     139.494  79.644 220.879 -0.14 -0.00    +0.019 C  
DOCKED: BRANCH  10  12
DOCKED: ATOM     12  C   UNL     1     141.495  79.562 222.342 -0.49 +0.00    -0.001 C  
DOCKED: ATOM     13  C   UNL     1     142.922  80.008 222.328 -0.42 -0.01    +0.014 C  
DOCKED: ATOM     14  C   UNL     1     140.642  80.680 222.942 -0.44 -0.00    +0.014 C  
DOCKED: BRANCH  12  15
DOCKED: ATOM     15  C   UNL     1     141.340  78.376 223.270 -0.40 -0.05    +0.163 C  
DOCKED: BRANCH  15  16
DOCKED: ATOM     16  O   UNL     1     141.103  77.207 222.524 -0.24 +0.16    -0.396 OA 
DOCKED: ATOM     17  H   UNL     1     141.917  76.746 222.267 -0.46 -0.17    +0.210 HD 
DOCKED: ENDBRANCH  15  16
DOCKED: ENDBRANCH  12  15
DOCKED: ENDBRANCH  10  12
DOCKED: ENDBRANCH   8  10
DOCKED: ENDBRANCH   7   8
DOCKED: ENDBRANCH   1   7
DOCKED: BRANCH   4  18
DOCKED: ATOM     18  C   UNL     1     144.209  74.051 218.407 -0.16 -0.02    +0.070 C  
DOCKED: BRANCH  18  19
DOCKED: ATOM     19  C   UNL     1     143.324  72.909 218.855 -0.15 -0.00    +0.008 C  
DOCKED: BRANCH  19  20
DOCKED: ATOM     20  C   UNL     1     141.967  73.449 219.171 -0.11 -0.00    +0.008 C  
DOCKED: BRANCH  20  21
DOCKED: ATOM     21  C   UNL     1     141.185  72.642 220.143 -0.13 -0.01    +0.070 C  
DOCKED: BRANCH  21  22
DOCKED: ATOM     22  C   UNL     1     140.375  73.629 220.936 -0.18 -0.02    +0.116 A  
DOCKED: ATOM     23  N   UNL     1     139.982  73.960 221.969 -0.80 +0.02    -0.167 NA 
DOCKED: ATOM     24  S   UNL     1     139.597  75.004 219.838 -0.10 +0.02    -0.080 S  
DOCKED: ATOM     25  N   UNL     1     139.246  74.932 222.365 -0.15 +0.05    -0.251 N  
DOCKED: ATOM     26  C   UNL     1     138.834  75.754 221.370 -0.16 -0.05    +0.208 A  
DOCKED: ATOM     27  H   UNL     1     138.940  75.146 223.363 -0.47 -0.08    +0.193 HD 
DOCKED: BRANCH  26  28
DOCKED: ATOM     28  N   UNL     1     138.112  76.802 221.344 -0.09 +0.04    -0.183 NA 
DOCKED: BRANCH  28  29
DOCKED: ATOM     29  C   UNL     1     137.349  77.208 222.503 -0.16 -0.05    +0.255 C  
DOCKED: ATOM     30  O   UNL     1     137.114  76.398 223.432 -0.20 +0.06    -0.272 OA 
DOCKED: BRANCH  29  31
DOCKED: ATOM     31  C   UNL     1     136.870  78.623 222.519 -0.14 -0.02    +0.123 C  
DOCKED: ATOM     32  C   UNL     1     135.419  78.564 222.899 -0.08 -0.03    +0.243 C  
DOCKED: ATOM     33  C   UNL     1     137.749  79.374 223.454 -0.18 -0.01    +0.056 C  
DOCKED: ATOM     34  O   UNL     1     134.924  79.784 223.398 -0.03 +0.06    -0.492 OA 
DOCKED: ATOM     35  C   UNL     1     137.052  80.379 224.265 -0.28 +0.00    -0.005 A  
DOCKED: ATOM     36  C   UNL     1     135.688  80.587 224.249 -0.16 -0.01    +0.122 A  
DOCKED: ATOM     37  C   UNL     1     137.799  81.174 225.106 -0.38 -0.00    +0.007 A  
DOCKED: ATOM     38  C   UNL     1     135.057  81.539 225.023 -0.15 -0.01    +0.047 A  
DOCKED: ATOM     39  C   UNL     1     137.209  82.136 225.897 -0.41 -0.00    +0.001 A  
DOCKED: ATOM     40  C   UNL     1     135.838  82.317 225.853 -0.29 -0.00    +0.004 A  
DOCKED: ENDBRANCH  29  31
DOCKED: ENDBRANCH  28  29
DOCKED: ENDBRANCH  26  28
DOCKED: ENDBRANCH  21  22
DOCKED: ENDBRANCH  20  21
DOCKED: ENDBRANCH  19  20
DOCKED: ENDBRANCH  18  19
DOCKED: ENDBRANCH   4  18
DOCKED: TORSDOF 14
DOCKED: TER
DOCKED: ENDMDL
________________________________________________________________________________


    FINAL DOCKED STATE:
    ________________________


Run:   17 / 20
Time taken for this run:   0.088s

DOCKED: MODEL        17
DOCKED: USER    Run = 17
DOCKED: USER
DOCKED: USER    Estimated Free Energy of Binding    =  -4.87 kcal/mol  [=(1)+(2)+(3)-(4)]
DOCKED: USER
DOCKED: USER    (1) Final Intermolecular Energy     =  -9.04 kcal/mol
DOCKED: USER        vdW + Hbond + desolv Energy     =  -8.53 kcal/mol
DOCKED: USER        Electrostatic Energy            =  -0.52 kcal/mol
DOCKED: USER        Moving Ligand-Fixed Receptor    =  -9.04 kcal/mol
DOCKED: USER        Moving Ligand-Moving Receptor   =  +0.00 kcal/mol
DOCKED: USER    (2) Final Total Internal Energy     =  -6.21 kcal/mol
DOCKED: USER    (3) Torsional Free Energy           =  +4.18 kcal/mol
DOCKED: USER    (4) Unbound System's Energy         =  -6.21 kcal/mol
DOCKED: USER
DOCKED: USER
DOCKED: REMARK SMILES C[C@@H](C(=O)/N=c1\[nH]nc(CCCCc2n[nH]/c(=N\C(=O)[C@H]3COc4ccccc4C3)s2)s1)C(C)(C)CO
DOCKED: REMARK SMILES IDX 6 1 7 2 8 3 9 4 32 5 5 7 3 8 4 9 2 10 1 11 33 12 34 13 35 14
DOCKED: REMARK SMILES IDX 36 15 37 16 10 18 11 19 12 20 13 21 14 22 15 23 31 24 16 25
DOCKED: REMARK SMILES IDX 17 26 18 28 19 29 20 30 21 31 22 32 30 33 23 34 29 35 24 36
DOCKED: REMARK SMILES IDX 28 37 25 38 27 39 26 40
DOCKED: REMARK H PARENT 7 6 37 17 16 27
DOCKED: USER                              x       y       z     vdW  Elec       q    Type
DOCKED: USER                           _______ _______ _______ _____ _____    ______ ____
DOCKED: ROOT
DOCKED: ATOM      1  C   UNL     1     139.564  76.651 219.808 -0.04 -0.06    +0.208 A  
DOCKED: ATOM      2  N   UNL     1     140.389  75.752 219.224 -0.02 +0.07    -0.251 N  
DOCKED: ATOM      3  N   UNL     1     139.841  74.634 218.937 -0.02 +0.04    -0.167 NA 
DOCKED: ATOM      4  C   UNL     1     138.768  74.207 219.070 -0.02 -0.02    +0.116 A  
DOCKED: ATOM      5  S   UNL     1     137.936  75.736 219.904 -0.06 +0.02    -0.080 S  
DOCKED: ATOM      6  H   UNL     1     141.405  76.033 219.049 +0.06 -0.07    +0.193 HD 
DOCKED: ENDROOT
DOCKED: BRANCH   1   7
DOCKED: ATOM      7  N   UNL     1     139.720  77.838 220.232 -0.05 +0.06    -0.184 NA 
DOCKED: BRANCH   7   8
DOCKED: ATOM      8  C   UNL     1     141.040  78.376 220.476 -0.16 -0.11    +0.251 C  
DOCKED: ATOM      9  O   UNL     1     142.071  77.676 220.342 -0.22 +0.18    -0.272 OA 
DOCKED: BRANCH   8  10
DOCKED: ATOM     10  C   UNL     1     141.099  79.788 220.891 -0.27 -0.03    +0.086 C  
DOCKED: ATOM     11  C   UNL     1     142.180  80.535 220.146 -0.19 -0.01    +0.019 C  
DOCKED: BRANCH  10  12
DOCKED: ATOM     12  C   UNL     1     141.278  79.950 222.380 -0.47 +0.00    -0.001 C  
DOCKED: ATOM     13  C   UNL     1     142.695  80.174 222.801 -0.63 -0.00    +0.014 C  
DOCKED: ATOM     14  C   UNL     1     140.440  81.145 222.835 -0.39 -0.00    +0.014 C  
DOCKED: BRANCH  12  15
DOCKED: ATOM     15  C   UNL     1     140.714  78.746 223.107 -0.39 -0.04    +0.163 C  
DOCKED: BRANCH  15  16
DOCKED: ATOM     16  O   UNL     1     141.727  77.792 223.317 -0.21 +0.18    -0.396 OA 
DOCKED: ATOM     17  H   UNL     1     142.157  77.503 222.496 -0.36 -0.18    +0.210 HD 
DOCKED: ENDBRANCH  15  16
DOCKED: ENDBRANCH  12  15
DOCKED: ENDBRANCH  10  12
DOCKED: ENDBRANCH   8  10
DOCKED: ENDBRANCH   7   8
DOCKED: ENDBRANCH   1   7
DOCKED: BRANCH   4  18
DOCKED: ATOM     18  C   UNL     1     137.873  73.023 218.853 -0.01 -0.01    +0.070 C  
DOCKED: BRANCH  18  19
DOCKED: ATOM     19  C   UNL     1     138.172  71.996 219.923 -0.04 -0.00    +0.008 C  
DOCKED: BRANCH  19  20
DOCKED: ATOM     20  C   UNL     1     138.129  72.668 221.258 -0.12 -0.00    +0.008 C  
DOCKED: BRANCH  20  21
DOCKED: ATOM     21  C   UNL     1     139.277  72.360 222.149 -0.22 -0.02    +0.070 C  
DOCKED: BRANCH  21  22
DOCKED: ATOM     22  C   UNL     1     140.299  73.430 221.885 -0.25 -0.01    +0.116 A  
DOCKED: ATOM     23  N   UNL     1     140.636  74.519 222.060 -0.69 +0.00    -0.167 NA 
DOCKED: ATOM     24  S   UNL     1     141.736  72.823 220.757 -0.28 +0.01    -0.080 S  
DOCKED: ATOM     25  N   UNL     1     141.645  75.207 221.668 -0.10 +0.08    -0.251 N  
DOCKED: ATOM     26  C   UNL     1     142.506  74.522 220.877 -0.16 -0.07    +0.208 A  
DOCKED: ATOM     27  H   UNL     1     141.861  76.225 221.896 -0.50 -0.12    +0.193 HD 
DOCKED: BRANCH  26  28
DOCKED: ATOM     28  N   UNL     1     143.596  74.832 220.298 -0.28 +0.08    -0.183 NA 
DOCKED: BRANCH  28  29
DOCKED: ATOM     29  C   UNL     1     143.717  74.766 218.859 -0.15 -0.11    +0.255 C  
DOCKED: ATOM     30  O   UNL     1     143.190  75.641 218.129 -0.15 +0.13    -0.272 OA 
DOCKED: BRANCH  29  31
DOCKED: ATOM     31  C   UNL     1     144.494  73.612 218.311 -0.16 -0.02    +0.123 C  
DOCKED: ATOM     32  C   UNL     1     145.620  73.377 219.276 -0.20 +0.04    +0.243 C  
DOCKED: ATOM     33  C   UNL     1     143.544  72.482 218.145 -0.09 -0.00    +0.056 C  
DOCKED: ATOM     34  O   UNL     1     146.174  72.087 219.179 -0.39 -0.60    -0.492 OA 
DOCKED: ATOM     35  C   UNL     1     144.103  71.166 218.478 -0.15 -0.00    -0.005 A  
DOCKED: ATOM     36  C   UNL     1     145.372  70.961 218.979 -0.24 +0.06    +0.122 A  
DOCKED: ATOM     37  C   UNL     1     143.316  70.052 218.283 -0.09 -0.00    +0.007 A  
DOCKED: ATOM     38  C   UNL     1     145.874  69.713 219.285 -0.27 +0.03    +0.047 A  
DOCKED: ATOM     39  C   UNL     1     143.778  68.787 218.575 -0.19 -0.00    +0.001 A  
DOCKED: ATOM     40  C   UNL     1     145.057  68.620 219.076 -0.36 +0.00    +0.004 A  
DOCKED: ENDBRANCH  29  31
DOCKED: ENDBRANCH  28  29
DOCKED: ENDBRANCH  26  28
DOCKED: ENDBRANCH  21  22
DOCKED: ENDBRANCH  20  21
DOCKED: ENDBRANCH  19  20
DOCKED: ENDBRANCH  18  19
DOCKED: ENDBRANCH   4  18
DOCKED: TORSDOF 14
DOCKED: TER
DOCKED: ENDMDL
________________________________________________________________________________


    FINAL DOCKED STATE:
    ________________________


Run:   18 / 20
Time taken for this run:   0.088s

DOCKED: MODEL        18
DOCKED: USER    Run = 18
DOCKED: USER
DOCKED: USER    Estimated Free Energy of Binding    =  -4.38 kcal/mol  [=(1)+(2)+(3)-(4)]
DOCKED: USER
DOCKED: USER    (1) Final Intermolecular Energy     =  -8.56 kcal/mol
DOCKED: USER        vdW + Hbond + desolv Energy     =  -8.68 kcal/mol
DOCKED: USER        Electrostatic Energy            =  +0.12 kcal/mol
DOCKED: USER        Moving Ligand-Fixed Receptor    =  -8.56 kcal/mol
DOCKED: USER        Moving Ligand-Moving Receptor   =  +0.00 kcal/mol
DOCKED: USER    (2) Final Total Internal Energy     =  -6.60 kcal/mol
DOCKED: USER    (3) Torsional Free Energy           =  +4.18 kcal/mol
DOCKED: USER    (4) Unbound System's Energy         =  -6.60 kcal/mol
DOCKED: USER
DOCKED: USER
DOCKED: REMARK SMILES C[C@@H](C(=O)/N=c1\[nH]nc(CCCCc2n[nH]/c(=N\C(=O)[C@H]3COc4ccccc4C3)s2)s1)C(C)(C)CO
DOCKED: REMARK SMILES IDX 6 1 7 2 8 3 9 4 32 5 5 7 3 8 4 9 2 10 1 11 33 12 34 13 35 14
DOCKED: REMARK SMILES IDX 36 15 37 16 10 18 11 19 12 20 13 21 14 22 15 23 31 24 16 25
DOCKED: REMARK SMILES IDX 17 26 18 28 19 29 20 30 21 31 22 32 30 33 23 34 29 35 24 36
DOCKED: REMARK SMILES IDX 28 37 25 38 27 39 26 40
DOCKED: REMARK H PARENT 7 6 37 17 16 27
DOCKED: USER                              x       y       z     vdW  Elec       q    Type
DOCKED: USER                           _______ _______ _______ _____ _____    ______ ____
DOCKED: ROOT
DOCKED: ATOM      1  C   UNL     1     141.536  78.036 218.479 -0.13 -0.11    +0.208 A  
DOCKED: ATOM      2  N   UNL     1     140.257  78.181 218.894 -0.03 +0.09    -0.251 N  
DOCKED: ATOM      3  N   UNL     1     139.946  79.367 219.254 -0.04 +0.06    -0.167 NA 
DOCKED: ATOM      4  C   UNL     1     140.529  80.370 219.308 -0.12 -0.04    +0.116 A  
DOCKED: ATOM      5  S   UNL     1     142.241  79.758 218.659 -0.35 +0.06    -0.080 S  
DOCKED: ATOM      6  H   UNL     1     139.620  77.324 218.889 +0.03 -0.06    +0.193 HD 
DOCKED: ENDROOT
DOCKED: BRANCH   1   7
DOCKED: ATOM      7  N   UNL     1     142.213  77.049 218.054 -0.15 +0.10    -0.184 NA 
DOCKED: BRANCH   7   8
DOCKED: ATOM      8  C   UNL     1     143.111  76.327 218.929 -0.23 -0.15    +0.251 C  
DOCKED: ATOM      9  O   UNL     1     143.440  76.779 220.051 -0.26 +0.24    -0.272 OA 
DOCKED: BRANCH   8  10
DOCKED: ATOM     10  C   UNL     1     143.613  75.038 218.424 -0.19 -0.04    +0.086 C  
DOCKED: ATOM     11  C   UNL     1     142.935  74.653 217.130 -0.10 -0.01    +0.019 C  
DOCKED: BRANCH  10  12
DOCKED: ATOM     12  C   UNL     1     143.483  73.927 219.437 -0.28 +0.00    -0.001 C  
DOCKED: ATOM     13  C   UNL     1     143.662  72.558 218.863 -0.16 -0.00    +0.014 C  
DOCKED: ATOM     14  C   UNL     1     144.539  74.142 220.521 -0.49 -0.00    +0.014 C  
DOCKED: BRANCH  12  15
DOCKED: ATOM     15  C   UNL     1     142.143  74.014 220.138 -0.18 -0.04    +0.163 C  
DOCKED: BRANCH  15  16
DOCKED: ATOM     16  O   UNL     1     142.232  74.881 221.242 -0.15 +0.14    -0.396 OA 
DOCKED: ATOM     17  H   UNL     1     141.811  75.741 221.088 -0.08 -0.10    +0.210 HD 
DOCKED: ENDBRANCH  15  16
DOCKED: ENDBRANCH  12  15
DOCKED: ENDBRANCH  10  12
DOCKED: ENDBRANCH   8  10
DOCKED: ENDBRANCH   7   8
DOCKED: ENDBRANCH   1   7
DOCKED: BRANCH   4  18
DOCKED: ATOM     18  C   UNL     1     140.455  81.827 219.658 -0.17 -0.02    +0.070 C  
DOCKED: BRANCH  18  19
DOCKED: ATOM     19  C   UNL     1     141.494  82.117 220.719 -0.28 -0.00    +0.008 C  
DOCKED: BRANCH  19  20
DOCKED: ATOM     20  C   UNL     1     140.842  82.039 222.062 -0.36 -0.00    +0.008 C  
DOCKED: BRANCH  20  21
DOCKED: ATOM     21  C   UNL     1     141.609  81.282 223.085 -0.51 -0.01    +0.070 C  
DOCKED: BRANCH  21  22
DOCKED: ATOM     22  C   UNL     1     141.584  79.848 222.635 -0.44 -0.04    +0.116 A  
DOCKED: ATOM     23  N   UNL     1     142.119  78.992 222.077 -0.34 +0.09    -0.167 NA 
DOCKED: ATOM     24  S   UNL     1     139.983  78.927 223.180 -0.45 +0.02    -0.080 S  
DOCKED: ATOM     25  N   UNL     1     141.822  77.768 221.839 +0.06 +0.17    -0.251 N  
DOCKED: ATOM     26  C   UNL     1     140.625  77.383 222.344 -0.31 -0.07    +0.208 A  
DOCKED: ATOM     27  H   UNL     1     142.403  77.054 221.303 -0.45 -0.19    +0.193 HD 
DOCKED: BRANCH  26  28
DOCKED: ATOM     28  N   UNL     1     139.982  76.285 222.328 -0.34 +0.04    -0.183 NA 
DOCKED: BRANCH  28  29
DOCKED: ATOM     29  C   UNL     1     139.344  75.814 221.119 -0.14 -0.06    +0.255 C  
DOCKED: ATOM     30  O   UNL     1     139.954  75.834 220.022 -0.05 +0.07    -0.272 OA 
DOCKED: BRANCH  29  31
DOCKED: ATOM     31  C   UNL     1     137.943  75.315 221.260 -0.13 -0.03    +0.123 C  
DOCKED: ATOM     32  C   UNL     1     138.053  73.838 221.506 -0.11 -0.06    +0.243 C  
DOCKED: ATOM     33  C   UNL     1     137.303  76.101 222.346 -0.23 -0.01    +0.056 C  
DOCKED: ATOM     34  O   UNL     1     136.903  73.286 222.100 -0.04 +0.14    -0.492 OA 
DOCKED: ATOM     35  C   UNL     1     136.404  75.324 223.208 -0.22 +0.00    -0.005 A  
DOCKED: ATOM     36  C   UNL     1     136.202  73.963 223.101 -0.12 -0.04    +0.122 A  
DOCKED: ATOM     37  C   UNL     1     135.710  75.986 224.196 -0.24 -0.00    +0.007 A  
DOCKED: ATOM     38  C   UNL     1     135.351  73.255 223.924 -0.21 -0.01    +0.047 A  
DOCKED: ATOM     39  C   UNL     1     134.850  75.319 225.041 -0.37 -0.00    +0.001 A  
DOCKED: ATOM     40  C   UNL     1     134.672  73.953 224.903 -0.31 -0.00    +0.004 A  
DOCKED: ENDBRANCH  29  31
DOCKED: ENDBRANCH  28  29
DOCKED: ENDBRANCH  26  28
DOCKED: ENDBRANCH  21  22
DOCKED: ENDBRANCH  20  21
DOCKED: ENDBRANCH  19  20
DOCKED: ENDBRANCH  18  19
DOCKED: ENDBRANCH   4  18
DOCKED: TORSDOF 14
DOCKED: TER
DOCKED: ENDMDL
________________________________________________________________________________


    FINAL DOCKED STATE:
    ________________________


Run:   19 / 20
Time taken for this run:   0.088s

DOCKED: MODEL        19
DOCKED: USER    Run = 19
DOCKED: USER
DOCKED: USER    Estimated Free Energy of Binding    =  -7.00 kcal/mol  [=(1)+(2)+(3)-(4)]
DOCKED: USER
DOCKED: USER    (1) Final Intermolecular Energy     = -11.18 kcal/mol
DOCKED: USER        vdW + Hbond + desolv Energy     = -10.83 kcal/mol
DOCKED: USER        Electrostatic Energy            =  -0.35 kcal/mol
DOCKED: USER        Moving Ligand-Fixed Receptor    = -11.18 kcal/mol
DOCKED: USER        Moving Ligand-Moving Receptor   =  +0.00 kcal/mol
DOCKED: USER    (2) Final Total Internal Energy     =  -4.41 kcal/mol
DOCKED: USER    (3) Torsional Free Energy           =  +4.18 kcal/mol
DOCKED: USER    (4) Unbound System's Energy         =  -4.41 kcal/mol
DOCKED: USER
DOCKED: USER
DOCKED: REMARK SMILES C[C@@H](C(=O)/N=c1\[nH]nc(CCCCc2n[nH]/c(=N\C(=O)[C@H]3COc4ccccc4C3)s2)s1)C(C)(C)CO
DOCKED: REMARK SMILES IDX 6 1 7 2 8 3 9 4 32 5 5 7 3 8 4 9 2 10 1 11 33 12 34 13 35 14
DOCKED: REMARK SMILES IDX 36 15 37 16 10 18 11 19 12 20 13 21 14 22 15 23 31 24 16 25
DOCKED: REMARK SMILES IDX 17 26 18 28 19 29 20 30 21 31 22 32 30 33 23 34 29 35 24 36
DOCKED: REMARK SMILES IDX 28 37 25 38 27 39 26 40
DOCKED: REMARK H PARENT 7 6 37 17 16 27
DOCKED: USER                              x       y       z     vdW  Elec       q    Type
DOCKED: USER                           _______ _______ _______ _____ _____    ______ ____
DOCKED: ROOT
DOCKED: ATOM      1  C   UNL     1     145.544  71.057 218.468 -0.15 +0.14    +0.208 A  
DOCKED: ATOM      2  N   UNL     1     146.076  70.355 219.494 -0.04 -0.18    -0.251 N  
DOCKED: ATOM      3  N   UNL     1     146.169  69.097 219.287 -0.54 -0.08    -0.167 NA 
DOCKED: ATOM      4  C   UNL     1     145.891  68.407 218.394 -0.31 +0.01    +0.116 A  
DOCKED: ATOM      5  S   UNL     1     145.192  69.742 217.188 -0.17 -0.01    -0.080 S  
DOCKED: ATOM      6  H   UNL     1     146.372  70.884 220.374 -0.33 +0.06    +0.193 HD 
DOCKED: ENDROOT
DOCKED: BRANCH   1   7
DOCKED: ATOM      7  N   UNL     1     145.291  72.289 218.287 -0.44 -0.09    -0.184 NA 
DOCKED: BRANCH   7   8
DOCKED: ATOM      8  C   UNL     1     145.103  73.185 219.407 -0.25 +0.01    +0.251 C  
DOCKED: ATOM      9  O   UNL     1     145.956  73.286 220.319 -0.48 -0.02    -0.272 OA 
DOCKED: BRANCH   8  10
DOCKED: ATOM     10  C   UNL     1     143.854  73.966 219.411 -0.27 -0.02    +0.086 C  
DOCKED: ATOM     11  C   UNL     1     144.043  75.301 220.092 -0.35 -0.01    +0.019 C  
DOCKED: BRANCH  10  12
DOCKED: ATOM     12  C   UNL     1     142.701  73.216 220.033 -0.24 +0.00    -0.001 C  
DOCKED: ATOM     13  C   UNL     1     143.119  72.095 220.929 -0.22 -0.00    +0.014 C  
DOCKED: ATOM     14  C   UNL     1     141.871  74.207 220.848 -0.28 -0.00    +0.014 C  
DOCKED: BRANCH  12  15
DOCKED: ATOM     15  C   UNL     1     141.779  72.689 218.953 -0.04 -0.03    +0.163 C  
DOCKED: BRANCH  15  16
DOCKED: ATOM     16  O   UNL     1     142.309  71.509 218.399 +0.00 +0.05    -0.396 OA 
DOCKED: ATOM     17  H   UNL     1     143.277  71.467 218.445 +0.06 -0.01    +0.210 HD 
DOCKED: ENDBRANCH  15  16
DOCKED: ENDBRANCH  12  15
DOCKED: ENDBRANCH  10  12
DOCKED: ENDBRANCH   8  10
DOCKED: ENDBRANCH   7   8
DOCKED: ENDBRANCH   1   7
DOCKED: BRANCH   4  18
DOCKED: ATOM     18  C   UNL     1     145.876  66.998 217.877 -0.38 -0.03    +0.070 C  
DOCKED: BRANCH  18  19
DOCKED: ATOM     19  C   UNL     1     145.611  66.067 219.039 -0.41 -0.00    +0.008 C  
DOCKED: BRANCH  19  20
DOCKED: ATOM     20  C   UNL     1     144.142  66.052 219.316 -0.33 -0.00    +0.008 C  
DOCKED: BRANCH  20  21
DOCKED: ATOM     21  C   UNL     1     143.304  66.700 218.275 -0.22 -0.04    +0.070 C  
DOCKED: BRANCH  21  22
DOCKED: ATOM     22  C   UNL     1     142.498  67.747 218.993 -0.15 -0.03    +0.116 A  
DOCKED: ATOM     23  N   UNL     1     142.372  68.860 219.268 -0.11 +0.03    -0.167 NA 
DOCKED: ATOM     24  S   UNL     1     140.963  67.014 219.893 -0.14 +0.02    -0.080 S  
DOCKED: ATOM     25  N   UNL     1     141.507  69.508 219.957 -0.04 +0.04    -0.251 N  
DOCKED: ATOM     26  C   UNL     1     140.525  68.734 220.480 -0.04 -0.04    +0.208 A  
DOCKED: ATOM     27  H   UNL     1     141.487  70.556 220.150 +0.04 -0.03    +0.193 HD 
DOCKED: BRANCH  26  28
DOCKED: ATOM     28  N   UNL     1     139.507  68.982 221.203 -0.09 +0.04    -0.183 NA 
DOCKED: BRANCH  28  29
DOCKED: ATOM     29  C   UNL     1     139.477  70.137 222.072 -0.09 -0.04    +0.255 C  
DOCKED: ATOM     30  O   UNL     1     139.897  71.251 221.675 -0.11 +0.04    -0.272 OA 
DOCKED: BRANCH  29  31
DOCKED: ATOM     31  C   UNL     1     138.924  69.919 223.444 -0.22 -0.02    +0.123 C  
DOCKED: ATOM     32  C   UNL     1     138.943  68.435 223.666 -0.15 -0.03    +0.243 C  
DOCKED: ATOM     33  C   UNL     1     139.751  70.721 224.383 -0.39 -0.01    +0.056 C  
DOCKED: ATOM     34  O   UNL     1     138.892  68.076 225.027 -0.54 +0.00    -0.492 OA 
DOCKED: ATOM     35  C   UNL     1     140.007  70.069 225.673 -0.48 +0.00    -0.005 A  
DOCKED: ATOM     36  C   UNL     1     139.599  68.791 225.997 -0.42 -0.02    +0.122 A  
DOCKED: ATOM     37  C   UNL     1     140.703  70.769 226.633 -0.63 -0.00    +0.007 A  
DOCKED: ATOM     38  C   UNL     1     139.853  68.201 227.217 -0.60 -0.01    +0.047 A  
DOCKED: ATOM     39  C   UNL     1     140.979  70.217 227.866 -0.62 -0.00    +0.001 A  
DOCKED: ATOM     40  C   UNL     1     140.552  68.933 228.155 -0.65 -0.00    +0.004 A  
DOCKED: ENDBRANCH  29  31
DOCKED: ENDBRANCH  28  29
DOCKED: ENDBRANCH  26  28
DOCKED: ENDBRANCH  21  22
DOCKED: ENDBRANCH  20  21
DOCKED: ENDBRANCH  19  20
DOCKED: ENDBRANCH  18  19
DOCKED: ENDBRANCH   4  18
DOCKED: TORSDOF 14
DOCKED: TER
DOCKED: ENDMDL
________________________________________________________________________________


    FINAL DOCKED STATE:
    ________________________


Run:   20 / 20
Time taken for this run:   0.088s

DOCKED: MODEL        20
DOCKED: USER    Run = 20
DOCKED: USER
DOCKED: USER    Estimated Free Energy of Binding    =  -7.77 kcal/mol  [=(1)+(2)+(3)-(4)]
DOCKED: USER
DOCKED: USER    (1) Final Intermolecular Energy     = -11.95 kcal/mol
DOCKED: USER        vdW + Hbond + desolv Energy     = -11.83 kcal/mol
DOCKED: USER        Electrostatic Energy            =  -0.11 kcal/mol
DOCKED: USER        Moving Ligand-Fixed Receptor    = -11.95 kcal/mol
DOCKED: USER        Moving Ligand-Moving Receptor   =  +0.00 kcal/mol
DOCKED: USER    (2) Final Total Internal Energy     =  -2.57 kcal/mol
DOCKED: USER    (3) Torsional Free Energy           =  +4.18 kcal/mol
DOCKED: USER    (4) Unbound System's Energy         =  -2.57 kcal/mol
DOCKED: USER
DOCKED: USER
DOCKED: REMARK SMILES C[C@@H](C(=O)/N=c1\[nH]nc(CCCCc2n[nH]/c(=N\C(=O)[C@H]3COc4ccccc4C3)s2)s1)C(C)(C)CO
DOCKED: REMARK SMILES IDX 6 1 7 2 8 3 9 4 32 5 5 7 3 8 4 9 2 10 1 11 33 12 34 13 35 14
DOCKED: REMARK SMILES IDX 36 15 37 16 10 18 11 19 12 20 13 21 14 22 15 23 31 24 16 25
DOCKED: REMARK SMILES IDX 17 26 18 28 19 29 20 30 21 31 22 32 30 33 23 34 29 35 24 36
DOCKED: REMARK SMILES IDX 28 37 25 38 27 39 26 40
DOCKED: REMARK H PARENT 7 6 37 17 16 27
DOCKED: USER                              x       y       z     vdW  Elec       q    Type
DOCKED: USER                           _______ _______ _______ _____ _____    ______ ____
DOCKED: ROOT
DOCKED: ATOM      1  C   UNL     1     137.530  77.270 222.724 -0.18 -0.04    +0.208 A  
DOCKED: ATOM      2  N   UNL     1     137.614  76.020 223.232 -0.13 +0.07    -0.251 N  
DOCKED: ATOM      3  N   UNL     1     136.574  75.631 223.865 -0.16 +0.05    -0.167 NA 
DOCKED: ATOM      4  C   UNL     1     135.551  76.124 224.108 -0.19 -0.02    +0.116 A  
DOCKED: ATOM      5  S   UNL     1     135.824  77.828 223.243 -0.16 +0.01    -0.080 S  
DOCKED: ATOM      6  H   UNL     1     138.513  75.465 223.072 -0.36 -0.07    +0.193 HD 
DOCKED: ENDROOT
DOCKED: BRANCH   1   7
DOCKED: ATOM      7  N   UNL     1     138.325  77.999 222.052 -0.13 +0.03    -0.184 NA 
DOCKED: BRANCH   7   8
DOCKED: ATOM      8  C   UNL     1     139.740  77.705 221.997 -0.21 -0.06    +0.251 C  
DOCKED: ATOM      9  O   UNL     1     140.199  76.603 222.380 -0.31 +0.06    -0.272 OA 
DOCKED: BRANCH   8  10
DOCKED: ATOM     10  C   UNL     1     140.605  78.773 221.465 -0.26 -0.03    +0.086 C  
DOCKED: ATOM     11  C   UNL     1     141.787  78.202 220.718 -0.32 -0.01    +0.019 C  
DOCKED: BRANCH  10  12
DOCKED: ATOM     12  C   UNL     1     141.069  79.731 222.535 -0.46 +0.00    -0.001 C  
DOCKED: ATOM     13  C   UNL     1     142.437  80.287 222.299 -0.55 -0.01    +0.014 C  
DOCKED: ATOM     14  C   UNL     1     140.076  80.891 222.601 -0.35 -0.00    +0.014 C  
DOCKED: BRANCH  12  15
DOCKED: ATOM     15  C   UNL     1     141.018  79.061 223.892 -0.38 -0.03    +0.163 C  
DOCKED: BRANCH  15  16
DOCKED: ATOM     16  O   UNL     1     141.986  78.042 223.964 -0.27 +0.14    -0.396 OA 
DOCKED: ATOM     17  H   UNL     1     141.973  77.447 223.198 -0.24 -0.13    +0.210 HD 
DOCKED: ENDBRANCH  15  16
DOCKED: ENDBRANCH  12  15
DOCKED: ENDBRANCH  10  12
DOCKED: ENDBRANCH   8  10
DOCKED: ENDBRANCH   7   8
DOCKED: ENDBRANCH   1   7
DOCKED: BRANCH   4  18
DOCKED: ATOM     18  C   UNL     1     134.220  75.946 224.778 -0.24 -0.01    +0.070 C  
DOCKED: BRANCH  18  19
DOCKED: ATOM     19  C   UNL     1     134.318  74.776 225.731 -0.38 -0.00    +0.008 C  
DOCKED: BRANCH  19  20
DOCKED: ATOM     20  C   UNL     1     133.072  73.959 225.618 -0.26 -0.00    +0.008 C  
DOCKED: BRANCH  20  21
DOCKED: ATOM     21  C   UNL     1     133.271  72.587 225.084 -0.17 -0.01    +0.070 C  
DOCKED: BRANCH  21  22
DOCKED: ATOM     22  C   UNL     1     134.574  72.625 224.336 -0.16 -0.01    +0.116 A  
DOCKED: ATOM     23  N   UNL     1     135.461  73.256 223.956 -0.17 +0.04    -0.167 NA 
DOCKED: ATOM     24  S   UNL     1     135.095  70.898 223.663 -0.15 +0.01    -0.080 S  
DOCKED: ATOM     25  N   UNL     1     136.518  72.983 223.284 -0.03 +0.09    -0.251 N  
DOCKED: ATOM     26  C   UNL     1     136.631  71.678 222.938 -0.11 -0.05    +0.208 A  
DOCKED: ATOM     27  H   UNL     1     137.286  73.659 222.984 -0.43 -0.10    +0.193 HD 
DOCKED: BRANCH  26  28
DOCKED: ATOM     28  N   UNL     1     137.504  71.018 222.290 -0.07 +0.04    -0.183 NA 
DOCKED: BRANCH  28  29
DOCKED: ATOM     29  C   UNL     1     138.698  70.525 222.941 -0.15 -0.05    +0.255 C  
DOCKED: ATOM     30  O   UNL     1     139.824  70.665 222.406 -0.13 +0.04    -0.272 OA 
DOCKED: BRANCH  29  31
DOCKED: ATOM     31  C   UNL     1     138.504  69.853 224.261 -0.27 -0.02    +0.123 C  
DOCKED: ATOM     32  C   UNL     1     138.956  68.434 224.073 -0.18 -0.03    +0.243 C  
DOCKED: ATOM     33  C   UNL     1     139.260  70.640 225.270 -0.30 -0.01    +0.056 C  
DOCKED: ATOM     34  O   UNL     1     139.270  67.786 225.283 -0.66 +0.02    -0.492 OA 
DOCKED: ATOM     35  C   UNL     1     139.928  69.829 226.295 -0.51 +0.00    -0.005 A  
DOCKED: ATOM     36  C   UNL     1     139.942  68.449 226.313 -0.49 -0.02    +0.122 A  
DOCKED: ATOM     37  C   UNL     1     140.591  70.477 227.313 -0.63 -0.00    +0.007 A  
DOCKED: ATOM     38  C   UNL     1     140.577  67.710 227.289 -0.55 -0.01    +0.047 A  
DOCKED: ATOM     39  C   UNL     1     141.239  69.778 228.308 -0.51 -0.00    +0.001 A  
DOCKED: ATOM     40  C   UNL     1     141.231  68.394 228.293 -0.60 -0.00    +0.004 A  
DOCKED: ENDBRANCH  29  31
DOCKED: ENDBRANCH  28  29
DOCKED: ENDBRANCH  26  28
DOCKED: ENDBRANCH  21  22
DOCKED: ENDBRANCH  20  21
DOCKED: ENDBRANCH  19  20
DOCKED: ENDBRANCH  18  19
DOCKED: ENDBRANCH   4  18
DOCKED: TORSDOF 14
DOCKED: TER
DOCKED: ENDMDL
________________________________________________________________________________


    CLUSTERING HISTOGRAM
    ____________________


________________________________________________________________________________
     |           |     |           |     |
Clus | Lowest    | Run | Mean      | Num | Histogram
-ter | Binding   |     | Binding   | in  |
Rank | Energy    |     | Energy    | Clus|    5    10   15   20   25   30   35
_____|___________|_____|___________|_____|____:____|____:____|____:____|____:___
   1 |     -7.77 |  20 |     -7.77 |   1 |#
   2 |     -7.63 |  15 |     -7.63 |   1 |#
   3 |     -7.47 |   4 |     -7.47 |   1 |#
   4 |     -7.08 |   9 |     -7.08 |   1 |#
   5 |     -7.02 |   8 |     -7.02 |   1 |#
   6 |     -7.00 |  19 |     -7.00 |   1 |#
   7 |     -6.98 |  14 |     -6.98 |   1 |#
   8 |     -5.92 |  16 |     -5.92 |   1 |#
   9 |     -5.49 |   1 |     -4.81 |   2 |##
  10 |     -5.36 |   2 |     -5.36 |   1 |#
  11 |     -5.33 |   5 |     -5.33 |   1 |#
  12 |     -5.20 |  11 |     -4.69 |   2 |##
  13 |     -5.10 |   7 |     -5.10 |   1 |#
  14 |     -5.09 |  12 |     -5.09 |   1 |#
  15 |     -4.87 |  17 |     -4.87 |   1 |#
  16 |     -4.38 |  18 |     -4.38 |   1 |#
  17 |     -4.07 |  13 |     -4.07 |   1 |#
  18 |     -2.79 |   3 |     -2.79 |   1 |#
_____|___________|_____|___________|_____|______________________________________


    RMSD TABLE
    __________


_______________________________________________________________________
     |      |      |           |         |                 |
Rank | Sub- | Run  | Binding   | Cluster | Reference       | Grep
     | Rank |      | Energy    | RMSD    | RMSD            | Pattern
_____|______|______|___________|_________|_________________|___________
   1      1     20       -7.77      0.00    269.77           RANKING
   2      1     15       -7.63      0.00    269.44           RANKING
   3      1      4       -7.47      0.00    269.21           RANKING
   4      1      9       -7.08      0.00    269.59           RANKING
   5      1      8       -7.02      0.00    269.15           RANKING
   6      1     19       -7.00      0.00    268.48           RANKING
   7      1     14       -6.98      0.00    269.11           RANKING
   8      1     16       -5.92      0.00    269.72           RANKING
   9      1      1       -5.49      0.00    269.37           RANKING
   9      2      6       -4.13      1.58    269.09           RANKING
  10      1      2       -5.36      0.00    268.92           RANKING
  11      1      5       -5.33      0.00    269.26           RANKING
  12      1     11       -5.20      0.00    270.11           RANKING
  12      2     10       -4.19      0.94    269.81           RANKING
  13      1      7       -5.10      0.00    268.26           RANKING
  14      1     12       -5.09      0.00    268.79           RANKING
  15      1     17       -4.87      0.00    268.71           RANKING
  16      1     18       -4.38      0.00    269.07           RANKING
  17      1     13       -4.07      0.00    268.58           RANKING
  18      1      3       -2.79      0.00    268.53           RANKING

Run time 1.670 sec
Idle time 0.000 sec
