AutoDock-GPU version: v1.6

**********************************************************
**    AutoDock-GPU AUTODOCKTOOLS-COMPATIBLE DLG FILE    **
**********************************************************


    DOCKING PARAMETERS
    ________________________


Ligand file:                               /home/a/REINVENT4/ReinventStudies/scoringData/graph-dock-34dfml/graph-DockGPU/node-autodockgpu/inputs/AMYMGDKGSBDGMC-OUKHWZIZNA-M.pdbqt
Grid fld file:                             /home/a/REINVENT4/ReinventStudies/mols/Rad51/maps/rad51_receptor.maps.fld

Random seed:                               42
Number of runs:                            20
Number of energy evaluations:              2040163
Number of generations:                     42000
Size of population:                        150
Rate of crossover:                         80.000000%
Tournament selection probability limit:    60.000000%
Rate of mutation:                          2.000000%
Maximal allowed delta movement:            +/- 6.000000A
Maximal allowed delta angle:               +/- 90.000000

Rate of local search:                      100.000000%
Maximal number of local search iterations: 300
Rho lower bound:                           0.010000
Spread of local search delta movement:     2.000000A
Spread of local search delta angle:        74.999999
Limit of consecutive successes/failures:   4

Handle symmetry during clustering:         YES
RMSD tolerance:                            2.000000A

Program call in command line was:          /home/a/REINVENT4/ReinventStudies/adgpu-v1.6_linux_x64_cuda12_128wi --filelist batch.txt --heuristics 1 --nrun 20 --psize 150 --lsit 300 --seed 42 --heurmax 12000000 


    GRID PARAMETERS
    ________________________


Receptor name:                             rad51_receptor
Number of grid points (x, y, z):           53, 53, 53
Grid center (x, y, z):                     139.950000, 75.640000, 221.970000A
Grid size (x, y, z):                       19.500000, 19.500000, 19.500000A
Grid spacing:                              0.375000A


    LIGAND PARAMETERS
    ________________________


Ligand name:                               /home/a/REINVENT4/ReinventStudies/scoringData/graph-dock-34dfml/graph-DockGPU/node-autodockgpu/inputs/AMYMGDKGSBDGMC-OUKHWZIZNA-M
Number of atoms:                           24
Number of rotatable bonds:                 9
Number of atom types:                      6


    DUMMY DATA (only for ADT-compatibility)
    ________________________


DPF> outlev 1
DPF> ga_run 20
DPF> fld /home/a/REINVENT4/ReinventStudies/mols/Rad51/maps/rad51_receptor.maps.fld
DPF> move /home/a/REINVENT4/ReinventStudies/scoringData/graph-dock-34dfml/graph-DockGPU/node-autodockgpu/inputs/AMYMGDKGSBDGMC-OUKHWZIZNA-M.pdbqt


    COUNTER STATES
    ________________________


Number of energy evaluations performed:    2002688
Number of generations used:                100


    INPUT LIGAND PDBQT FILE:
    ________________________


INPUT-LIGAND-PDBQT: REMARK SMILES O=C(CCCOc1ccc(Cl)cc1Cl)[N-]/N=C\c1cccnc1F
INPUT-LIGAND-PDBQT: REMARK SMILES IDX 2 1 1 2 15 3 16 4 17 5 18 6 23 7 19 8 22 9 20 10 21 11 24 12
INPUT-LIGAND-PDBQT: REMARK SMILES IDX 3 13 4 14 5 15 6 16 7 17 8 18 13 19 9 20 12 21 10 22 14 23
INPUT-LIGAND-PDBQT: REMARK SMILES IDX 11 24
INPUT-LIGAND-PDBQT: REMARK H PARENT
INPUT-LIGAND-PDBQT: ROOT
INPUT-LIGAND-PDBQT: ATOM      1  C   UNL     1      -0.035  -2.649   2.024  1.00  0.00     0.068 C 
INPUT-LIGAND-PDBQT: ATOM      2  O   UNL     1      -0.460  -2.505   3.200  1.00  0.00    -0.319 OA
INPUT-LIGAND-PDBQT: ENDROOT
INPUT-LIGAND-PDBQT: BRANCH   1   3
INPUT-LIGAND-PDBQT: ATOM      3  N   UNL     1       0.786  -1.628   1.452  1.00  0.00    -0.545 NA
INPUT-LIGAND-PDBQT: BRANCH   3   4
INPUT-LIGAND-PDBQT: ATOM      4  N   UNL     1       1.242  -1.699   0.128  1.00  0.00    -0.372 NA
INPUT-LIGAND-PDBQT: BRANCH   4   5
INPUT-LIGAND-PDBQT: ATOM      5  C   UNL     1       1.953  -0.770  -0.438  1.00  0.00     0.099 C 
INPUT-LIGAND-PDBQT: BRANCH   5   6
INPUT-LIGAND-PDBQT: ATOM      6  C   UNL     1       2.356   0.490   0.230  1.00  0.00     0.046 A 
INPUT-LIGAND-PDBQT: ATOM      7  C   UNL     1       3.623   1.040  -0.034  1.00  0.00     0.221 A 
INPUT-LIGAND-PDBQT: ATOM      8  C   UNL     1       1.480   1.206   1.064  1.00  0.00     0.016 A 
INPUT-LIGAND-PDBQT: ATOM      9  N   UNL     1       3.993   2.216   0.541  1.00  0.00    -0.228 NA
INPUT-LIGAND-PDBQT: ATOM     10  C   UNL     1       1.885   2.411   1.638  1.00  0.00     0.021 A 
INPUT-LIGAND-PDBQT: ATOM     11  C   UNL     1       3.161   2.903   1.367  1.00  0.00     0.114 A 
INPUT-LIGAND-PDBQT: ATOM     12  F   UNL     1       4.496   0.400  -0.852  1.00  0.00    -0.184 F 
INPUT-LIGAND-PDBQT: ENDBRANCH   5   6
INPUT-LIGAND-PDBQT: ENDBRANCH   4   5
INPUT-LIGAND-PDBQT: ENDBRANCH   3   4
INPUT-LIGAND-PDBQT: ENDBRANCH   1   3
INPUT-LIGAND-PDBQT: BRANCH   1  13
INPUT-LIGAND-PDBQT: ATOM     13  C   UNL     1      -0.427  -3.875   1.243  1.00  0.00     0.060 C 
INPUT-LIGAND-PDBQT: BRANCH  13  14
INPUT-LIGAND-PDBQT: ATOM     14  C   UNL     1      -1.828  -3.751   0.621  1.00  0.00     0.048 C 
INPUT-LIGAND-PDBQT: BRANCH  14  15
INPUT-LIGAND-PDBQT: ATOM     15  C   UNL     1      -1.908  -2.668  -0.460  1.00  0.00     0.230 C 
INPUT-LIGAND-PDBQT: BRANCH  15  16
INPUT-LIGAND-PDBQT: ATOM     16  O   UNL     1      -1.998  -1.383   0.151  1.00  0.00    -0.492 OA
INPUT-LIGAND-PDBQT: BRANCH  16  17
INPUT-LIGAND-PDBQT: ATOM     17  C   UNL     1      -1.938  -0.161  -0.534  1.00  0.00     0.137 A 
INPUT-LIGAND-PDBQT: ATOM     18  C   UNL     1      -1.693  -0.087  -1.920  1.00  0.00     0.049 A 
INPUT-LIGAND-PDBQT: ATOM     19  C   UNL     1      -2.114   1.028   0.193  1.00  0.00     0.084 A 
INPUT-LIGAND-PDBQT: ATOM     20  C   UNL     1      -1.602   1.156  -2.554  1.00  0.00     0.024 A 
INPUT-LIGAND-PDBQT: ATOM     21  C   UNL     1      -2.021   2.268  -0.447  1.00  0.00     0.045 A 
INPUT-LIGAND-PDBQT: ATOM     22  C   UNL     1      -1.761   2.333  -1.819  1.00  0.00     0.042 A 
INPUT-LIGAND-PDBQT: ATOM     23  Cl  UNL     1      -2.442   0.974   1.919  1.00  0.00    -0.080 Cl
INPUT-LIGAND-PDBQT: ATOM     24  Cl  UNL     1      -1.639   3.890  -2.616  1.00  0.00    -0.084 Cl
INPUT-LIGAND-PDBQT: ENDBRANCH  16  17
INPUT-LIGAND-PDBQT: ENDBRANCH  15  16
INPUT-LIGAND-PDBQT: ENDBRANCH  14  15
INPUT-LIGAND-PDBQT: ENDBRANCH  13  14
INPUT-LIGAND-PDBQT: ENDBRANCH   1  13
INPUT-LIGAND-PDBQT: TORSDOF 9


    FINAL DOCKED STATE:
    ________________________


Run:   1 / 20
Time taken for this run:   0.074s

DOCKED: MODEL        1
DOCKED: USER    Run = 1
DOCKED: USER
DOCKED: USER    Estimated Free Energy of Binding    =  -6.29 kcal/mol  [=(1)+(2)+(3)-(4)]
DOCKED: USER
DOCKED: USER    (1) Final Intermolecular Energy     =  -8.98 kcal/mol
DOCKED: USER        vdW + Hbond + desolv Energy     =  -8.99 kcal/mol
DOCKED: USER        Electrostatic Energy            =  +0.01 kcal/mol
DOCKED: USER        Moving Ligand-Fixed Receptor    =  -8.98 kcal/mol
DOCKED: USER        Moving Ligand-Moving Receptor   =  +0.00 kcal/mol
DOCKED: USER    (2) Final Total Internal Energy     =  -0.91 kcal/mol
DOCKED: USER    (3) Torsional Free Energy           =  +2.68 kcal/mol
DOCKED: USER    (4) Unbound System's Energy         =  -0.91 kcal/mol
DOCKED: USER
DOCKED: USER
DOCKED: REMARK SMILES O=C(CCCOc1ccc(Cl)cc1Cl)[N-]/N=C\c1cccnc1F
DOCKED: REMARK SMILES IDX 2 1 1 2 15 3 16 4 17 5 18 6 23 7 19 8 22 9 20 10 21 11 24 12
DOCKED: REMARK SMILES IDX 3 13 4 14 5 15 6 16 7 17 8 18 13 19 9 20 12 21 10 22 14 23
DOCKED: REMARK SMILES IDX 11 24
DOCKED: REMARK H PARENT
DOCKED: USER                              x       y       z     vdW  Elec       q    Type
DOCKED: USER                           _______ _______ _______ _____ _____    ______ ____
DOCKED: ROOT
DOCKED: ATOM      1  C   UNL     1     137.878  69.142 224.539 -0.29 -0.01    +0.068 C  
DOCKED: ATOM      2  O   UNL     1     136.740  68.890 225.014 -0.18 +0.00    -0.319 OA 
DOCKED: ENDROOT
DOCKED: BRANCH   1   3
DOCKED: ATOM      3  N   UNL     1     138.897  68.142 224.609 -0.38 +0.02    -0.545 NA 
DOCKED: BRANCH   3   4
DOCKED: ATOM      4  N   UNL     1     139.204  67.479 225.806 -0.74 -0.00    -0.372 NA 
DOCKED: BRANCH   4   5
DOCKED: ATOM      5  C   UNL     1     140.084  67.909 226.660 -0.59 -0.02    +0.099 C  
DOCKED: BRANCH   5   6
DOCKED: ATOM      6  C   UNL     1     140.387  69.341 226.891 -0.54 -0.01    +0.046 A  
DOCKED: ATOM      7  C   UNL     1     139.970  69.954 228.086 -0.43 -0.04    +0.221 A  
DOCKED: ATOM      8  C   UNL     1     141.152  70.098 225.986 -0.53 -0.00    +0.016 A  
DOCKED: ATOM      9  N   UNL     1     140.273  71.257 228.330 -0.46 +0.05    -0.228 NA 
DOCKED: ATOM     10  C   UNL     1     141.450  71.432 226.264 -0.64 -0.00    +0.021 A  
DOCKED: ATOM     11  C   UNL     1     140.993  72.003 227.451 -0.71 -0.02    +0.114 A  
DOCKED: ATOM     12  F   UNL     1     139.250  69.259 229.002 -0.15 +0.02    -0.184 F  
DOCKED: ENDBRANCH   5   6
DOCKED: ENDBRANCH   4   5
DOCKED: ENDBRANCH   3   4
DOCKED: ENDBRANCH   1   3
DOCKED: BRANCH   1  13
DOCKED: ATOM     13  C   UNL     1     138.144  70.498 223.941 -0.26 -0.01    +0.060 C  
DOCKED: BRANCH  13  14
DOCKED: ATOM     14  C   UNL     1     139.444  70.532 223.120 -0.26 -0.01    +0.048 C  
DOCKED: BRANCH  14  15
DOCKED: ATOM     15  C   UNL     1     140.154  71.889 223.181 -0.25 -0.03    +0.230 C  
DOCKED: BRANCH  15  16
DOCKED: ATOM     16  O   UNL     1     139.675  72.730 222.135 -0.23 +0.09    -0.492 OA 
DOCKED: BRANCH  16  17
DOCKED: ATOM     17  C   UNL     1     140.092  74.050 221.911 -0.21 -0.01    +0.137 A  
DOCKED: ATOM     18  C   UNL     1     139.325  75.160 222.318 -0.24 -0.01    +0.049 A  
DOCKED: ATOM     19  C   UNL     1     141.308  74.269 221.244 -0.26 -0.01    +0.084 A  
DOCKED: ATOM     20  C   UNL     1     139.760  76.459 222.038 -0.34 -0.01    +0.024 A  
DOCKED: ATOM     21  C   UNL     1     141.738  75.570 220.965 -0.25 -0.02    +0.045 A  
DOCKED: ATOM     22  C   UNL     1     140.963  76.665 221.358 -0.32 -0.02    +0.042 A  
DOCKED: ATOM     23  Cl  UNL     1     142.302  72.909 220.739 -0.31 +0.01    -0.080 Cl 
DOCKED: ATOM     24  Cl  UNL     1     141.503  78.295 221.002 -0.41 +0.04    -0.084 Cl 
DOCKED: ENDBRANCH  16  17
DOCKED: ENDBRANCH  15  16
DOCKED: ENDBRANCH  14  15
DOCKED: ENDBRANCH  13  14
DOCKED: ENDBRANCH   1  13
DOCKED: TORSDOF 9
DOCKED: TER
DOCKED: ENDMDL
________________________________________________________________________________


    FINAL DOCKED STATE:
    ________________________


Run:   2 / 20
Time taken for this run:   0.074s

DOCKED: MODEL        2
DOCKED: USER    Run = 2
DOCKED: USER
DOCKED: USER    Estimated Free Energy of Binding    =  -6.50 kcal/mol  [=(1)+(2)+(3)-(4)]
DOCKED: USER
DOCKED: USER    (1) Final Intermolecular Energy     =  -9.19 kcal/mol
DOCKED: USER        vdW + Hbond + desolv Energy     =  -9.17 kcal/mol
DOCKED: USER        Electrostatic Energy            =  -0.01 kcal/mol
DOCKED: USER        Moving Ligand-Fixed Receptor    =  -9.19 kcal/mol
DOCKED: USER        Moving Ligand-Moving Receptor   =  +0.00 kcal/mol
DOCKED: USER    (2) Final Total Internal Energy     =  -1.04 kcal/mol
DOCKED: USER    (3) Torsional Free Energy           =  +2.68 kcal/mol
DOCKED: USER    (4) Unbound System's Energy         =  -1.04 kcal/mol
DOCKED: USER
DOCKED: USER
DOCKED: REMARK SMILES O=C(CCCOc1ccc(Cl)cc1Cl)[N-]/N=C\c1cccnc1F
DOCKED: REMARK SMILES IDX 2 1 1 2 15 3 16 4 17 5 18 6 23 7 19 8 22 9 20 10 21 11 24 12
DOCKED: REMARK SMILES IDX 3 13 4 14 5 15 6 16 7 17 8 18 13 19 9 20 12 21 10 22 14 23
DOCKED: REMARK SMILES IDX 11 24
DOCKED: REMARK H PARENT
DOCKED: USER                              x       y       z     vdW  Elec       q    Type
DOCKED: USER                           _______ _______ _______ _____ _____    ______ ____
DOCKED: ROOT
DOCKED: ATOM      1  C   UNL     1     138.431  68.761 223.861 -0.28 -0.01    +0.068 C  
DOCKED: ATOM      2  O   UNL     1     137.174  68.694 223.875 -0.12 +0.02    -0.319 OA 
DOCKED: ENDROOT
DOCKED: BRANCH   1   3
DOCKED: ATOM      3  N   UNL     1     139.189  67.729 224.498 -0.47 +0.03    -0.545 NA 
DOCKED: BRANCH   3   4
DOCKED: ATOM      4  N   UNL     1     139.190  67.562 225.890 -0.71 +0.00    -0.372 NA 
DOCKED: BRANCH   4   5
DOCKED: ATOM      5  C   UNL     1     140.135  68.004 226.665 -0.59 -0.02    +0.099 C  
DOCKED: BRANCH   5   6
DOCKED: ATOM      6  C   UNL     1     140.435  69.441 226.873 -0.53 -0.01    +0.046 A  
DOCKED: ATOM      7  C   UNL     1     140.067  70.058 228.081 -0.43 -0.04    +0.221 A  
DOCKED: ATOM      8  C   UNL     1     141.152  70.197 225.930 -0.54 -0.00    +0.016 A  
DOCKED: ATOM      9  N   UNL     1     140.370  71.366 228.303 -0.47 +0.05    -0.228 NA 
DOCKED: ATOM     10  C   UNL     1     141.451  71.535 226.184 -0.64 -0.00    +0.021 A  
DOCKED: ATOM     11  C   UNL     1     141.042  72.111 227.386 -0.71 -0.02    +0.114 A  
DOCKED: ATOM     12  F   UNL     1     139.395  69.364 229.034 -0.15 +0.02    -0.184 F  
DOCKED: ENDBRANCH   5   6
DOCKED: ENDBRANCH   4   5
DOCKED: ENDBRANCH   3   4
DOCKED: ENDBRANCH   1   3
DOCKED: BRANCH   1  13
DOCKED: ATOM     13  C   UNL     1     139.100  69.939 223.204 -0.23 -0.01    +0.060 C  
DOCKED: BRANCH  13  14
DOCKED: ATOM     14  C   UNL     1     138.306  71.243 223.389 -0.23 -0.01    +0.048 C  
DOCKED: BRANCH  14  15
DOCKED: ATOM     15  C   UNL     1     138.623  72.292 222.319 -0.13 -0.06    +0.230 C  
DOCKED: BRANCH  15  16
DOCKED: ATOM     16  O   UNL     1     139.801  73.009 222.681 -0.56 +0.08    -0.492 OA 
DOCKED: BRANCH  16  17
DOCKED: ATOM     17  C   UNL     1     140.977  73.063 221.918 -0.22 -0.01    +0.137 A  
DOCKED: ATOM     18  C   UNL     1     141.721  71.908 221.603 -0.19 -0.00    +0.049 A  
DOCKED: ATOM     19  C   UNL     1     141.431  74.313 221.468 -0.20 -0.01    +0.084 A  
DOCKED: ATOM     20  C   UNL     1     142.909  72.014 220.873 -0.26 -0.00    +0.024 A  
DOCKED: ATOM     21  C   UNL     1     142.621  74.412 220.739 -0.27 -0.01    +0.045 A  
DOCKED: ATOM     22  C   UNL     1     143.362  73.264 220.445 -0.31 -0.01    +0.042 A  
DOCKED: ATOM     23  Cl  UNL     1     140.517  75.772 221.824 -0.43 +0.02    -0.080 Cl 
DOCKED: ATOM     24  Cl  UNL     1     144.856  73.394 219.536 -0.51 +0.01    -0.084 Cl 
DOCKED: ENDBRANCH  16  17
DOCKED: ENDBRANCH  15  16
DOCKED: ENDBRANCH  14  15
DOCKED: ENDBRANCH  13  14
DOCKED: ENDBRANCH   1  13
DOCKED: TORSDOF 9
DOCKED: TER
DOCKED: ENDMDL
________________________________________________________________________________


    FINAL DOCKED STATE:
    ________________________


Run:   3 / 20
Time taken for this run:   0.074s

DOCKED: MODEL        3
DOCKED: USER    Run = 3
DOCKED: USER
DOCKED: USER    Estimated Free Energy of Binding    =  -5.88 kcal/mol  [=(1)+(2)+(3)-(4)]
DOCKED: USER
DOCKED: USER    (1) Final Intermolecular Energy     =  -8.56 kcal/mol
DOCKED: USER        vdW + Hbond + desolv Energy     =  -8.53 kcal/mol
DOCKED: USER        Electrostatic Energy            =  -0.04 kcal/mol
DOCKED: USER        Moving Ligand-Fixed Receptor    =  -8.56 kcal/mol
DOCKED: USER        Moving Ligand-Moving Receptor   =  +0.00 kcal/mol
DOCKED: USER    (2) Final Total Internal Energy     =  -0.95 kcal/mol
DOCKED: USER    (3) Torsional Free Energy           =  +2.68 kcal/mol
DOCKED: USER    (4) Unbound System's Energy         =  -0.95 kcal/mol
DOCKED: USER
DOCKED: USER
DOCKED: REMARK SMILES O=C(CCCOc1ccc(Cl)cc1Cl)[N-]/N=C\c1cccnc1F
DOCKED: REMARK SMILES IDX 2 1 1 2 15 3 16 4 17 5 18 6 23 7 19 8 22 9 20 10 21 11 24 12
DOCKED: REMARK SMILES IDX 3 13 4 14 5 15 6 16 7 17 8 18 13 19 9 20 12 21 10 22 14 23
DOCKED: REMARK SMILES IDX 11 24
DOCKED: REMARK H PARENT
DOCKED: USER                              x       y       z     vdW  Elec       q    Type
DOCKED: USER                           _______ _______ _______ _____ _____    ______ ____
DOCKED: ROOT
DOCKED: ATOM      1  C   UNL     1     138.825  68.249 224.177 -0.28 -0.01    +0.068 C  
DOCKED: ATOM      2  O   UNL     1     138.951  67.204 223.487 -0.38 +0.03    -0.319 OA 
DOCKED: ENDROOT
DOCKED: BRANCH   1   3
DOCKED: ATOM      3  N   UNL     1     138.475  68.131 225.559 -0.32 -0.02    -0.545 NA 
DOCKED: BRANCH   3   4
DOCKED: ATOM      4  N   UNL     1     139.294  67.457 226.475 -0.49 +0.03    -0.372 NA 
DOCKED: BRANCH   4   5
DOCKED: ATOM      5  C   UNL     1     140.334  67.994 227.041 -0.59 -0.02    +0.099 C  
DOCKED: BRANCH   5   6
DOCKED: ATOM      6  C   UNL     1     140.510  69.452 227.241 -0.56 -0.01    +0.046 A  
DOCKED: ATOM      7  C   UNL     1     141.323  70.180 226.354 -0.35 -0.04    +0.221 A  
DOCKED: ATOM      8  C   UNL     1     139.824  70.155 228.246 -0.60 -0.00    +0.016 A  
DOCKED: ATOM      9  N   UNL     1     141.464  71.525 226.501 -0.44 +0.03    -0.228 NA 
DOCKED: ATOM     10  C   UNL     1     139.985  71.535 228.371 -0.63 -0.00    +0.021 A  
DOCKED: ATOM     11  C   UNL     1     140.823  72.210 227.484 -0.67 -0.03    +0.114 A  
DOCKED: ATOM     12  F   UNL     1     141.987  69.550 225.352 -0.05 +0.03    -0.184 F  
DOCKED: ENDBRANCH   5   6
DOCKED: ENDBRANCH   4   5
DOCKED: ENDBRANCH   3   4
DOCKED: ENDBRANCH   1   3
DOCKED: BRANCH   1  13
DOCKED: ATOM     13  C   UNL     1     139.016  69.592 223.524 -0.25 -0.01    +0.060 C  
DOCKED: BRANCH  13  14
DOCKED: ATOM     14  C   UNL     1     138.282  70.717 224.273 -0.27 -0.01    +0.048 C  
DOCKED: BRANCH  14  15
DOCKED: ATOM     15  C   UNL     1     137.120  71.311 223.469 -0.14 -0.05    +0.230 C  
DOCKED: BRANCH  15  16
DOCKED: ATOM     16  O   UNL     1     135.881  70.939 224.068 -0.04 +0.07    -0.492 OA 
DOCKED: BRANCH  16  17
DOCKED: ATOM     17  C   UNL     1     135.050  71.801 224.798 -0.13 -0.01    +0.137 A  
DOCKED: ATOM     18  C   UNL     1     135.043  73.195 224.589 -0.24 -0.01    +0.049 A  
DOCKED: ATOM     19  C   UNL     1     134.209  71.254 225.781 -0.24 -0.00    +0.084 A  
DOCKED: ATOM     20  C   UNL     1     134.227  74.020 225.369 -0.31 -0.00    +0.024 A  
DOCKED: ATOM     21  C   UNL     1     133.396  72.085 226.558 -0.37 -0.00    +0.045 A  
DOCKED: ATOM     22  C   UNL     1     133.408  73.468 226.356 -0.33 +0.00    +0.042 A  
DOCKED: ATOM     23  Cl  UNL     1     134.176  69.518 226.056 -0.36 +0.00    -0.080 Cl 
DOCKED: ATOM     24  Cl  UNL     1     132.391  74.506 227.337 -0.49 +0.00    -0.084 Cl 
DOCKED: ENDBRANCH  16  17
DOCKED: ENDBRANCH  15  16
DOCKED: ENDBRANCH  14  15
DOCKED: ENDBRANCH  13  14
DOCKED: ENDBRANCH   1  13
DOCKED: TORSDOF 9
DOCKED: TER
DOCKED: ENDMDL
________________________________________________________________________________


    FINAL DOCKED STATE:
    ________________________


Run:   4 / 20
Time taken for this run:   0.074s

DOCKED: MODEL        4
DOCKED: USER    Run = 4
DOCKED: USER
DOCKED: USER    Estimated Free Energy of Binding    =  -6.32 kcal/mol  [=(1)+(2)+(3)-(4)]
DOCKED: USER
DOCKED: USER    (1) Final Intermolecular Energy     =  -9.01 kcal/mol
DOCKED: USER        vdW + Hbond + desolv Energy     =  -9.11 kcal/mol
DOCKED: USER        Electrostatic Energy            =  +0.11 kcal/mol
DOCKED: USER        Moving Ligand-Fixed Receptor    =  -9.01 kcal/mol
DOCKED: USER        Moving Ligand-Moving Receptor   =  +0.00 kcal/mol
DOCKED: USER    (2) Final Total Internal Energy     =  -0.63 kcal/mol
DOCKED: USER    (3) Torsional Free Energy           =  +2.68 kcal/mol
DOCKED: USER    (4) Unbound System's Energy         =  -0.63 kcal/mol
DOCKED: USER
DOCKED: USER
DOCKED: REMARK SMILES O=C(CCCOc1ccc(Cl)cc1Cl)[N-]/N=C\c1cccnc1F
DOCKED: REMARK SMILES IDX 2 1 1 2 15 3 16 4 17 5 18 6 23 7 19 8 22 9 20 10 21 11 24 12
DOCKED: REMARK SMILES IDX 3 13 4 14 5 15 6 16 7 17 8 18 13 19 9 20 12 21 10 22 14 23
DOCKED: REMARK SMILES IDX 11 24
DOCKED: REMARK H PARENT
DOCKED: USER                              x       y       z     vdW  Elec       q    Type
DOCKED: USER                           _______ _______ _______ _____ _____    ______ ____
DOCKED: ROOT
DOCKED: ATOM      1  C   UNL     1     139.529  73.797 221.961 -0.24 -0.01    +0.068 C  
DOCKED: ATOM      2  O   UNL     1     140.426  74.669 222.102 -0.71 +0.01    -0.319 OA 
DOCKED: ENDROOT
DOCKED: BRANCH   1   3
DOCKED: ATOM      3  N   UNL     1     139.838  72.430 222.241 -0.15 +0.09    -0.545 NA 
DOCKED: BRANCH   3   4
DOCKED: ATOM      4  N   UNL     1     139.685  71.883 223.523 -0.18 +0.09    -0.372 NA 
DOCKED: BRANCH   4   5
DOCKED: ATOM      5  C   UNL     1     140.678  71.462 224.248 -0.35 -0.01    +0.099 C  
DOCKED: BRANCH   5   6
DOCKED: ATOM      6  C   UNL     1     140.564  71.096 225.679 -0.55 -0.01    +0.046 A  
DOCKED: ATOM      7  C   UNL     1     139.993  69.861 226.036 -0.33 -0.04    +0.221 A  
DOCKED: ATOM      8  C   UNL     1     141.083  71.909 226.702 -0.74 -0.00    +0.016 A  
DOCKED: ATOM      9  N   UNL     1     139.916  69.493 227.343 -0.33 +0.04    -0.228 NA 
DOCKED: ATOM     10  C   UNL     1     140.994  71.505 228.034 -0.78 -0.00    +0.021 A  
DOCKED: ATOM     11  C   UNL     1     140.395  70.283 228.339 -0.48 -0.02    +0.114 A  
DOCKED: ATOM     12  F   UNL     1     139.499  69.029 225.084 -0.10 +0.03    -0.184 F  
DOCKED: ENDBRANCH   5   6
DOCKED: ENDBRANCH   4   5
DOCKED: ENDBRANCH   3   4
DOCKED: ENDBRANCH   1   3
DOCKED: BRANCH   1  13
DOCKED: ATOM     13  C   UNL     1     138.166  74.213 221.473 -0.16 -0.02    +0.060 C  
DOCKED: BRANCH  13  14
DOCKED: ATOM     14  C   UNL     1     137.575  75.368 222.300 -0.20 -0.01    +0.048 C  
DOCKED: BRANCH  14  15
DOCKED: ATOM     15  C   UNL     1     137.950  76.748 221.752 -0.15 -0.05    +0.230 C  
DOCKED: BRANCH  15  16
DOCKED: ATOM     16  O   UNL     1     138.174  77.651 222.832 -0.10 +0.08    -0.492 OA 
DOCKED: BRANCH  16  17
DOCKED: ATOM     17  C   UNL     1     139.346  78.395 223.028 -0.24 -0.02    +0.137 A  
DOCKED: ATOM     18  C   UNL     1     140.626  77.866 222.763 -0.40 -0.01    +0.049 A  
DOCKED: ATOM     19  C   UNL     1     139.237  79.707 223.518 -0.36 -0.01    +0.084 A  
DOCKED: ATOM     20  C   UNL     1     141.770  78.632 223.011 -0.53 -0.01    +0.024 A  
DOCKED: ATOM     21  C   UNL     1     140.385  80.467 223.765 -0.40 -0.01    +0.045 A  
DOCKED: ATOM     22  C   UNL     1     141.651  79.929 223.516 -0.56 -0.01    +0.042 A  
DOCKED: ATOM     23  Cl  UNL     1     137.658  80.407 223.839 -0.39 +0.01    -0.080 Cl 
DOCKED: ATOM     24  Cl  UNL     1     143.088  80.883 223.832 -0.67 +0.02    -0.084 Cl 
DOCKED: ENDBRANCH  16  17
DOCKED: ENDBRANCH  15  16
DOCKED: ENDBRANCH  14  15
DOCKED: ENDBRANCH  13  14
DOCKED: ENDBRANCH   1  13
DOCKED: TORSDOF 9
DOCKED: TER
DOCKED: ENDMDL
________________________________________________________________________________


    FINAL DOCKED STATE:
    ________________________


Run:   5 / 20
Time taken for this run:   0.074s

DOCKED: MODEL        5
DOCKED: USER    Run = 5
DOCKED: USER
DOCKED: USER    Estimated Free Energy of Binding    =  -6.42 kcal/mol  [=(1)+(2)+(3)-(4)]
DOCKED: USER
DOCKED: USER    (1) Final Intermolecular Energy     =  -9.10 kcal/mol
DOCKED: USER        vdW + Hbond + desolv Energy     =  -9.04 kcal/mol
DOCKED: USER        Electrostatic Energy            =  -0.07 kcal/mol
DOCKED: USER        Moving Ligand-Fixed Receptor    =  -9.10 kcal/mol
DOCKED: USER        Moving Ligand-Moving Receptor   =  +0.00 kcal/mol
DOCKED: USER    (2) Final Total Internal Energy     =  -0.82 kcal/mol
DOCKED: USER    (3) Torsional Free Energy           =  +2.68 kcal/mol
DOCKED: USER    (4) Unbound System's Energy         =  -0.82 kcal/mol
DOCKED: USER
DOCKED: USER
DOCKED: REMARK SMILES O=C(CCCOc1ccc(Cl)cc1Cl)[N-]/N=C\c1cccnc1F
DOCKED: REMARK SMILES IDX 2 1 1 2 15 3 16 4 17 5 18 6 23 7 19 8 22 9 20 10 21 11 24 12
DOCKED: REMARK SMILES IDX 3 13 4 14 5 15 6 16 7 17 8 18 13 19 9 20 12 21 10 22 14 23
DOCKED: REMARK SMILES IDX 11 24
DOCKED: REMARK H PARENT
DOCKED: USER                              x       y       z     vdW  Elec       q    Type
DOCKED: USER                           _______ _______ _______ _____ _____    ______ ____
DOCKED: ROOT
DOCKED: ATOM      1  C   UNL     1     138.786  68.942 223.638 -0.26 -0.01    +0.068 C  
DOCKED: ATOM      2  O   UNL     1     138.822  68.370 222.517 -0.13 +0.06    -0.319 OA 
DOCKED: ENDROOT
DOCKED: BRANCH   1   3
DOCKED: ATOM      3  N   UNL     1     138.529  68.162 224.807 -0.29 -0.01    -0.545 NA 
DOCKED: BRANCH   3   4
DOCKED: ATOM      4  N   UNL     1     139.553  67.492 225.492 -0.67 +0.02    -0.372 NA 
DOCKED: BRANCH   4   5
DOCKED: ATOM      5  C   UNL     1     140.110  67.945 226.575 -0.59 -0.02    +0.099 C  
DOCKED: BRANCH   5   6
DOCKED: ATOM      6  C   UNL     1     140.406  69.377 226.819 -0.53 -0.01    +0.046 A  
DOCKED: ATOM      7  C   UNL     1     139.973  69.980 228.013 -0.44 -0.04    +0.221 A  
DOCKED: ATOM      8  C   UNL     1     141.181  70.141 225.929 -0.53 -0.00    +0.016 A  
DOCKED: ATOM      9  N   UNL     1     140.270  71.283 228.270 -0.46 +0.05    -0.228 NA 
DOCKED: ATOM     10  C   UNL     1     141.472  71.474 226.220 -0.63 -0.00    +0.021 A  
DOCKED: ATOM     11  C   UNL     1     140.999  72.036 227.405 -0.71 -0.02    +0.114 A  
DOCKED: ATOM     12  F   UNL     1     139.243  69.278 228.916 -0.16 +0.02    -0.184 F  
DOCKED: ENDBRANCH   5   6
DOCKED: ENDBRANCH   4   5
DOCKED: ENDBRANCH   3   4
DOCKED: ENDBRANCH   1   3
DOCKED: BRANCH   1  13
DOCKED: ATOM     13  C   UNL     1     138.985  70.432 223.712 -0.29 -0.01    +0.060 C  
DOCKED: BRANCH  13  14
DOCKED: ATOM     14  C   UNL     1     139.877  70.963 222.578 -0.24 -0.01    +0.048 C  
DOCKED: BRANCH  14  15
DOCKED: ATOM     15  C   UNL     1     139.501  72.381 222.136 -0.19 -0.05    +0.230 C  
DOCKED: BRANCH  15  16
DOCKED: ATOM     16  O   UNL     1     140.566  73.279 222.441 -0.60 -0.01    -0.492 OA 
DOCKED: BRANCH  16  17
DOCKED: ATOM     17  C   UNL     1     141.030  74.294 221.593 -0.25 -0.02    +0.137 A  
DOCKED: ATOM     18  C   UNL     1     140.474  75.590 221.596 -0.33 -0.01    +0.049 A  
DOCKED: ATOM     19  C   UNL     1     142.074  74.001 220.701 -0.24 -0.02    +0.084 A  
DOCKED: ATOM     20  C   UNL     1     140.943  76.559 220.704 -0.25 -0.01    +0.024 A  
DOCKED: ATOM     21  C   UNL     1     142.538  74.976 219.811 -0.27 -0.02    +0.045 A  
DOCKED: ATOM     22  C   UNL     1     141.970  76.253 219.809 -0.26 -0.02    +0.042 A  
DOCKED: ATOM     23  Cl  UNL     1     142.806  72.403 220.683 -0.32 +0.01    -0.080 Cl 
DOCKED: ATOM     24  Cl  UNL     1     142.549  77.469 218.687 -0.41 +0.06    -0.084 Cl 
DOCKED: ENDBRANCH  16  17
DOCKED: ENDBRANCH  15  16
DOCKED: ENDBRANCH  14  15
DOCKED: ENDBRANCH  13  14
DOCKED: ENDBRANCH   1  13
DOCKED: TORSDOF 9
DOCKED: TER
DOCKED: ENDMDL
________________________________________________________________________________


    FINAL DOCKED STATE:
    ________________________


Run:   6 / 20
Time taken for this run:   0.074s

DOCKED: MODEL        6
DOCKED: USER    Run = 6
DOCKED: USER
DOCKED: USER    Estimated Free Energy of Binding    =  -5.91 kcal/mol  [=(1)+(2)+(3)-(4)]
DOCKED: USER
DOCKED: USER    (1) Final Intermolecular Energy     =  -8.60 kcal/mol
DOCKED: USER        vdW + Hbond + desolv Energy     =  -8.84 kcal/mol
DOCKED: USER        Electrostatic Energy            =  +0.24 kcal/mol
DOCKED: USER        Moving Ligand-Fixed Receptor    =  -8.60 kcal/mol
DOCKED: USER        Moving Ligand-Moving Receptor   =  +0.00 kcal/mol
DOCKED: USER    (2) Final Total Internal Energy     =  -0.44 kcal/mol
DOCKED: USER    (3) Torsional Free Energy           =  +2.68 kcal/mol
DOCKED: USER    (4) Unbound System's Energy         =  -0.44 kcal/mol
DOCKED: USER
DOCKED: USER
DOCKED: REMARK SMILES O=C(CCCOc1ccc(Cl)cc1Cl)[N-]/N=C\c1cccnc1F
DOCKED: REMARK SMILES IDX 2 1 1 2 15 3 16 4 17 5 18 6 23 7 19 8 22 9 20 10 21 11 24 12
DOCKED: REMARK SMILES IDX 3 13 4 14 5 15 6 16 7 17 8 18 13 19 9 20 12 21 10 22 14 23
DOCKED: REMARK SMILES IDX 11 24
DOCKED: REMARK H PARENT
DOCKED: USER                              x       y       z     vdW  Elec       q    Type
DOCKED: USER                           _______ _______ _______ _____ _____    ______ ____
DOCKED: ROOT
DOCKED: ATOM      1  C   UNL     1     141.116  74.220 221.485 -0.25 -0.01    +0.068 C  
DOCKED: ATOM      2  O   UNL     1     142.010  74.509 220.648 -0.18 +0.09    -0.319 OA 
DOCKED: ENDROOT
DOCKED: BRANCH   1   3
DOCKED: ATOM      3  N   UNL     1     140.283  75.262 221.999 -0.45 +0.07    -0.545 NA 
DOCKED: BRANCH   3   4
DOCKED: ATOM      4  N   UNL     1     140.819  76.416 222.589 -0.17 +0.10    -0.372 NA 
DOCKED: BRANCH   4   5
DOCKED: ATOM      5  C   UNL     1     140.282  77.594 222.480 -0.34 -0.03    +0.099 C  
DOCKED: BRANCH   5   6
DOCKED: ATOM      6  C   UNL     1     140.970  78.856 222.842 -0.45 -0.01    +0.046 A  
DOCKED: ATOM      7  C   UNL     1     140.236  79.902 223.430 -0.32 -0.04    +0.221 A  
DOCKED: ATOM      8  C   UNL     1     142.358  79.020 222.691 -0.50 -0.01    +0.016 A  
DOCKED: ATOM      9  N   UNL     1     140.860  81.052 223.803 -0.27 +0.03    -0.228 NA 
DOCKED: ATOM     10  C   UNL     1     142.972  80.209 223.085 -0.65 -0.01    +0.021 A  
DOCKED: ATOM     11  C   UNL     1     142.197  81.227 223.640 -0.54 -0.02    +0.114 A  
DOCKED: ATOM     12  F   UNL     1     138.898  79.783 223.620 -0.12 +0.02    -0.184 F  
DOCKED: ENDBRANCH   5   6
DOCKED: ENDBRANCH   4   5
DOCKED: ENDBRANCH   3   4
DOCKED: ENDBRANCH   1   3
DOCKED: BRANCH   1  13
DOCKED: ATOM     13  C   UNL     1     140.968  72.794 221.944 -0.25 -0.00    +0.060 C  
DOCKED: BRANCH  13  14
DOCKED: ATOM     14  C   UNL     1     139.672  72.144 221.432 -0.19 -0.01    +0.048 C  
DOCKED: BRANCH  14  15
DOCKED: ATOM     15  C   UNL     1     139.164  71.023 222.344 -0.15 -0.04    +0.230 C  
DOCKED: BRANCH  15  16
DOCKED: ATOM     16  O   UNL     1     139.041  71.507 223.680 -0.12 +0.13    -0.492 OA 
DOCKED: BRANCH  16  17
DOCKED: ATOM     17  C   UNL     1     139.514  70.845 224.822 -0.35 -0.03    +0.137 A  
DOCKED: ATOM     18  C   UNL     1     140.710  71.218 225.467 -0.55 -0.01    +0.049 A  
DOCKED: ATOM     19  C   UNL     1     138.774  69.763 225.328 -0.32 -0.01    +0.084 A  
DOCKED: ATOM     20  C   UNL     1     141.163  70.502 226.579 -0.56 -0.00    +0.024 A  
DOCKED: ATOM     21  C   UNL     1     139.233  69.052 226.440 -0.47 -0.01    +0.045 A  
DOCKED: ATOM     22  C   UNL     1     140.429  69.418 227.064 -0.55 -0.01    +0.042 A  
DOCKED: ATOM     23  Cl  UNL     1     137.266  69.283 224.562 -0.34 +0.01    -0.080 Cl 
DOCKED: ATOM     24  Cl  UNL     1     141.004  68.519 228.455 -0.76 +0.02    -0.084 Cl 
DOCKED: ENDBRANCH  16  17
DOCKED: ENDBRANCH  15  16
DOCKED: ENDBRANCH  14  15
DOCKED: ENDBRANCH  13  14
DOCKED: ENDBRANCH   1  13
DOCKED: TORSDOF 9
DOCKED: TER
DOCKED: ENDMDL
________________________________________________________________________________


    FINAL DOCKED STATE:
    ________________________


Run:   7 / 20
Time taken for this run:   0.074s

DOCKED: MODEL        7
DOCKED: USER    Run = 7
DOCKED: USER
DOCKED: USER    Estimated Free Energy of Binding    =  -6.30 kcal/mol  [=(1)+(2)+(3)-(4)]
DOCKED: USER
DOCKED: USER    (1) Final Intermolecular Energy     =  -8.99 kcal/mol
DOCKED: USER        vdW + Hbond + desolv Energy     =  -8.94 kcal/mol
DOCKED: USER        Electrostatic Energy            =  -0.05 kcal/mol
DOCKED: USER        Moving Ligand-Fixed Receptor    =  -8.99 kcal/mol
DOCKED: USER        Moving Ligand-Moving Receptor   =  +0.00 kcal/mol
DOCKED: USER    (2) Final Total Internal Energy     =  -1.00 kcal/mol
DOCKED: USER    (3) Torsional Free Energy           =  +2.68 kcal/mol
DOCKED: USER    (4) Unbound System's Energy         =  -1.00 kcal/mol
DOCKED: USER
DOCKED: USER
DOCKED: REMARK SMILES O=C(CCCOc1ccc(Cl)cc1Cl)[N-]/N=C\c1cccnc1F
DOCKED: REMARK SMILES IDX 2 1 1 2 15 3 16 4 17 5 18 6 23 7 19 8 22 9 20 10 21 11 24 12
DOCKED: REMARK SMILES IDX 3 13 4 14 5 15 6 16 7 17 8 18 13 19 9 20 12 21 10 22 14 23
DOCKED: REMARK SMILES IDX 11 24
DOCKED: REMARK H PARENT
DOCKED: USER                              x       y       z     vdW  Elec       q    Type
DOCKED: USER                           _______ _______ _______ _____ _____    ______ ____
DOCKED: ROOT
DOCKED: ATOM      1  C   UNL     1     138.132  68.848 224.058 -0.27 -0.01    +0.068 C  
DOCKED: ATOM      2  O   UNL     1     136.991  68.768 223.531 -0.12 +0.02    -0.319 OA 
DOCKED: ENDROOT
DOCKED: BRANCH   1   3
DOCKED: ATOM      3  N   UNL     1     138.378  68.161 225.288 -0.25 -0.03    -0.545 NA 
DOCKED: BRANCH   3   4
DOCKED: ATOM      4  N   UNL     1     139.637  67.630 225.601 -0.54 +0.03    -0.372 NA 
DOCKED: BRANCH   4   5
DOCKED: ATOM      5  C   UNL     1     140.396  68.092 226.550 -0.59 -0.02    +0.099 C  
DOCKED: BRANCH   5   6
DOCKED: ATOM      6  C   UNL     1     140.550  69.532 226.864 -0.53 -0.01    +0.046 A  
DOCKED: ATOM      7  C   UNL     1     139.997  70.045 228.051 -0.43 -0.04    +0.221 A  
DOCKED: ATOM      8  C   UNL     1     141.304  70.396 226.052 -0.55 -0.00    +0.016 A  
DOCKED: ATOM      9  N   UNL     1     140.163  71.357 228.373 -0.44 +0.05    -0.228 NA 
DOCKED: ATOM     10  C   UNL     1     141.459  71.736 226.408 -0.66 -0.00    +0.021 A  
DOCKED: ATOM     11  C   UNL     1     140.871  72.205 227.581 -0.69 -0.03    +0.114 A  
DOCKED: ATOM     12  F   UNL     1     139.282  69.246 228.881 -0.16 +0.02    -0.184 F  
DOCKED: ENDBRANCH   5   6
DOCKED: ENDBRANCH   4   5
DOCKED: ENDBRANCH   3   4
DOCKED: ENDBRANCH   1   3
DOCKED: BRANCH   1  13
DOCKED: ATOM     13  C   UNL     1     139.193  69.686 223.397 -0.24 -0.01    +0.060 C  
DOCKED: BRANCH  13  14
DOCKED: ATOM     14  C   UNL     1     139.038  71.183 223.711 -0.31 -0.01    +0.048 C  
DOCKED: BRANCH  14  15
DOCKED: ATOM     15  C   UNL     1     138.950  72.052 222.452 -0.16 -0.06    +0.230 C  
DOCKED: BRANCH  15  16
DOCKED: ATOM     16  O   UNL     1     139.926  73.090 222.514 -0.58 +0.06    -0.492 OA 
DOCKED: BRANCH  16  17
DOCKED: ATOM     17  C   UNL     1     141.126  73.110 221.788 -0.20 -0.01    +0.137 A  
DOCKED: ATOM     18  C   UNL     1     141.876  71.942 221.544 -0.17 -0.00    +0.049 A  
DOCKED: ATOM     19  C   UNL     1     141.599  74.340 221.303 -0.20 -0.02    +0.084 A  
DOCKED: ATOM     20  C   UNL     1     143.088  72.016 220.850 -0.27 -0.00    +0.024 A  
DOCKED: ATOM     21  C   UNL     1     142.812  74.407 220.610 -0.29 -0.01    +0.045 A  
DOCKED: ATOM     22  C   UNL     1     143.558  73.247 220.386 -0.32 -0.01    +0.042 A  
DOCKED: ATOM     23  Cl  UNL     1     140.679  75.814 221.570 -0.45 +0.02    -0.080 Cl 
DOCKED: ATOM     24  Cl  UNL     1     145.082  73.336 219.522 -0.52 +0.00    -0.084 Cl 
DOCKED: ENDBRANCH  16  17
DOCKED: ENDBRANCH  15  16
DOCKED: ENDBRANCH  14  15
DOCKED: ENDBRANCH  13  14
DOCKED: ENDBRANCH   1  13
DOCKED: TORSDOF 9
DOCKED: TER
DOCKED: ENDMDL
________________________________________________________________________________


    FINAL DOCKED STATE:
    ________________________


Run:   8 / 20
Time taken for this run:   0.074s

DOCKED: MODEL        8
DOCKED: USER    Run = 8
DOCKED: USER
DOCKED: USER    Estimated Free Energy of Binding    =  -5.36 kcal/mol  [=(1)+(2)+(3)-(4)]
DOCKED: USER
DOCKED: USER    (1) Final Intermolecular Energy     =  -8.05 kcal/mol
DOCKED: USER        vdW + Hbond + desolv Energy     =  -8.16 kcal/mol
DOCKED: USER        Electrostatic Energy            =  +0.11 kcal/mol
DOCKED: USER        Moving Ligand-Fixed Receptor    =  -8.05 kcal/mol
DOCKED: USER        Moving Ligand-Moving Receptor   =  +0.00 kcal/mol
DOCKED: USER    (2) Final Total Internal Energy     =  -1.31 kcal/mol
DOCKED: USER    (3) Torsional Free Energy           =  +2.68 kcal/mol
DOCKED: USER    (4) Unbound System's Energy         =  -1.31 kcal/mol
DOCKED: USER
DOCKED: USER
DOCKED: REMARK SMILES O=C(CCCOc1ccc(Cl)cc1Cl)[N-]/N=C\c1cccnc1F
DOCKED: REMARK SMILES IDX 2 1 1 2 15 3 16 4 17 5 18 6 23 7 19 8 22 9 20 10 21 11 24 12
DOCKED: REMARK SMILES IDX 3 13 4 14 5 15 6 16 7 17 8 18 13 19 9 20 12 21 10 22 14 23
DOCKED: REMARK SMILES IDX 11 24
DOCKED: REMARK H PARENT
DOCKED: USER                              x       y       z     vdW  Elec       q    Type
DOCKED: USER                           _______ _______ _______ _____ _____    ______ ____
DOCKED: ROOT
DOCKED: ATOM      1  C   UNL     1     140.172  74.868 221.833 -0.23 -0.01    +0.068 C  
DOCKED: ATOM      2  O   UNL     1     141.387  75.174 221.949 -0.42 +0.07    -0.319 OA 
DOCKED: ENDROOT
DOCKED: BRANCH   1   3
DOCKED: ATOM      3  N   UNL     1     139.721  73.609 222.339 -0.61 +0.07    -0.545 NA 
DOCKED: BRANCH   3   4
DOCKED: ATOM      4  N   UNL     1     140.615  72.627 222.786 -0.42 +0.01    -0.372 NA 
DOCKED: BRANCH   4   5
DOCKED: ATOM      5  C   UNL     1     140.241  71.482 223.273 -0.32 -0.01    +0.099 C  
DOCKED: BRANCH   5   6
DOCKED: ATOM      6  C   UNL     1     140.261  71.147 224.717 -0.47 -0.01    +0.046 A  
DOCKED: ATOM      7  C   UNL     1     139.535  70.036 225.181 -0.28 -0.04    +0.221 A  
DOCKED: ATOM      8  C   UNL     1     141.050  71.858 225.637 -0.48 -0.00    +0.016 A  
DOCKED: ATOM      9  N   UNL     1     139.575  69.692 226.496 -0.27 +0.03    -0.228 NA 
DOCKED: ATOM     10  C   UNL     1     141.074  71.482 226.980 -0.73 -0.00    +0.021 A  
DOCKED: ATOM     11  C   UNL     1     140.317  70.388 227.397 -0.52 -0.02    +0.114 A  
DOCKED: ATOM     12  F   UNL     1     138.778  69.301 224.328 -0.08 +0.03    -0.184 F  
DOCKED: ENDBRANCH   5   6
DOCKED: ENDBRANCH   4   5
DOCKED: ENDBRANCH   3   4
DOCKED: ENDBRANCH   1   3
DOCKED: BRANCH   1  13
DOCKED: ATOM     13  C   UNL     1     139.235  75.821 221.139 -0.20 -0.01    +0.060 C  
DOCKED: BRANCH  13  14
DOCKED: ATOM     14  C   UNL     1     139.269  75.667 219.610 -0.06 -0.01    +0.048 C  
DOCKED: BRANCH  14  15
DOCKED: ATOM     15  C   UNL     1     139.760  74.287 219.159 -0.02 -0.05    +0.230 C  
DOCKED: BRANCH  15  16
DOCKED: ATOM     16  O   UNL     1     141.055  74.403 218.575 +0.02 +0.13    -0.492 OA 
DOCKED: BRANCH  16  17
DOCKED: ATOM     17  C   UNL     1     142.261  74.123 219.233 -0.11 -0.04    +0.137 A  
DOCKED: ATOM     18  C   UNL     1     142.566  72.841 219.732 -0.16 -0.01    +0.049 A  
DOCKED: ATOM     19  C   UNL     1     143.189  75.163 219.412 -0.29 -0.04    +0.084 A  
DOCKED: ATOM     20  C   UNL     1     143.764  72.617 220.417 -0.33 -0.00    +0.024 A  
DOCKED: ATOM     21  C   UNL     1     144.385  74.933 220.099 -0.39 -0.02    +0.045 A  
DOCKED: ATOM     22  C   UNL     1     144.671  73.662 220.605 -0.49 -0.01    +0.042 A  
DOCKED: ATOM     23  Cl  UNL     1     142.853  76.771 218.785 -0.43 +0.05    -0.080 Cl 
DOCKED: ATOM     24  Cl  UNL     1     146.170  73.380 221.471 -0.87 +0.01    -0.084 Cl 
DOCKED: ENDBRANCH  16  17
DOCKED: ENDBRANCH  15  16
DOCKED: ENDBRANCH  14  15
DOCKED: ENDBRANCH  13  14
DOCKED: ENDBRANCH   1  13
DOCKED: TORSDOF 9
DOCKED: TER
DOCKED: ENDMDL
________________________________________________________________________________


    FINAL DOCKED STATE:
    ________________________


Run:   9 / 20
Time taken for this run:   0.074s

DOCKED: MODEL        9
DOCKED: USER    Run = 9
DOCKED: USER
DOCKED: USER    Estimated Free Energy of Binding    =  -5.99 kcal/mol  [=(1)+(2)+(3)-(4)]
DOCKED: USER
DOCKED: USER    (1) Final Intermolecular Energy     =  -8.68 kcal/mol
DOCKED: USER        vdW + Hbond + desolv Energy     =  -8.73 kcal/mol
DOCKED: USER        Electrostatic Energy            =  +0.05 kcal/mol
DOCKED: USER        Moving Ligand-Fixed Receptor    =  -8.68 kcal/mol
DOCKED: USER        Moving Ligand-Moving Receptor   =  +0.00 kcal/mol
DOCKED: USER    (2) Final Total Internal Energy     =  -0.41 kcal/mol
DOCKED: USER    (3) Torsional Free Energy           =  +2.68 kcal/mol
DOCKED: USER    (4) Unbound System's Energy         =  -0.41 kcal/mol
DOCKED: USER
DOCKED: USER
DOCKED: REMARK SMILES O=C(CCCOc1ccc(Cl)cc1Cl)[N-]/N=C\c1cccnc1F
DOCKED: REMARK SMILES IDX 2 1 1 2 15 3 16 4 17 5 18 6 23 7 19 8 22 9 20 10 21 11 24 12
DOCKED: REMARK SMILES IDX 3 13 4 14 5 15 6 16 7 17 8 18 13 19 9 20 12 21 10 22 14 23
DOCKED: REMARK SMILES IDX 11 24
DOCKED: REMARK H PARENT
DOCKED: USER                              x       y       z     vdW  Elec       q    Type
DOCKED: USER                           _______ _______ _______ _____ _____    ______ ____
DOCKED: ROOT
DOCKED: ATOM      1  C   UNL     1     141.435  72.556 221.453 -0.23 -0.01    +0.068 C  
DOCKED: ATOM      2  O   UNL     1     141.541  71.325 221.215 -0.09 +0.03    -0.319 OA 
DOCKED: ENDROOT
DOCKED: BRANCH   1   3
DOCKED: ATOM      3  N   UNL     1     140.461  72.999 222.401 -0.50 +0.02    -0.545 NA 
DOCKED: BRANCH   3   4
DOCKED: ATOM      4  N   UNL     1     140.129  72.240 223.532 -0.24 +0.06    -0.372 NA 
DOCKED: BRANCH   4   5
DOCKED: ATOM      5  C   UNL     1     139.573  71.066 223.472 -0.31 -0.02    +0.099 C  
DOCKED: BRANCH   5   6
DOCKED: ATOM      6  C   UNL     1     139.724  70.022 224.513 -0.35 -0.01    +0.046 A  
DOCKED: ATOM      7  C   UNL     1     139.032  68.805 224.379 -0.23 -0.03    +0.221 A  
DOCKED: ATOM      8  C   UNL     1     140.604  70.172 225.598 -0.50 -0.00    +0.016 A  
DOCKED: ATOM      9  N   UNL     1     139.189  67.822 225.306 -0.79 +0.00    -0.228 NA 
DOCKED: ATOM     10  C   UNL     1     140.748  69.145 226.532 -0.55 -0.00    +0.021 A  
DOCKED: ATOM     11  C   UNL     1     140.021  67.967 226.371 -0.55 -0.02    +0.114 A  
DOCKED: ATOM     12  F   UNL     1     138.189  68.602 223.336 -0.07 +0.02    -0.184 F  
DOCKED: ENDBRANCH   5   6
DOCKED: ENDBRANCH   4   5
DOCKED: ENDBRANCH   3   4
DOCKED: ENDBRANCH   1   3
DOCKED: BRANCH   1  13
DOCKED: ATOM     13  C   UNL     1     142.314  73.529 220.713 -0.24 -0.01    +0.060 C  
DOCKED: BRANCH  13  14
DOCKED: ATOM     14  C   UNL     1     141.529  74.738 220.176 -0.21 -0.01    +0.048 C  
DOCKED: BRANCH  14  15
DOCKED: ATOM     15  C   UNL     1     140.816  75.526 221.280 -0.23 -0.06    +0.230 C  
DOCKED: BRANCH  15  16
DOCKED: ATOM     16  O   UNL     1     140.746  76.903 220.921 -0.06 +0.19    -0.492 OA 
DOCKED: BRANCH  16  17
DOCKED: ATOM     17  C   UNL     1     141.186  77.967 221.722 -0.30 -0.06    +0.137 A  
DOCKED: ATOM     18  C   UNL     1     141.126  77.924 223.129 -0.41 -0.02    +0.049 A  
DOCKED: ATOM     19  C   UNL     1     141.690  79.119 221.095 -0.31 -0.04    +0.084 A  
DOCKED: ATOM     20  C   UNL     1     141.539  79.024 223.886 -0.59 -0.01    +0.024 A  
DOCKED: ATOM     21  C   UNL     1     142.101  80.216 221.858 -0.46 -0.02    +0.045 A  
DOCKED: ATOM     22  C   UNL     1     142.022  80.171 223.253 -0.58 -0.01    +0.042 A  
DOCKED: ATOM     23  Cl  UNL     1     141.800  79.201 219.342 -0.35 +0.05    -0.080 Cl 
DOCKED: ATOM     24  Cl  UNL     1     142.532  81.552 224.205 -0.55 +0.01    -0.084 Cl 
DOCKED: ENDBRANCH  16  17
DOCKED: ENDBRANCH  15  16
DOCKED: ENDBRANCH  14  15
DOCKED: ENDBRANCH  13  14
DOCKED: ENDBRANCH   1  13
DOCKED: TORSDOF 9
DOCKED: TER
DOCKED: ENDMDL
________________________________________________________________________________


    FINAL DOCKED STATE:
    ________________________


Run:   10 / 20
Time taken for this run:   0.074s

DOCKED: MODEL        10
DOCKED: USER    Run = 10
DOCKED: USER
DOCKED: USER    Estimated Free Energy of Binding    =  -6.02 kcal/mol  [=(1)+(2)+(3)-(4)]
DOCKED: USER
DOCKED: USER    (1) Final Intermolecular Energy     =  -8.71 kcal/mol
DOCKED: USER        vdW + Hbond + desolv Energy     =  -8.65 kcal/mol
DOCKED: USER        Electrostatic Energy            =  -0.05 kcal/mol
DOCKED: USER        Moving Ligand-Fixed Receptor    =  -8.71 kcal/mol
DOCKED: USER        Moving Ligand-Moving Receptor   =  +0.00 kcal/mol
DOCKED: USER    (2) Final Total Internal Energy     =  -1.01 kcal/mol
DOCKED: USER    (3) Torsional Free Energy           =  +2.68 kcal/mol
DOCKED: USER    (4) Unbound System's Energy         =  -1.01 kcal/mol
DOCKED: USER
DOCKED: USER
DOCKED: REMARK SMILES O=C(CCCOc1ccc(Cl)cc1Cl)[N-]/N=C\c1cccnc1F
DOCKED: REMARK SMILES IDX 2 1 1 2 15 3 16 4 17 5 18 6 23 7 19 8 22 9 20 10 21 11 24 12
DOCKED: REMARK SMILES IDX 3 13 4 14 5 15 6 16 7 17 8 18 13 19 9 20 12 21 10 22 14 23
DOCKED: REMARK SMILES IDX 11 24
DOCKED: REMARK H PARENT
DOCKED: USER                              x       y       z     vdW  Elec       q    Type
DOCKED: USER                           _______ _______ _______ _____ _____    ______ ____
DOCKED: ROOT
DOCKED: ATOM      1  C   UNL     1     137.139  69.281 224.353 -0.24 -0.01    +0.068 C  
DOCKED: ATOM      2  O   UNL     1     136.097  68.940 224.971 -0.31 +0.00    -0.319 OA 
DOCKED: ENDROOT
DOCKED: BRANCH   1   3
DOCKED: ATOM      3  N   UNL     1     138.280  68.422 224.386 -0.14 +0.02    -0.545 NA 
DOCKED: BRANCH   3   4
DOCKED: ATOM      4  N   UNL     1     138.857  68.003 225.594 -0.59 -0.00    -0.372 NA 
DOCKED: BRANCH   4   5
DOCKED: ATOM      5  C   UNL     1     140.051  68.343 225.976 -0.50 -0.02    +0.099 C  
DOCKED: BRANCH   5   6
DOCKED: ATOM      6  C   UNL     1     140.399  69.674 226.528 -0.51 -0.01    +0.046 A  
DOCKED: ATOM      7  C   UNL     1     140.888  70.674 225.670 -0.40 -0.03    +0.221 A  
DOCKED: ATOM      8  C   UNL     1     140.180  70.003 227.877 -0.62 -0.00    +0.016 A  
DOCKED: ATOM      9  N   UNL     1     141.174  71.913 226.154 -0.43 +0.03    -0.228 NA 
DOCKED: ATOM     10  C   UNL     1     140.480  71.282 228.346 -0.68 -0.00    +0.021 A  
DOCKED: ATOM     11  C   UNL     1     140.988  72.232 227.461 -0.70 -0.03    +0.114 A  
DOCKED: ATOM     12  F   UNL     1     141.092  70.414 224.354 +0.02 +0.02    -0.184 F  
DOCKED: ENDBRANCH   5   6
DOCKED: ENDBRANCH   4   5
DOCKED: ENDBRANCH   3   4
DOCKED: ENDBRANCH   1   3
DOCKED: BRANCH   1  13
DOCKED: ATOM     13  C   UNL     1     137.164  70.597 223.621 -0.20 -0.01    +0.060 C  
DOCKED: BRANCH  13  14
DOCKED: ATOM     14  C   UNL     1     138.589  71.021 223.226 -0.25 -0.01    +0.048 C  
DOCKED: BRANCH  14  15
DOCKED: ATOM     15  C   UNL     1     138.612  72.211 222.261 -0.14 -0.06    +0.230 C  
DOCKED: BRANCH  15  16
DOCKED: ATOM     16  O   UNL     1     139.722  73.053 222.561 -0.52 +0.08    -0.492 OA 
DOCKED: BRANCH  16  17
DOCKED: ATOM     17  C   UNL     1     140.919  73.098 221.831 -0.23 -0.01    +0.137 A  
DOCKED: ATOM     18  C   UNL     1     141.668  71.939 221.544 -0.20 -0.00    +0.049 A  
DOCKED: ATOM     19  C   UNL     1     141.390  74.343 221.385 -0.23 -0.01    +0.084 A  
DOCKED: ATOM     20  C   UNL     1     142.876  72.036 220.847 -0.26 -0.00    +0.024 A  
DOCKED: ATOM     21  C   UNL     1     142.600  74.434 220.689 -0.28 -0.01    +0.045 A  
DOCKED: ATOM     22  C   UNL     1     143.345  73.281 220.424 -0.31 -0.01    +0.042 A  
DOCKED: ATOM     23  Cl  UNL     1     140.472  75.808 221.707 -0.44 +0.02    -0.080 Cl 
DOCKED: ATOM     24  Cl  UNL     1     144.864  73.400 219.556 -0.51 +0.01    -0.084 Cl 
DOCKED: ENDBRANCH  16  17
DOCKED: ENDBRANCH  15  16
DOCKED: ENDBRANCH  14  15
DOCKED: ENDBRANCH  13  14
DOCKED: ENDBRANCH   1  13
DOCKED: TORSDOF 9
DOCKED: TER
DOCKED: ENDMDL
________________________________________________________________________________


    FINAL DOCKED STATE:
    ________________________


Run:   11 / 20
Time taken for this run:   0.074s

DOCKED: MODEL        11
DOCKED: USER    Run = 11
DOCKED: USER
DOCKED: USER    Estimated Free Energy of Binding    =  -6.07 kcal/mol  [=(1)+(2)+(3)-(4)]
DOCKED: USER
DOCKED: USER    (1) Final Intermolecular Energy     =  -8.75 kcal/mol
DOCKED: USER        vdW + Hbond + desolv Energy     =  -8.81 kcal/mol
DOCKED: USER        Electrostatic Energy            =  +0.05 kcal/mol
DOCKED: USER        Moving Ligand-Fixed Receptor    =  -8.75 kcal/mol
DOCKED: USER        Moving Ligand-Moving Receptor   =  +0.00 kcal/mol
DOCKED: USER    (2) Final Total Internal Energy     =  -1.22 kcal/mol
DOCKED: USER    (3) Torsional Free Energy           =  +2.68 kcal/mol
DOCKED: USER    (4) Unbound System's Energy         =  -1.22 kcal/mol
DOCKED: USER
DOCKED: USER
DOCKED: REMARK SMILES O=C(CCCOc1ccc(Cl)cc1Cl)[N-]/N=C\c1cccnc1F
DOCKED: REMARK SMILES IDX 2 1 1 2 15 3 16 4 17 5 18 6 23 7 19 8 22 9 20 10 21 11 24 12
DOCKED: REMARK SMILES IDX 3 13 4 14 5 15 6 16 7 17 8 18 13 19 9 20 12 21 10 22 14 23
DOCKED: REMARK SMILES IDX 11 24
DOCKED: REMARK H PARENT
DOCKED: USER                              x       y       z     vdW  Elec       q    Type
DOCKED: USER                           _______ _______ _______ _____ _____    ______ ____
DOCKED: ROOT
DOCKED: ATOM      1  C   UNL     1     138.874  69.016 223.636 -0.26 -0.01    +0.068 C  
DOCKED: ATOM      2  O   UNL     1     139.861  69.350 222.930 +0.02 +0.06    -0.319 OA 
DOCKED: ENDROOT
DOCKED: BRANCH   1   3
DOCKED: ATOM      3  N   UNL     1     138.922  67.784 224.360 -0.38 +0.00    -0.545 NA 
DOCKED: BRANCH   3   4
DOCKED: ATOM      4  N   UNL     1     139.153  67.746 225.742 -0.70 +0.01    -0.372 NA 
DOCKED: BRANCH   4   5
DOCKED: ATOM      5  C   UNL     1     140.249  68.168 226.300 -0.56 -0.02    +0.099 C  
DOCKED: BRANCH   5   6
DOCKED: ATOM      6  C   UNL     1     140.499  69.579 226.676 -0.52 -0.01    +0.046 A  
DOCKED: ATOM      7  C   UNL     1     140.163  70.022 227.968 -0.44 -0.04    +0.221 A  
DOCKED: ATOM      8  C   UNL     1     141.140  70.481 225.809 -0.56 -0.00    +0.016 A  
DOCKED: ATOM      9  N   UNL     1     140.422  71.304 228.342 -0.46 +0.05    -0.228 NA 
DOCKED: ATOM     10  C   UNL     1     141.395  71.789 226.220 -0.63 -0.00    +0.021 A  
DOCKED: ATOM     11  C   UNL     1     141.020  72.189 227.501 -0.71 -0.03    +0.114 A  
DOCKED: ATOM     12  F   UNL     1     139.566  69.183 228.851 -0.17 +0.03    -0.184 F  
DOCKED: ENDBRANCH   5   6
DOCKED: ENDBRANCH   4   5
DOCKED: ENDBRANCH   3   4
DOCKED: ENDBRANCH   1   3
DOCKED: BRANCH   1  13
DOCKED: ATOM     13  C   UNL     1     137.660  69.906 223.674 -0.23 -0.01    +0.060 C  
DOCKED: BRANCH  13  14
DOCKED: ATOM     14  C   UNL     1     138.028  71.395 223.787 -0.16 -0.01    +0.048 C  
DOCKED: BRANCH  14  15
DOCKED: ATOM     15  C   UNL     1     138.525  71.990 222.466 -0.13 -0.06    +0.230 C  
DOCKED: BRANCH  15  16
DOCKED: ATOM     16  O   UNL     1     139.551  72.945 222.723 -0.46 +0.11    -0.492 OA 
DOCKED: BRANCH  16  17
DOCKED: ATOM     17  C   UNL     1     140.722  73.092 221.966 -0.25 -0.01    +0.137 A  
DOCKED: ATOM     18  C   UNL     1     141.532  71.993 221.613 -0.22 -0.00    +0.049 A  
DOCKED: ATOM     19  C   UNL     1     141.105  74.381 221.560 -0.27 -0.01    +0.084 A  
DOCKED: ATOM     20  C   UNL     1     142.712  72.192 220.890 -0.25 -0.00    +0.024 A  
DOCKED: ATOM     21  C   UNL     1     142.287  74.572 220.838 -0.28 -0.01    +0.045 A  
DOCKED: ATOM     22  C   UNL     1     143.093  73.479 220.507 -0.29 -0.01    +0.042 A  
DOCKED: ATOM     23  Cl  UNL     1     140.109  75.772 221.964 -0.42 +0.02    -0.080 Cl 
DOCKED: ATOM     24  Cl  UNL     1     144.578  73.725 219.607 -0.49 +0.02    -0.084 Cl 
DOCKED: ENDBRANCH  16  17
DOCKED: ENDBRANCH  15  16
DOCKED: ENDBRANCH  14  15
DOCKED: ENDBRANCH  13  14
DOCKED: ENDBRANCH   1  13
DOCKED: TORSDOF 9
DOCKED: TER
DOCKED: ENDMDL
________________________________________________________________________________


    FINAL DOCKED STATE:
    ________________________


Run:   12 / 20
Time taken for this run:   0.074s

DOCKED: MODEL        12
DOCKED: USER    Run = 12
DOCKED: USER
DOCKED: USER    Estimated Free Energy of Binding    =  -6.29 kcal/mol  [=(1)+(2)+(3)-(4)]
DOCKED: USER
DOCKED: USER    (1) Final Intermolecular Energy     =  -8.98 kcal/mol
DOCKED: USER        vdW + Hbond + desolv Energy     =  -9.08 kcal/mol
DOCKED: USER        Electrostatic Energy            =  +0.10 kcal/mol
DOCKED: USER        Moving Ligand-Fixed Receptor    =  -8.98 kcal/mol
DOCKED: USER        Moving Ligand-Moving Receptor   =  +0.00 kcal/mol
DOCKED: USER    (2) Final Total Internal Energy     =  -1.01 kcal/mol
DOCKED: USER    (3) Torsional Free Energy           =  +2.68 kcal/mol
DOCKED: USER    (4) Unbound System's Energy         =  -1.01 kcal/mol
DOCKED: USER
DOCKED: USER
DOCKED: REMARK SMILES O=C(CCCOc1ccc(Cl)cc1Cl)[N-]/N=C\c1cccnc1F
DOCKED: REMARK SMILES IDX 2 1 1 2 15 3 16 4 17 5 18 6 23 7 19 8 22 9 20 10 21 11 24 12
DOCKED: REMARK SMILES IDX 3 13 4 14 5 15 6 16 7 17 8 18 13 19 9 20 12 21 10 22 14 23
DOCKED: REMARK SMILES IDX 11 24
DOCKED: REMARK H PARENT
DOCKED: USER                              x       y       z     vdW  Elec       q    Type
DOCKED: USER                           _______ _______ _______ _____ _____    ______ ____
DOCKED: ROOT
DOCKED: ATOM      1  C   UNL     1     138.769  68.496 223.772 -0.28 -0.01    +0.068 C  
DOCKED: ATOM      2  O   UNL     1     139.056  68.434 222.548 -0.12 +0.06    -0.319 OA 
DOCKED: ENDROOT
DOCKED: BRANCH   1   3
DOCKED: ATOM      3  N   UNL     1     139.183  67.436 224.637 -0.51 -0.01    -0.545 NA 
DOCKED: BRANCH   3   4
DOCKED: ATOM      4  N   UNL     1     139.276  67.606 226.026 -0.63 +0.02    -0.372 NA 
DOCKED: BRANCH   4   5
DOCKED: ATOM      5  C   UNL     1     140.319  68.105 226.620 -0.59 -0.02    +0.099 C  
DOCKED: BRANCH   5   6
DOCKED: ATOM      6  C   UNL     1     140.509  69.550 226.888 -0.53 -0.01    +0.046 A  
DOCKED: ATOM      7  C   UNL     1     139.983  70.112 228.065 -0.43 -0.04    +0.221 A  
DOCKED: ATOM      8  C   UNL     1     141.272  70.373 226.041 -0.55 -0.00    +0.016 A  
DOCKED: ATOM      9  N   UNL     1     140.182  71.429 228.344 -0.47 +0.05    -0.228 NA 
DOCKED: ATOM     10  C   UNL     1     141.462  71.718 226.354 -0.65 -0.00    +0.021 A  
DOCKED: ATOM     11  C   UNL     1     140.899  72.236 227.519 -0.69 -0.03    +0.114 A  
DOCKED: ATOM     12  F   UNL     1     139.260  69.355 228.928 -0.16 +0.02    -0.184 F  
DOCKED: ENDBRANCH   5   6
DOCKED: ENDBRANCH   4   5
DOCKED: ENDBRANCH   3   4
DOCKED: ENDBRANCH   1   3
DOCKED: BRANCH   1  13
DOCKED: ATOM     13  C   UNL     1     137.973  69.666 224.285 -0.28 -0.01    +0.060 C  
DOCKED: BRANCH  13  14
DOCKED: ATOM     14  C   UNL     1     138.744  70.992 224.178 -0.30 -0.01    +0.048 C  
DOCKED: BRANCH  14  15
DOCKED: ATOM     15  C   UNL     1     138.966  71.439 222.729 -0.18 -0.05    +0.230 C  
DOCKED: BRANCH  15  16
DOCKED: ATOM     16  O   UNL     1     139.302  72.824 222.698 -0.26 +0.13    -0.492 OA 
DOCKED: BRANCH  16  17
DOCKED: ATOM     17  C   UNL     1     140.341  73.382 221.939 -0.25 -0.01    +0.137 A  
DOCKED: ATOM     18  C   UNL     1     141.409  72.608 221.443 -0.25 -0.00    +0.049 A  
DOCKED: ATOM     19  C   UNL     1     140.319  74.762 221.680 -0.27 -0.01    +0.084 A  
DOCKED: ATOM     20  C   UNL     1     142.445  73.215 220.725 -0.26 -0.00    +0.024 A  
DOCKED: ATOM     21  C   UNL     1     141.358  75.363 220.962 -0.29 -0.01    +0.045 A  
DOCKED: ATOM     22  C   UNL     1     142.423  74.591 220.488 -0.29 -0.01    +0.042 A  
DOCKED: ATOM     23  Cl  UNL     1     138.992  75.756 222.265 -0.37 +0.02    -0.080 Cl 
DOCKED: ATOM     24  Cl  UNL     1     143.726  75.349 219.593 -0.46 +0.05    -0.084 Cl 
DOCKED: ENDBRANCH  16  17
DOCKED: ENDBRANCH  15  16
DOCKED: ENDBRANCH  14  15
DOCKED: ENDBRANCH  13  14
DOCKED: ENDBRANCH   1  13
DOCKED: TORSDOF 9
DOCKED: TER
DOCKED: ENDMDL
________________________________________________________________________________


    FINAL DOCKED STATE:
    ________________________


Run:   13 / 20
Time taken for this run:   0.074s

DOCKED: MODEL        13
DOCKED: USER    Run = 13
DOCKED: USER
DOCKED: USER    Estimated Free Energy of Binding    =  -6.03 kcal/mol  [=(1)+(2)+(3)-(4)]
DOCKED: USER
DOCKED: USER    (1) Final Intermolecular Energy     =  -8.72 kcal/mol
DOCKED: USER        vdW + Hbond + desolv Energy     =  -8.79 kcal/mol
DOCKED: USER        Electrostatic Energy            =  +0.07 kcal/mol
DOCKED: USER        Moving Ligand-Fixed Receptor    =  -8.72 kcal/mol
DOCKED: USER        Moving Ligand-Moving Receptor   =  +0.00 kcal/mol
DOCKED: USER    (2) Final Total Internal Energy     =  -0.85 kcal/mol
DOCKED: USER    (3) Torsional Free Energy           =  +2.68 kcal/mol
DOCKED: USER    (4) Unbound System's Energy         =  -0.85 kcal/mol
DOCKED: USER
DOCKED: USER
DOCKED: REMARK SMILES O=C(CCCOc1ccc(Cl)cc1Cl)[N-]/N=C\c1cccnc1F
DOCKED: REMARK SMILES IDX 2 1 1 2 15 3 16 4 17 5 18 6 23 7 19 8 22 9 20 10 21 11 24 12
DOCKED: REMARK SMILES IDX 3 13 4 14 5 15 6 16 7 17 8 18 13 19 9 20 12 21 10 22 14 23
DOCKED: REMARK SMILES IDX 11 24
DOCKED: REMARK H PARENT
DOCKED: USER                              x       y       z     vdW  Elec       q    Type
DOCKED: USER                           _______ _______ _______ _____ _____    ______ ____
DOCKED: ROOT
DOCKED: ATOM      1  C   UNL     1     140.391  74.308 221.860 -0.17 -0.01    +0.068 C  
DOCKED: ATOM      2  O   UNL     1     141.192  75.249 222.093 -0.42 +0.05    -0.319 OA 
DOCKED: ENDROOT
DOCKED: BRANCH   1   3
DOCKED: ATOM      3  N   UNL     1     140.699  72.997 222.341 -0.48 +0.01    -0.545 NA 
DOCKED: BRANCH   3   4
DOCKED: ATOM      4  N   UNL     1     139.847  72.309 223.216 -0.24 +0.07    -0.372 NA 
DOCKED: BRANCH   4   5
DOCKED: ATOM      5  C   UNL     1     140.162  71.188 223.792 -0.35 -0.02    +0.099 C  
DOCKED: BRANCH   5   6
DOCKED: ATOM      6  C   UNL     1     140.263  71.008 225.260 -0.50 -0.01    +0.046 A  
DOCKED: ATOM      7  C   UNL     1     139.646  69.899 225.866 -0.31 -0.03    +0.221 A  
DOCKED: ATOM      8  C   UNL     1     141.027  71.869 226.067 -0.61 -0.00    +0.016 A  
DOCKED: ATOM      9  N   UNL     1     139.762  69.699 227.207 -0.31 +0.03    -0.228 NA 
DOCKED: ATOM     10  C   UNL     1     141.130  71.637 227.438 -0.77 -0.00    +0.021 A  
DOCKED: ATOM     11  C   UNL     1     140.479  70.539 227.998 -0.56 -0.02    +0.114 A  
DOCKED: ATOM     12  F   UNL     1     138.918  69.025 225.127 -0.11 +0.02    -0.184 F  
DOCKED: ENDBRANCH   5   6
DOCKED: ENDBRANCH   4   5
DOCKED: ENDBRANCH   3   4
DOCKED: ENDBRANCH   1   3
DOCKED: BRANCH   1  13
DOCKED: ATOM     13  C   UNL     1     139.146  74.580 221.057 -0.18 -0.01    +0.060 C  
DOCKED: BRANCH  13  14
DOCKED: ATOM     14  C   UNL     1     137.962  75.010 221.939 -0.20 -0.01    +0.048 C  
DOCKED: BRANCH  14  15
DOCKED: ATOM     15  C   UNL     1     137.827  76.532 222.057 -0.17 -0.05    +0.230 C  
DOCKED: BRANCH  15  16
DOCKED: ATOM     16  O   UNL     1     138.921  77.165 221.397 -0.03 +0.11    -0.492 OA 
DOCKED: BRANCH  16  17
DOCKED: ATOM     17  C   UNL     1     139.856  78.007 222.017 -0.24 -0.04    +0.137 A  
DOCKED: ATOM     18  C   UNL     1     139.579  78.678 223.225 -0.30 -0.01    +0.049 A  
DOCKED: ATOM     19  C   UNL     1     141.105  78.195 221.402 -0.30 -0.04    +0.084 A  
DOCKED: ATOM     20  C   UNL     1     140.528  79.539 223.786 -0.48 -0.00    +0.024 A  
DOCKED: ATOM     21  C   UNL     1     142.049  79.058 221.968 -0.44 -0.02    +0.045 A  
DOCKED: ATOM     22  C   UNL     1     141.759  79.733 223.157 -0.55 -0.01    +0.042 A  
DOCKED: ATOM     23  Cl  UNL     1     141.493  77.358 219.906 -0.32 +0.04    -0.080 Cl 
DOCKED: ATOM     24  Cl  UNL     1     142.944  80.818 223.860 -0.75 +0.02    -0.084 Cl 
DOCKED: ENDBRANCH  16  17
DOCKED: ENDBRANCH  15  16
DOCKED: ENDBRANCH  14  15
DOCKED: ENDBRANCH  13  14
DOCKED: ENDBRANCH   1  13
DOCKED: TORSDOF 9
DOCKED: TER
DOCKED: ENDMDL
________________________________________________________________________________


    FINAL DOCKED STATE:
    ________________________


Run:   14 / 20
Time taken for this run:   0.074s

DOCKED: MODEL        14
DOCKED: USER    Run = 14
DOCKED: USER
DOCKED: USER    Estimated Free Energy of Binding    =  -6.57 kcal/mol  [=(1)+(2)+(3)-(4)]
DOCKED: USER
DOCKED: USER    (1) Final Intermolecular Energy     =  -9.26 kcal/mol
DOCKED: USER        vdW + Hbond + desolv Energy     =  -9.22 kcal/mol
DOCKED: USER        Electrostatic Energy            =  -0.03 kcal/mol
DOCKED: USER        Moving Ligand-Fixed Receptor    =  -9.26 kcal/mol
DOCKED: USER        Moving Ligand-Moving Receptor   =  +0.00 kcal/mol
DOCKED: USER    (2) Final Total Internal Energy     =  -0.91 kcal/mol
DOCKED: USER    (3) Torsional Free Energy           =  +2.68 kcal/mol
DOCKED: USER    (4) Unbound System's Energy         =  -0.91 kcal/mol
DOCKED: USER
DOCKED: USER
DOCKED: REMARK SMILES O=C(CCCOc1ccc(Cl)cc1Cl)[N-]/N=C\c1cccnc1F
DOCKED: REMARK SMILES IDX 2 1 1 2 15 3 16 4 17 5 18 6 23 7 19 8 22 9 20 10 21 11 24 12
DOCKED: REMARK SMILES IDX 3 13 4 14 5 15 6 16 7 17 8 18 13 19 9 20 12 21 10 22 14 23
DOCKED: REMARK SMILES IDX 11 24
DOCKED: REMARK H PARENT
DOCKED: USER                              x       y       z     vdW  Elec       q    Type
DOCKED: USER                           _______ _______ _______ _____ _____    ______ ____
DOCKED: ROOT
DOCKED: ATOM      1  C   UNL     1     137.770  69.250 224.381 -0.28 -0.01    +0.068 C  
DOCKED: ATOM      2  O   UNL     1     136.586  68.883 224.599 -0.22 +0.00    -0.319 OA 
DOCKED: ENDROOT
DOCKED: BRANCH   1   3
DOCKED: ATOM      3  N   UNL     1     138.828  68.297 224.512 -0.29 +0.03    -0.545 NA 
DOCKED: BRANCH   3   4
DOCKED: ATOM      4  N   UNL     1     139.188  67.756 225.754 -0.70 +0.01    -0.372 NA 
DOCKED: BRANCH   4   5
DOCKED: ATOM      5  C   UNL     1     140.207  68.166 226.448 -0.57 -0.02    +0.099 C  
DOCKED: BRANCH   5   6
DOCKED: ATOM      6  C   UNL     1     140.454  69.584 226.802 -0.53 -0.01    +0.046 A  
DOCKED: ATOM      7  C   UNL     1     139.982  70.085 228.028 -0.44 -0.04    +0.221 A  
DOCKED: ATOM      8  C   UNL     1     141.221  70.434 225.986 -0.56 -0.00    +0.016 A  
DOCKED: ATOM      9  N   UNL     1     140.234  71.373 228.385 -0.44 +0.05    -0.228 NA 
DOCKED: ATOM     10  C   UNL     1     141.466  71.750 226.378 -0.65 -0.00    +0.021 A  
DOCKED: ATOM     11  C   UNL     1     140.954  72.209 227.591 -0.71 -0.03    +0.114 A  
DOCKED: ATOM     12  F   UNL     1     139.258  69.297 228.862 -0.16 +0.02    -0.184 F  
DOCKED: ENDBRANCH   5   6
DOCKED: ENDBRANCH   4   5
DOCKED: ENDBRANCH   3   4
DOCKED: ENDBRANCH   1   3
DOCKED: BRANCH   1  13
DOCKED: ATOM     13  C   UNL     1     138.043  70.685 224.018 -0.25 -0.01    +0.060 C  
DOCKED: BRANCH  13  14
DOCKED: ATOM     14  C   UNL     1     139.420  70.873 223.362 -0.30 -0.01    +0.048 C  
DOCKED: BRANCH  14  15
DOCKED: ATOM     15  C   UNL     1     139.421  71.950 222.272 -0.19 -0.05    +0.230 C  
DOCKED: BRANCH  15  16
DOCKED: ATOM     16  O   UNL     1     140.286  73.018 222.650 -0.58 +0.02    -0.492 OA 
DOCKED: BRANCH  16  17
DOCKED: ATOM     17  C   UNL     1     141.005  73.825 221.756 -0.18 -0.01    +0.137 A  
DOCKED: ATOM     18  C   UNL     1     142.158  73.365 221.088 -0.20 -0.01    +0.049 A  
DOCKED: ATOM     19  C   UNL     1     140.566  75.140 221.533 -0.30 -0.02    +0.084 A  
DOCKED: ATOM     20  C   UNL     1     142.866  74.219 220.236 -0.30 -0.01    +0.024 A  
DOCKED: ATOM     21  C   UNL     1     141.279  75.989 220.680 -0.26 -0.02    +0.045 A  
DOCKED: ATOM     22  C   UNL     1     142.431  75.530 220.035 -0.30 -0.02    +0.042 A  
DOCKED: ATOM     23  Cl  UNL     1     139.120  75.742 222.332 -0.37 +0.02    -0.080 Cl 
DOCKED: ATOM     24  Cl  UNL     1     143.326  76.600 218.972 -0.43 +0.06    -0.084 Cl 
DOCKED: ENDBRANCH  16  17
DOCKED: ENDBRANCH  15  16
DOCKED: ENDBRANCH  14  15
DOCKED: ENDBRANCH  13  14
DOCKED: ENDBRANCH   1  13
DOCKED: TORSDOF 9
DOCKED: TER
DOCKED: ENDMDL
________________________________________________________________________________


    FINAL DOCKED STATE:
    ________________________


Run:   15 / 20
Time taken for this run:   0.074s

DOCKED: MODEL        15
DOCKED: USER    Run = 15
DOCKED: USER
DOCKED: USER    Estimated Free Energy of Binding    =  -6.03 kcal/mol  [=(1)+(2)+(3)-(4)]
DOCKED: USER
DOCKED: USER    (1) Final Intermolecular Energy     =  -8.71 kcal/mol
DOCKED: USER        vdW + Hbond + desolv Energy     =  -8.81 kcal/mol
DOCKED: USER        Electrostatic Energy            =  +0.10 kcal/mol
DOCKED: USER        Moving Ligand-Fixed Receptor    =  -8.71 kcal/mol
DOCKED: USER        Moving Ligand-Moving Receptor   =  +0.00 kcal/mol
DOCKED: USER    (2) Final Total Internal Energy     =  -0.67 kcal/mol
DOCKED: USER    (3) Torsional Free Energy           =  +2.68 kcal/mol
DOCKED: USER    (4) Unbound System's Energy         =  -0.67 kcal/mol
DOCKED: USER
DOCKED: USER
DOCKED: REMARK SMILES O=C(CCCOc1ccc(Cl)cc1Cl)[N-]/N=C\c1cccnc1F
DOCKED: REMARK SMILES IDX 2 1 1 2 15 3 16 4 17 5 18 6 23 7 19 8 22 9 20 10 21 11 24 12
DOCKED: REMARK SMILES IDX 3 13 4 14 5 15 6 16 7 17 8 18 13 19 9 20 12 21 10 22 14 23
DOCKED: REMARK SMILES IDX 11 24
DOCKED: REMARK H PARENT
DOCKED: USER                              x       y       z     vdW  Elec       q    Type
DOCKED: USER                           _______ _______ _______ _____ _____    ______ ____
DOCKED: ROOT
DOCKED: ATOM      1  C   UNL     1     140.701  74.257 221.185 -0.26 -0.01    +0.068 C  
DOCKED: ATOM      2  O   UNL     1     140.252  74.488 222.338 -0.76 -0.01    -0.319 OA 
DOCKED: ENDROOT
DOCKED: BRANCH   1   3
DOCKED: ATOM      3  N   UNL     1     141.425  75.283 220.503 -0.03 +0.18    -0.545 NA 
DOCKED: BRANCH   3   4
DOCKED: ATOM      4  N   UNL     1     141.933  75.097 219.209 -0.03 +0.13    -0.372 NA 
DOCKED: BRANCH   4   5
DOCKED: ATOM      5  C   UNL     1     143.196  75.183 218.914 -0.25 -0.04    +0.099 C  
DOCKED: BRANCH   5   6
DOCKED: ATOM      6  C   UNL     1     144.235  74.264 219.436 -0.31 -0.02    +0.046 A  
DOCKED: ATOM      7  C   UNL     1     144.959  73.457 218.541 -0.14 -0.00    +0.221 A  
DOCKED: ATOM      8  C   UNL     1     144.583  74.227 220.797 -0.42 -0.01    +0.016 A  
DOCKED: ATOM      9  N   UNL     1     145.943  72.637 218.999 -0.74 -0.19    -0.228 NA 
DOCKED: ATOM     10  C   UNL     1     145.598  73.378 221.239 -0.66 -0.00    +0.021 A  
DOCKED: ATOM     11  C   UNL     1     146.270  72.577 220.317 -0.34 +0.04    +0.114 A  
DOCKED: ATOM     12  F   UNL     1     144.678  73.474 217.213 -0.02 +0.01    -0.184 F  
DOCKED: ENDBRANCH   5   6
DOCKED: ENDBRANCH   4   5
DOCKED: ENDBRANCH   3   4
DOCKED: ENDBRANCH   1   3
DOCKED: BRANCH   1  13
DOCKED: ATOM     13  C   UNL     1     140.437  72.920 220.545 -0.14 -0.01    +0.060 C  
DOCKED: BRANCH  13  14
DOCKED: ATOM     14  C   UNL     1     139.756  71.933 221.509 -0.19 -0.01    +0.048 C  
DOCKED: BRANCH  14  15
DOCKED: ATOM     15  C   UNL     1     140.623  71.591 222.725 -0.19 -0.02    +0.230 C  
DOCKED: BRANCH  15  16
DOCKED: ATOM     16  O   UNL     1     139.822  71.592 223.904 -0.18 +0.10    -0.492 OA 
DOCKED: BRANCH  16  17
DOCKED: ATOM     17  C   UNL     1     140.093  70.848 225.061 -0.40 -0.02    +0.137 A  
DOCKED: ATOM     18  C   UNL     1     140.784  71.393 226.161 -0.61 -0.01    +0.049 A  
DOCKED: ATOM     19  C   UNL     1     139.671  69.509 225.114 -0.35 -0.01    +0.084 A  
DOCKED: ATOM     20  C   UNL     1     141.067  70.601 227.278 -0.61 -0.00    +0.024 A  
DOCKED: ATOM     21  C   UNL     1     139.958  68.722 226.235 -0.52 -0.01    +0.045 A  
DOCKED: ATOM     22  C   UNL     1     140.659  69.266 227.315 -0.57 -0.01    +0.042 A  
DOCKED: ATOM     23  Cl  UNL     1     138.788  68.801 223.770 -0.37 +0.01    -0.080 Cl 
DOCKED: ATOM     24  Cl  UNL     1     141.022  68.274 228.714 -0.70 +0.02    -0.084 Cl 
DOCKED: ENDBRANCH  16  17
DOCKED: ENDBRANCH  15  16
DOCKED: ENDBRANCH  14  15
DOCKED: ENDBRANCH  13  14
DOCKED: ENDBRANCH   1  13
DOCKED: TORSDOF 9
DOCKED: TER
DOCKED: ENDMDL
________________________________________________________________________________


    FINAL DOCKED STATE:
    ________________________


Run:   16 / 20
Time taken for this run:   0.074s

DOCKED: MODEL        16
DOCKED: USER    Run = 16
DOCKED: USER
DOCKED: USER    Estimated Free Energy of Binding    =  -6.07 kcal/mol  [=(1)+(2)+(3)-(4)]
DOCKED: USER
DOCKED: USER    (1) Final Intermolecular Energy     =  -8.76 kcal/mol
DOCKED: USER        vdW + Hbond + desolv Energy     =  -9.01 kcal/mol
DOCKED: USER        Electrostatic Energy            =  +0.25 kcal/mol
DOCKED: USER        Moving Ligand-Fixed Receptor    =  -8.76 kcal/mol
DOCKED: USER        Moving Ligand-Moving Receptor   =  +0.00 kcal/mol
DOCKED: USER    (2) Final Total Internal Energy     =  -0.47 kcal/mol
DOCKED: USER    (3) Torsional Free Energy           =  +2.68 kcal/mol
DOCKED: USER    (4) Unbound System's Energy         =  -0.47 kcal/mol
DOCKED: USER
DOCKED: USER
DOCKED: REMARK SMILES O=C(CCCOc1ccc(Cl)cc1Cl)[N-]/N=C\c1cccnc1F
DOCKED: REMARK SMILES IDX 2 1 1 2 15 3 16 4 17 5 18 6 23 7 19 8 22 9 20 10 21 11 24 12
DOCKED: REMARK SMILES IDX 3 13 4 14 5 15 6 16 7 17 8 18 13 19 9 20 12 21 10 22 14 23
DOCKED: REMARK SMILES IDX 11 24
DOCKED: REMARK H PARENT
DOCKED: USER                              x       y       z     vdW  Elec       q    Type
DOCKED: USER                           _______ _______ _______ _____ _____    ______ ____
DOCKED: ROOT
DOCKED: ATOM      1  C   UNL     1     141.101  74.038 221.280 -0.27 -0.01    +0.068 C  
DOCKED: ATOM      2  O   UNL     1     142.010  74.697 220.710 -0.19 +0.10    -0.319 OA 
DOCKED: ENDROOT
DOCKED: BRANCH   1   3
DOCKED: ATOM      3  N   UNL     1     140.058  74.740 221.962 -0.59 +0.06    -0.545 NA 
DOCKED: BRANCH   3   4
DOCKED: ATOM      4  N   UNL     1     140.272  75.993 222.552 -0.22 +0.06    -0.372 NA 
DOCKED: BRANCH   4   5
DOCKED: ATOM      5  C   UNL     1     140.257  77.111 221.890 -0.32 -0.03    +0.099 C  
DOCKED: BRANCH   5   6
DOCKED: ATOM      6  C   UNL     1     141.082  78.293 222.236 -0.41 -0.02    +0.046 A  
DOCKED: ATOM      7  C   UNL     1     141.463  79.192 221.224 -0.24 -0.10    +0.221 A  
DOCKED: ATOM      8  C   UNL     1     141.434  78.595 223.563 -0.56 -0.00    +0.016 A  
DOCKED: ATOM      9  N   UNL     1     142.187  80.302 221.531 -0.28 +0.09    -0.228 NA 
DOCKED: ATOM     10  C   UNL     1     142.175  79.741 223.849 -0.61 -0.01    +0.021 A  
DOCKED: ATOM     11  C   UNL     1     142.552  80.589 222.808 -0.53 -0.03    +0.114 A  
DOCKED: ATOM     12  F   UNL     1     141.126  78.959 219.931 -0.04 +0.08    -0.184 F  
DOCKED: ENDBRANCH   5   6
DOCKED: ENDBRANCH   4   5
DOCKED: ENDBRANCH   3   4
DOCKED: ENDBRANCH   1   3
DOCKED: BRANCH   1  13
DOCKED: ATOM     13  C   UNL     1     141.152  72.534 221.252 -0.24 -0.01    +0.060 C  
DOCKED: BRANCH  13  14
DOCKED: ATOM     14  C   UNL     1     140.948  71.915 222.645 -0.18 -0.00    +0.048 C  
DOCKED: BRANCH  14  15
DOCKED: ATOM     15  C   UNL     1     139.530  71.372 222.856 -0.21 -0.04    +0.230 C  
DOCKED: BRANCH  15  16
DOCKED: ATOM     16  O   UNL     1     139.135  71.570 224.211 -0.10 +0.15    -0.492 OA 
DOCKED: BRANCH  16  17
DOCKED: ATOM     17  C   UNL     1     139.589  70.812 225.300 -0.35 -0.02    +0.137 A  
DOCKED: ATOM     18  C   UNL     1     140.541  71.305 226.215 -0.58 -0.01    +0.049 A  
DOCKED: ATOM     19  C   UNL     1     139.086  69.512 225.472 -0.36 -0.01    +0.084 A  
DOCKED: ATOM     20  C   UNL     1     140.994  70.499 227.263 -0.60 -0.00    +0.024 A  
DOCKED: ATOM     21  C   UNL     1     139.544  68.710 226.522 -0.53 -0.01    +0.045 A  
DOCKED: ATOM     22  C   UNL     1     140.501  69.201 227.415 -0.58 -0.01    +0.042 A  
DOCKED: ATOM     23  Cl  UNL     1     137.882  68.870 224.363 -0.33 +0.01    -0.080 Cl 
DOCKED: ATOM     24  Cl  UNL     1     141.077  68.190 228.727 -0.70 +0.02    -0.084 Cl 
DOCKED: ENDBRANCH  16  17
DOCKED: ENDBRANCH  15  16
DOCKED: ENDBRANCH  14  15
DOCKED: ENDBRANCH  13  14
DOCKED: ENDBRANCH   1  13
DOCKED: TORSDOF 9
DOCKED: TER
DOCKED: ENDMDL
________________________________________________________________________________


    FINAL DOCKED STATE:
    ________________________


Run:   17 / 20
Time taken for this run:   0.074s

DOCKED: MODEL        17
DOCKED: USER    Run = 17
DOCKED: USER
DOCKED: USER    Estimated Free Energy of Binding    =  -6.49 kcal/mol  [=(1)+(2)+(3)-(4)]
DOCKED: USER
DOCKED: USER    (1) Final Intermolecular Energy     =  -9.17 kcal/mol
DOCKED: USER        vdW + Hbond + desolv Energy     =  -9.25 kcal/mol
DOCKED: USER        Electrostatic Energy            =  +0.07 kcal/mol
DOCKED: USER        Moving Ligand-Fixed Receptor    =  -9.17 kcal/mol
DOCKED: USER        Moving Ligand-Moving Receptor   =  +0.00 kcal/mol
DOCKED: USER    (2) Final Total Internal Energy     =  -0.96 kcal/mol
DOCKED: USER    (3) Torsional Free Energy           =  +2.68 kcal/mol
DOCKED: USER    (4) Unbound System's Energy         =  -0.96 kcal/mol
DOCKED: USER
DOCKED: USER
DOCKED: REMARK SMILES O=C(CCCOc1ccc(Cl)cc1Cl)[N-]/N=C\c1cccnc1F
DOCKED: REMARK SMILES IDX 2 1 1 2 15 3 16 4 17 5 18 6 23 7 19 8 22 9 20 10 21 11 24 12
DOCKED: REMARK SMILES IDX 3 13 4 14 5 15 6 16 7 17 8 18 13 19 9 20 12 21 10 22 14 23
DOCKED: REMARK SMILES IDX 11 24
DOCKED: REMARK H PARENT
DOCKED: USER                              x       y       z     vdW  Elec       q    Type
DOCKED: USER                           _______ _______ _______ _____ _____    ______ ____
DOCKED: ROOT
DOCKED: ATOM      1  C   UNL     1     138.947  68.707 223.922 -0.27 -0.01    +0.068 C  
DOCKED: ATOM      2  O   UNL     1     139.301  68.799 222.718 -0.10 +0.06    -0.319 OA 
DOCKED: ENDROOT
DOCKED: BRANCH   1   3
DOCKED: ATOM      3  N   UNL     1     139.161  67.476 224.617 -0.49 -0.01    -0.545 NA 
DOCKED: BRANCH   3   4
DOCKED: ATOM      4  N   UNL     1     139.263  67.422 226.014 -0.71 +0.01    -0.372 NA 
DOCKED: BRANCH   4   5
DOCKED: ATOM      5  C   UNL     1     140.263  67.918 226.681 -0.59 -0.02    +0.099 C  
DOCKED: BRANCH   5   6
DOCKED: ATOM      6  C   UNL     1     140.477  69.368 226.901 -0.54 -0.01    +0.046 A  
DOCKED: ATOM      7  C   UNL     1     139.983  69.972 228.070 -0.43 -0.04    +0.221 A  
DOCKED: ATOM      8  C   UNL     1     141.233  70.153 226.014 -0.53 -0.00    +0.016 A  
DOCKED: ATOM      9  N   UNL     1     140.204  71.293 228.305 -0.45 +0.05    -0.228 NA 
DOCKED: ATOM     10  C   UNL     1     141.448  71.505 226.282 -0.65 -0.00    +0.021 A  
DOCKED: ATOM     11  C   UNL     1     140.915  72.066 227.442 -0.70 -0.02    +0.114 A  
DOCKED: ATOM     12  F   UNL     1     139.268  69.251 228.970 -0.15 +0.02    -0.184 F  
DOCKED: ENDBRANCH   5   6
DOCKED: ENDBRANCH   4   5
DOCKED: ENDBRANCH   3   4
DOCKED: ENDBRANCH   1   3
DOCKED: BRANCH   1  13
DOCKED: ATOM     13  C   UNL     1     138.284  69.883 224.588 -0.31 -0.01    +0.060 C  
DOCKED: BRANCH  13  14
DOCKED: ATOM     14  C   UNL     1     138.233  71.121 223.677 -0.25 -0.01    +0.048 C  
DOCKED: BRANCH  14  15
DOCKED: ATOM     15  C   UNL     1     139.624  71.658 223.321 -0.23 -0.05    +0.230 C  
DOCKED: BRANCH  15  16
DOCKED: ATOM     16  O   UNL     1     139.502  72.933 222.694 -0.42 +0.11    -0.492 OA 
DOCKED: BRANCH  16  17
DOCKED: ATOM     17  C   UNL     1     140.486  73.533 221.894 -0.23 -0.01    +0.137 A  
DOCKED: ATOM     18  C   UNL     1     141.564  72.803 221.355 -0.23 -0.00    +0.049 A  
DOCKED: ATOM     19  C   UNL     1     140.397  74.911 221.638 -0.29 -0.01    +0.084 A  
DOCKED: ATOM     20  C   UNL     1     142.543  73.451 220.596 -0.27 -0.00    +0.024 A  
DOCKED: ATOM     21  C   UNL     1     141.380  75.553 220.879 -0.29 -0.02    +0.045 A  
DOCKED: ATOM     22  C   UNL     1     142.455  74.825 220.361 -0.29 -0.02    +0.042 A  
DOCKED: ATOM     23  Cl  UNL     1     139.055  75.849 222.277 -0.38 +0.02    -0.080 Cl 
DOCKED: ATOM     24  Cl  UNL     1     143.689  75.636 219.415 -0.43 +0.05    -0.084 Cl 
DOCKED: ENDBRANCH  16  17
DOCKED: ENDBRANCH  15  16
DOCKED: ENDBRANCH  14  15
DOCKED: ENDBRANCH  13  14
DOCKED: ENDBRANCH   1  13
DOCKED: TORSDOF 9
DOCKED: TER
DOCKED: ENDMDL
________________________________________________________________________________


    FINAL DOCKED STATE:
    ________________________


Run:   18 / 20
Time taken for this run:   0.074s

DOCKED: MODEL        18
DOCKED: USER    Run = 18
DOCKED: USER
DOCKED: USER    Estimated Free Energy of Binding    =  -6.05 kcal/mol  [=(1)+(2)+(3)-(4)]
DOCKED: USER
DOCKED: USER    (1) Final Intermolecular Energy     =  -8.73 kcal/mol
DOCKED: USER        vdW + Hbond + desolv Energy     =  -8.78 kcal/mol
DOCKED: USER        Electrostatic Energy            =  +0.05 kcal/mol
DOCKED: USER        Moving Ligand-Fixed Receptor    =  -8.73 kcal/mol
DOCKED: USER        Moving Ligand-Moving Receptor   =  +0.00 kcal/mol
DOCKED: USER    (2) Final Total Internal Energy     =  -0.66 kcal/mol
DOCKED: USER    (3) Torsional Free Energy           =  +2.68 kcal/mol
DOCKED: USER    (4) Unbound System's Energy         =  -0.66 kcal/mol
DOCKED: USER
DOCKED: USER
DOCKED: REMARK SMILES O=C(CCCOc1ccc(Cl)cc1Cl)[N-]/N=C\c1cccnc1F
DOCKED: REMARK SMILES IDX 2 1 1 2 15 3 16 4 17 5 18 6 23 7 19 8 22 9 20 10 21 11 24 12
DOCKED: REMARK SMILES IDX 3 13 4 14 5 15 6 16 7 17 8 18 13 19 9 20 12 21 10 22 14 23
DOCKED: REMARK SMILES IDX 11 24
DOCKED: REMARK H PARENT
DOCKED: USER                              x       y       z     vdW  Elec       q    Type
DOCKED: USER                           _______ _______ _______ _____ _____    ______ ____
DOCKED: ROOT
DOCKED: ATOM      1  C   UNL     1     140.629  72.937 221.259 -0.23 -0.01    +0.068 C  
DOCKED: ATOM      2  O   UNL     1     139.855  72.357 220.453 -0.04 +0.06    -0.319 OA 
DOCKED: ENDROOT
DOCKED: BRANCH   1   3
DOCKED: ATOM      3  N   UNL     1     140.225  73.088 222.622 -0.49 +0.02    -0.545 NA 
DOCKED: BRANCH   3   4
DOCKED: ATOM      4  N   UNL     1     140.694  72.236 223.632 -0.16 +0.02    -0.372 NA 
DOCKED: BRANCH   4   5
DOCKED: ATOM      5  C   UNL     1     139.933  71.408 224.284 -0.37 -0.02    +0.099 C  
DOCKED: BRANCH   5   6
DOCKED: ATOM      6  C   UNL     1     140.131  71.043 225.707 -0.51 -0.01    +0.046 A  
DOCKED: ATOM      7  C   UNL     1     139.696  69.788 226.168 -0.32 -0.03    +0.221 A  
DOCKED: ATOM      8  C   UNL     1     140.815  71.881 226.604 -0.68 -0.00    +0.016 A  
DOCKED: ATOM      9  N   UNL     1     139.905  69.423 227.461 -0.34 +0.04    -0.228 NA 
DOCKED: ATOM     10  C   UNL     1     141.017  71.480 227.924 -0.79 -0.00    +0.021 A  
DOCKED: ATOM     11  C   UNL     1     140.545  70.236 228.341 -0.47 -0.02    +0.114 A  
DOCKED: ATOM     12  F   UNL     1     139.052  68.932 225.334 -0.11 +0.02    -0.184 F  
DOCKED: ENDBRANCH   5   6
DOCKED: ENDBRANCH   4   5
DOCKED: ENDBRANCH   3   4
DOCKED: ENDBRANCH   1   3
DOCKED: BRANCH   1  13
DOCKED: ATOM     13  C   UNL     1     141.941  73.481 220.760 -0.24 -0.01    +0.060 C  
DOCKED: BRANCH  13  14
DOCKED: ATOM     14  C   UNL     1     141.943  75.017 220.672 -0.28 -0.02    +0.048 C  
DOCKED: BRANCH  14  15
DOCKED: ATOM     15  C   UNL     1     140.534  75.618 220.685 -0.16 -0.07    +0.230 C  
DOCKED: BRANCH  15  16
DOCKED: ATOM     16  O   UNL     1     140.606  77.020 220.438 -0.02 +0.18    -0.492 OA 
DOCKED: BRANCH  16  17
DOCKED: ATOM     17  C   UNL     1     141.099  77.972 221.342 -0.27 -0.06    +0.137 A  
DOCKED: ATOM     18  C   UNL     1     141.021  77.794 222.738 -0.44 -0.02    +0.049 A  
DOCKED: ATOM     19  C   UNL     1     141.676  79.148 220.834 -0.29 -0.04    +0.084 A  
DOCKED: ATOM     20  C   UNL     1     141.490  78.789 223.602 -0.58 -0.01    +0.024 A  
DOCKED: ATOM     21  C   UNL     1     142.142  80.139 221.704 -0.44 -0.02    +0.045 A  
DOCKED: ATOM     22  C   UNL     1     142.046  79.962 223.087 -0.58 -0.01    +0.042 A  
DOCKED: ATOM     23  Cl  UNL     1     141.809  79.395 219.099 -0.35 +0.05    -0.080 Cl 
DOCKED: ATOM     24  Cl  UNL     1     142.626  81.210 224.174 -0.63 +0.01    -0.084 Cl 
DOCKED: ENDBRANCH  16  17
DOCKED: ENDBRANCH  15  16
DOCKED: ENDBRANCH  14  15
DOCKED: ENDBRANCH  13  14
DOCKED: ENDBRANCH   1  13
DOCKED: TORSDOF 9
DOCKED: TER
DOCKED: ENDMDL
________________________________________________________________________________


    FINAL DOCKED STATE:
    ________________________


Run:   19 / 20
Time taken for this run:   0.074s

DOCKED: MODEL        19
DOCKED: USER    Run = 19
DOCKED: USER
DOCKED: USER    Estimated Free Energy of Binding    =  -6.58 kcal/mol  [=(1)+(2)+(3)-(4)]
DOCKED: USER
DOCKED: USER    (1) Final Intermolecular Energy     =  -9.26 kcal/mol
DOCKED: USER        vdW + Hbond + desolv Energy     =  -9.19 kcal/mol
DOCKED: USER        Electrostatic Energy            =  -0.08 kcal/mol
DOCKED: USER        Moving Ligand-Fixed Receptor    =  -9.26 kcal/mol
DOCKED: USER        Moving Ligand-Moving Receptor   =  +0.00 kcal/mol
DOCKED: USER    (2) Final Total Internal Energy     =  -0.99 kcal/mol
DOCKED: USER    (3) Torsional Free Energy           =  +2.68 kcal/mol
DOCKED: USER    (4) Unbound System's Energy         =  -0.99 kcal/mol
DOCKED: USER
DOCKED: USER
DOCKED: REMARK SMILES O=C(CCCOc1ccc(Cl)cc1Cl)[N-]/N=C\c1cccnc1F
DOCKED: REMARK SMILES IDX 2 1 1 2 15 3 16 4 17 5 18 6 23 7 19 8 22 9 20 10 21 11 24 12
DOCKED: REMARK SMILES IDX 3 13 4 14 5 15 6 16 7 17 8 18 13 19 9 20 12 21 10 22 14 23
DOCKED: REMARK SMILES IDX 11 24
DOCKED: REMARK H PARENT
DOCKED: USER                              x       y       z     vdW  Elec       q    Type
DOCKED: USER                           _______ _______ _______ _____ _____    ______ ____
DOCKED: ROOT
DOCKED: ATOM      1  C   UNL     1     138.525  68.752 223.982 -0.29 -0.01    +0.068 C  
DOCKED: ATOM      2  O   UNL     1     137.321  69.033 224.214 -0.15 +0.02    -0.319 OA 
DOCKED: ENDROOT
DOCKED: BRANCH   1   3
DOCKED: ATOM      3  N   UNL     1     139.100  67.596 224.597 -0.47 -0.01    -0.545 NA 
DOCKED: BRANCH   3   4
DOCKED: ATOM      4  N   UNL     1     139.179  67.460 225.990 -0.72 +0.00    -0.372 NA 
DOCKED: BRANCH   4   5
DOCKED: ATOM      5  C   UNL     1     140.160  67.929 226.703 -0.59 -0.02    +0.099 C  
DOCKED: BRANCH   5   6
DOCKED: ATOM      6  C   UNL     1     140.414  69.373 226.918 -0.54 -0.01    +0.046 A  
DOCKED: ATOM      7  C   UNL     1     139.935  69.995 228.084 -0.43 -0.04    +0.221 A  
DOCKED: ATOM      8  C   UNL     1     141.194  70.133 226.030 -0.53 -0.00    +0.016 A  
DOCKED: ATOM      9  N   UNL     1     140.193  71.310 228.315 -0.46 +0.05    -0.228 NA 
DOCKED: ATOM     10  C   UNL     1     141.446  71.480 226.294 -0.65 -0.00    +0.021 A  
DOCKED: ATOM     11  C   UNL     1     140.927  72.059 227.450 -0.70 -0.02    +0.114 A  
DOCKED: ATOM     12  F   UNL     1     139.198  69.298 228.985 -0.15 +0.02    -0.184 F  
DOCKED: ENDBRANCH   5   6
DOCKED: ENDBRANCH   4   5
DOCKED: ENDBRANCH   3   4
DOCKED: ENDBRANCH   1   3
DOCKED: BRANCH   1  13
DOCKED: ATOM     13  C   UNL     1     139.335  69.656 223.091 -0.19 -0.01    +0.060 C  
DOCKED: BRANCH  13  14
DOCKED: ATOM     14  C   UNL     1     138.849  71.114 223.137 -0.26 -0.01    +0.048 C  
DOCKED: BRANCH  14  15
DOCKED: ATOM     15  C   UNL     1     139.967  72.106 223.476 -0.13 -0.04    +0.230 C  
DOCKED: BRANCH  15  16
DOCKED: ATOM     16  O   UNL     1     140.201  72.967 222.364 -0.55 +0.04    -0.492 OA 
DOCKED: BRANCH  16  17
DOCKED: ATOM     17  C   UNL     1     141.387  73.013 221.617 -0.19 -0.01    +0.137 A  
DOCKED: ATOM     18  C   UNL     1     142.126  71.854 221.308 -0.16 -0.00    +0.049 A  
DOCKED: ATOM     19  C   UNL     1     141.858  74.261 221.177 -0.21 -0.02    +0.084 A  
DOCKED: ATOM     20  C   UNL     1     143.325  71.952 220.595 -0.28 -0.00    +0.024 A  
DOCKED: ATOM     21  C   UNL     1     143.058  74.352 220.465 -0.32 -0.02    +0.045 A  
DOCKED: ATOM     22  C   UNL     1     143.794  73.199 220.177 -0.33 -0.01    +0.042 A  
DOCKED: ATOM     23  Cl  UNL     1     140.951  75.726 221.526 -0.43 +0.02    -0.080 Cl 
DOCKED: ATOM     24  Cl  UNL     1     145.301  73.319 219.290 -0.46 -0.01    -0.084 Cl 
DOCKED: ENDBRANCH  16  17
DOCKED: ENDBRANCH  15  16
DOCKED: ENDBRANCH  14  15
DOCKED: ENDBRANCH  13  14
DOCKED: ENDBRANCH   1  13
DOCKED: TORSDOF 9
DOCKED: TER
DOCKED: ENDMDL
________________________________________________________________________________


    FINAL DOCKED STATE:
    ________________________


Run:   20 / 20
Time taken for this run:   0.074s

DOCKED: MODEL        20
DOCKED: USER    Run = 20
DOCKED: USER
DOCKED: USER    Estimated Free Energy of Binding    =  -6.26 kcal/mol  [=(1)+(2)+(3)-(4)]
DOCKED: USER
DOCKED: USER    (1) Final Intermolecular Energy     =  -8.95 kcal/mol
DOCKED: USER        vdW + Hbond + desolv Energy     =  -9.30 kcal/mol
DOCKED: USER        Electrostatic Energy            =  +0.35 kcal/mol
DOCKED: USER        Moving Ligand-Fixed Receptor    =  -8.95 kcal/mol
DOCKED: USER        Moving Ligand-Moving Receptor   =  +0.00 kcal/mol
DOCKED: USER    (2) Final Total Internal Energy     =  -0.43 kcal/mol
DOCKED: USER    (3) Torsional Free Energy           =  +2.68 kcal/mol
DOCKED: USER    (4) Unbound System's Energy         =  -0.43 kcal/mol
DOCKED: USER
DOCKED: USER
DOCKED: REMARK SMILES O=C(CCCOc1ccc(Cl)cc1Cl)[N-]/N=C\c1cccnc1F
DOCKED: REMARK SMILES IDX 2 1 1 2 15 3 16 4 17 5 18 6 23 7 19 8 22 9 20 10 21 11 24 12
DOCKED: REMARK SMILES IDX 3 13 4 14 5 15 6 16 7 17 8 18 13 19 9 20 12 21 10 22 14 23
DOCKED: REMARK SMILES IDX 11 24
DOCKED: REMARK H PARENT
DOCKED: USER                              x       y       z     vdW  Elec       q    Type
DOCKED: USER                           _______ _______ _______ _____ _____    ______ ____
DOCKED: ROOT
DOCKED: ATOM      1  C   UNL     1     140.201  74.376 221.554 -0.28 -0.01    +0.068 C  
DOCKED: ATOM      2  O   UNL     1     139.286  74.683 222.362 -0.63 +0.06    -0.319 OA 
DOCKED: ENDROOT
DOCKED: BRANCH   1   3
DOCKED: ATOM      3  N   UNL     1     141.263  75.304 221.322 -0.12 +0.16    -0.545 NA 
DOCKED: BRANCH   3   4
DOCKED: ATOM      4  N   UNL     1     141.100  76.682 221.522 -0.15 +0.16    -0.372 NA 
DOCKED: BRANCH   4   5
DOCKED: ATOM      5  C   UNL     1     140.992  77.230 222.696 -0.32 -0.04    +0.099 C  
DOCKED: BRANCH   5   6
DOCKED: ATOM      6  C   UNL     1     141.302  78.652 222.980 -0.51 -0.02    +0.046 A  
DOCKED: ATOM      7  C   UNL     1     140.293  79.494 223.479 -0.33 -0.04    +0.221 A  
DOCKED: ATOM      8  C   UNL     1     142.599  79.175 222.844 -0.51 -0.01    +0.016 A  
DOCKED: ATOM      9  N   UNL     1     140.570  80.791 223.782 -0.27 +0.03    -0.228 NA 
DOCKED: ATOM     10  C   UNL     1     142.855  80.508 223.164 -0.65 -0.01    +0.021 A  
DOCKED: ATOM     11  C   UNL     1     141.816  81.311 223.631 -0.50 -0.02    +0.114 A  
DOCKED: ATOM     12  F   UNL     1     139.029  79.030 223.652 -0.12 +0.02    -0.184 F  
DOCKED: ENDBRANCH   5   6
DOCKED: ENDBRANCH   4   5
DOCKED: ENDBRANCH   3   4
DOCKED: ENDBRANCH   1   3
DOCKED: BRANCH   1  13
DOCKED: ATOM     13  C   UNL     1     140.136  73.056 220.833 -0.17 -0.01    +0.060 C  
DOCKED: BRANCH  13  14
DOCKED: ATOM     14  C   UNL     1     139.749  71.896 221.766 -0.22 -0.01    +0.048 C  
DOCKED: BRANCH  14  15
DOCKED: ATOM     15  C   UNL     1     140.558  71.881 223.068 -0.22 -0.02    +0.230 C  
DOCKED: BRANCH  15  16
DOCKED: ATOM     16  O   UNL     1     139.688  71.646 224.173 -0.16 +0.12    -0.492 OA 
DOCKED: BRANCH  16  17
DOCKED: ATOM     17  C   UNL     1     140.002  70.857 225.289 -0.41 -0.02    +0.137 A  
DOCKED: ATOM     18  C   UNL     1     140.690  71.373 226.405 -0.62 -0.01    +0.049 A  
DOCKED: ATOM     19  C   UNL     1     139.628  69.503 225.283 -0.37 -0.01    +0.084 A  
DOCKED: ATOM     20  C   UNL     1     141.017  70.539 227.479 -0.61 -0.00    +0.024 A  
DOCKED: ATOM     21  C   UNL     1     139.959  68.674 226.360 -0.54 -0.01    +0.045 A  
DOCKED: ATOM     22  C   UNL     1     140.656  69.190 227.456 -0.59 -0.01    +0.042 A  
DOCKED: ATOM     23  Cl  UNL     1     138.750  68.829 223.917 -0.39 +0.01    -0.080 Cl 
DOCKED: ATOM     24  Cl  UNL     1     141.074  68.145 228.800 -0.65 +0.02    -0.084 Cl 
DOCKED: ENDBRANCH  16  17
DOCKED: ENDBRANCH  15  16
DOCKED: ENDBRANCH  14  15
DOCKED: ENDBRANCH  13  14
DOCKED: ENDBRANCH   1  13
DOCKED: TORSDOF 9
DOCKED: TER
DOCKED: ENDMDL
________________________________________________________________________________


    CLUSTERING HISTOGRAM
    ____________________


________________________________________________________________________________
     |           |     |           |     |
Clus | Lowest    | Run | Mean      | Num | Histogram
-ter | Binding   |     | Binding   | in  |
Rank | Energy    |     | Energy    | Clus|    5    10   15   20   25   30   35
_____|___________|_____|___________|_____|____:____|____:____|____:____|____:___
   1 |     -6.58 |  19 |     -6.35 |  10 |##########
   2 |     -6.32 |   4 |     -6.13 |   3 |###
   3 |     -6.26 |  20 |     -6.08 |   3 |###
   4 |     -6.03 |  15 |     -6.03 |   1 |#
   5 |     -5.99 |   9 |     -5.99 |   1 |#
   6 |     -5.88 |   3 |     -5.88 |   1 |#
   7 |     -5.36 |   8 |     -5.36 |   1 |#
_____|___________|_____|___________|_____|______________________________________


    RMSD TABLE
    __________


_______________________________________________________________________
     |      |      |           |         |                 |
Rank | Sub- | Run  | Binding   | Cluster | Reference       | Grep
     | Rank |      | Energy    | RMSD    | RMSD            | Pattern
_____|______|______|___________|_________|_________________|___________
   1      1     19       -6.58      0.00    271.54           RANKING
   1      2     14       -6.57      1.18    271.50           RANKING
   1      3      2       -6.50      0.48    271.47           RANKING
   1      4     17       -6.49      1.11    271.51           RANKING
   1      5      5       -6.42      1.47    271.37           RANKING
   1      6      7       -6.30      0.49    271.53           RANKING
   1      7     12       -6.29      1.11    271.47           RANKING
   1      8      1       -6.29      1.48    271.58           RANKING
   1      9     11       -6.07      0.91    271.45           RANKING
   1     10     10       -6.02      1.44    271.24           RANKING
   2      1      4       -6.32      0.00    272.17           RANKING
   2      2     18       -6.05      1.86    271.97           RANKING
   2      3     13       -6.03      1.40    271.87           RANKING
   3      1     20       -6.26      0.00    272.21           RANKING
   3      2     16       -6.07      1.51    271.92           RANKING
   3      3      6       -5.91      1.06    272.04           RANKING
   4      1     15       -6.03      0.00    271.12           RANKING
   5      1      9       -5.99      0.00    271.50           RANKING
   6      1      3       -5.88      0.00    271.31           RANKING
   7      1      8       -5.36      0.00    270.86           RANKING

Run time 1.458 sec
Idle time 0.000 sec
