AutoDock-GPU version: v1.6

**********************************************************
**    AutoDock-GPU AUTODOCKTOOLS-COMPATIBLE DLG FILE    **
**********************************************************


    DOCKING PARAMETERS
    ________________________


Ligand file:                               /home/a/REINVENT4/ReinventStudies/scoringData/graph-dock-34dfml/graph-DockGPU/node-autodockgpu/inputs/AMYMGDKGSBDGMC-NYADSFOUNA-M.pdbqt
Grid fld file:                             /home/a/REINVENT4/ReinventStudies/mols/Rad51/maps/rad51_receptor.maps.fld

Random seed:                               42
Number of runs:                            20
Number of energy evaluations:              2040163
Number of generations:                     42000
Size of population:                        150
Rate of crossover:                         80.000000%
Tournament selection probability limit:    60.000000%
Rate of mutation:                          2.000000%
Maximal allowed delta movement:            +/- 6.000000A
Maximal allowed delta angle:               +/- 90.000000

Rate of local search:                      100.000000%
Maximal number of local search iterations: 300
Rho lower bound:                           0.010000
Spread of local search delta movement:     2.000000A
Spread of local search delta angle:        74.999999
Limit of consecutive successes/failures:   4

Handle symmetry during clustering:         YES
RMSD tolerance:                            2.000000A

Program call in command line was:          /home/a/REINVENT4/ReinventStudies/adgpu-v1.6_linux_x64_cuda12_128wi --filelist batch.txt --heuristics 1 --nrun 20 --psize 150 --lsit 300 --seed 42 --heurmax 12000000 


    GRID PARAMETERS
    ________________________


Receptor name:                             rad51_receptor
Number of grid points (x, y, z):           53, 53, 53
Grid center (x, y, z):                     139.950000, 75.640000, 221.970000A
Grid size (x, y, z):                       19.500000, 19.500000, 19.500000A
Grid spacing:                              0.375000A


    LIGAND PARAMETERS
    ________________________


Ligand name:                               /home/a/REINVENT4/ReinventStudies/scoringData/graph-dock-34dfml/graph-DockGPU/node-autodockgpu/inputs/AMYMGDKGSBDGMC-NYADSFOUNA-M
Number of atoms:                           24
Number of rotatable bonds:                 9
Number of atom types:                      6


    DUMMY DATA (only for ADT-compatibility)
    ________________________


DPF> outlev 1
DPF> ga_run 20
DPF> fld /home/a/REINVENT4/ReinventStudies/mols/Rad51/maps/rad51_receptor.maps.fld
DPF> move /home/a/REINVENT4/ReinventStudies/scoringData/graph-dock-34dfml/graph-DockGPU/node-autodockgpu/inputs/AMYMGDKGSBDGMC-NYADSFOUNA-M.pdbqt


    COUNTER STATES
    ________________________


Number of energy evaluations performed:    1145418
Number of generations used:                60


    INPUT LIGAND PDBQT FILE:
    ________________________


INPUT-LIGAND-PDBQT: REMARK SMILES O=C(CCCOc1ccc(Cl)cc1Cl)[N-]/N=C/c1cccnc1F
INPUT-LIGAND-PDBQT: REMARK SMILES IDX 2 1 1 2 15 3 16 4 17 5 18 6 23 7 19 8 22 9 20 10 21 11 24 12
INPUT-LIGAND-PDBQT: REMARK SMILES IDX 3 13 4 14 5 15 6 16 7 17 8 18 13 19 9 20 12 21 10 22 14 23
INPUT-LIGAND-PDBQT: REMARK SMILES IDX 11 24
INPUT-LIGAND-PDBQT: REMARK H PARENT
INPUT-LIGAND-PDBQT: ROOT
INPUT-LIGAND-PDBQT: ATOM      1  C   UNL     1      -0.510   0.826  -3.947  1.00  0.00     0.068 C 
INPUT-LIGAND-PDBQT: ATOM      2  O   UNL     1      -1.104   1.003  -5.043  1.00  0.00    -0.319 OA
INPUT-LIGAND-PDBQT: ENDROOT
INPUT-LIGAND-PDBQT: BRANCH   1   3
INPUT-LIGAND-PDBQT: ATOM      3  N   UNL     1      -0.571   1.852  -2.952  1.00  0.00    -0.545 NA
INPUT-LIGAND-PDBQT: BRANCH   3   4
INPUT-LIGAND-PDBQT: ATOM      4  N   UNL     1       0.063   1.716  -1.711  1.00  0.00    -0.372 NA
INPUT-LIGAND-PDBQT: BRANCH   4   5
INPUT-LIGAND-PDBQT: ATOM      5  C   UNL     1      -0.133   2.581  -0.767  1.00  0.00     0.099 C 
INPUT-LIGAND-PDBQT: BRANCH   5   6
INPUT-LIGAND-PDBQT: ATOM      6  C   UNL     1       0.498   2.411   0.558  1.00  0.00     0.046 A 
INPUT-LIGAND-PDBQT: ATOM      7  C   UNL     1       0.023   3.131   1.666  1.00  0.00     0.221 A 
INPUT-LIGAND-PDBQT: ATOM      8  C   UNL     1       1.568   1.520   0.748  1.00  0.00     0.016 A 
INPUT-LIGAND-PDBQT: ATOM      9  N   UNL     1       0.578   2.943   2.893  1.00  0.00    -0.228 NA
INPUT-LIGAND-PDBQT: ATOM     10  C   UNL     1       2.123   1.353   2.017  1.00  0.00     0.021 A 
INPUT-LIGAND-PDBQT: ATOM     11  C   UNL     1       1.604   2.075   3.091  1.00  0.00     0.114 A 
INPUT-LIGAND-PDBQT: ATOM     12  F   UNL     1      -1.009   4.002   1.533  1.00  0.00    -0.184 F 
INPUT-LIGAND-PDBQT: ENDBRANCH   5   6
INPUT-LIGAND-PDBQT: ENDBRANCH   4   5
INPUT-LIGAND-PDBQT: ENDBRANCH   3   4
INPUT-LIGAND-PDBQT: ENDBRANCH   1   3
INPUT-LIGAND-PDBQT: BRANCH   1  13
INPUT-LIGAND-PDBQT: ATOM     13  C   UNL     1       0.201  -0.477  -3.697  1.00  0.00     0.060 C 
INPUT-LIGAND-PDBQT: BRANCH  13  14
INPUT-LIGAND-PDBQT: ATOM     14  C   UNL     1      -0.755  -1.565  -3.178  1.00  0.00     0.048 C 
INPUT-LIGAND-PDBQT: BRANCH  14  15
INPUT-LIGAND-PDBQT: ATOM     15  C   UNL     1      -1.256  -1.294  -1.755  1.00  0.00     0.230 C 
INPUT-LIGAND-PDBQT: BRANCH  15  16
INPUT-LIGAND-PDBQT: ATOM     16  O   UNL     1      -0.149  -1.271  -0.858  1.00  0.00    -0.492 OA
INPUT-LIGAND-PDBQT: BRANCH  16  17
INPUT-LIGAND-PDBQT: ATOM     17  C   UNL     1      -0.200  -1.313   0.547  1.00  0.00     0.137 A 
INPUT-LIGAND-PDBQT: ATOM     18  C   UNL     1       0.933  -1.827   1.195  1.00  0.00     0.049 A 
INPUT-LIGAND-PDBQT: ATOM     19  C   UNL     1      -1.286  -0.845   1.335  1.00  0.00     0.084 A 
INPUT-LIGAND-PDBQT: ATOM     20  C   UNL     1       0.998  -1.891   2.588  1.00  0.00     0.024 A 
INPUT-LIGAND-PDBQT: ATOM     21  C   UNL     1      -1.207  -0.915   2.733  1.00  0.00     0.045 A 
INPUT-LIGAND-PDBQT: ATOM     22  C   UNL     1      -0.070  -1.433   3.358  1.00  0.00     0.042 A 
INPUT-LIGAND-PDBQT: ATOM     23  Cl  UNL     1      -2.723  -0.077   0.674  1.00  0.00    -0.080 Cl
INPUT-LIGAND-PDBQT: ATOM     24  Cl  UNL     1       0.022  -1.484   5.109  1.00  0.00    -0.084 Cl
INPUT-LIGAND-PDBQT: ENDBRANCH  16  17
INPUT-LIGAND-PDBQT: ENDBRANCH  15  16
INPUT-LIGAND-PDBQT: ENDBRANCH  14  15
INPUT-LIGAND-PDBQT: ENDBRANCH  13  14
INPUT-LIGAND-PDBQT: ENDBRANCH   1  13
INPUT-LIGAND-PDBQT: TORSDOF 9


    FINAL DOCKED STATE:
    ________________________


Run:   1 / 20
Time taken for this run:   0.044s

DOCKED: MODEL        1
DOCKED: USER    Run = 1
DOCKED: USER
DOCKED: USER    Estimated Free Energy of Binding    =  -6.31 kcal/mol  [=(1)+(2)+(3)-(4)]
DOCKED: USER
DOCKED: USER    (1) Final Intermolecular Energy     =  -9.00 kcal/mol
DOCKED: USER        vdW + Hbond + desolv Energy     =  -8.98 kcal/mol
DOCKED: USER        Electrostatic Energy            =  -0.02 kcal/mol
DOCKED: USER        Moving Ligand-Fixed Receptor    =  -9.00 kcal/mol
DOCKED: USER        Moving Ligand-Moving Receptor   =  +0.00 kcal/mol
DOCKED: USER    (2) Final Total Internal Energy     =  -0.79 kcal/mol
DOCKED: USER    (3) Torsional Free Energy           =  +2.68 kcal/mol
DOCKED: USER    (4) Unbound System's Energy         =  -0.79 kcal/mol
DOCKED: USER
DOCKED: USER
DOCKED: REMARK SMILES O=C(CCCOc1ccc(Cl)cc1Cl)[N-]/N=C/c1cccnc1F
DOCKED: REMARK SMILES IDX 2 1 1 2 15 3 16 4 17 5 18 6 23 7 19 8 22 9 20 10 21 11 24 12
DOCKED: REMARK SMILES IDX 3 13 4 14 5 15 6 16 7 17 8 18 13 19 9 20 12 21 10 22 14 23
DOCKED: REMARK SMILES IDX 11 24
DOCKED: REMARK H PARENT
DOCKED: USER                              x       y       z     vdW  Elec       q    Type
DOCKED: USER                           _______ _______ _______ _____ _____    ______ ____
DOCKED: ROOT
DOCKED: ATOM      1  C   UNL     1     134.376  68.516 224.701 -0.19 -0.00    +0.068 C  
DOCKED: ATOM      2  O   UNL     1     134.281  67.400 224.126 -0.62 +0.01    -0.319 OA 
DOCKED: ENDROOT
DOCKED: BRANCH   1   3
DOCKED: ATOM      3  N   UNL     1     133.972  68.627 226.069 -0.51 +0.01    -0.545 NA 
DOCKED: BRANCH   3   4
DOCKED: ATOM      4  N   UNL     1     133.335  69.774 226.559 -0.44 -0.01    -0.372 NA 
DOCKED: BRANCH   4   5
DOCKED: ATOM      5  C   UNL     1     134.005  70.860 226.783 -0.36 -0.01    +0.099 C  
DOCKED: BRANCH   5   6
DOCKED: ATOM      6  C   UNL     1     133.316  72.161 226.908 -0.40 -0.00    +0.046 A  
DOCKED: ATOM      7  C   UNL     1     133.883  73.319 226.353 -0.17 +0.02    +0.221 A  
DOCKED: ATOM      8  C   UNL     1     132.077  72.271 227.563 -0.38 -0.00    +0.016 A  
DOCKED: ATOM      9  N   UNL     1     133.229  74.508 226.433 -0.62 -0.01    -0.228 NA 
DOCKED: ATOM     10  C   UNL     1     131.432  73.506 227.637 -0.38 -0.00    +0.021 A  
DOCKED: ATOM     11  C   UNL     1     132.025  74.624 227.053 -0.32 -0.01    +0.114 A  
DOCKED: ATOM     12  F   UNL     1     135.077  73.263 225.709 +0.03 -0.01    -0.184 F  
DOCKED: ENDBRANCH   5   6
DOCKED: ENDBRANCH   4   5
DOCKED: ENDBRANCH   3   4
DOCKED: ENDBRANCH   1   3
DOCKED: BRANCH   1  13
DOCKED: ATOM     13  C   UNL     1     134.960  69.684 223.951 -0.15 -0.01    +0.060 C  
DOCKED: BRANCH  13  14
DOCKED: ATOM     14  C   UNL     1     136.492  69.739 224.073 -0.21 -0.00    +0.048 C  
DOCKED: BRANCH  14  15
DOCKED: ATOM     15  C   UNL     1     137.190  68.540 223.422 -0.03 -0.02    +0.230 C  
DOCKED: BRANCH  15  16
DOCKED: ATOM     16  O   UNL     1     138.537  68.468 223.881 -0.17 +0.05    -0.492 OA 
DOCKED: BRANCH  16  17
DOCKED: ATOM     17  C   UNL     1     139.134  69.261 224.877 -0.31 -0.02    +0.137 A  
DOCKED: ATOM     18  C   UNL     1     139.194  68.704 226.163 -0.47 -0.01    +0.049 A  
DOCKED: ATOM     19  C   UNL     1     139.698  70.547 224.661 -0.37 -0.01    +0.084 A  
DOCKED: ATOM     20  C   UNL     1     139.787  69.396 227.220 -0.56 -0.00    +0.024 A  
DOCKED: ATOM     21  C   UNL     1     140.291  71.231 225.732 -0.53 -0.01    +0.045 A  
DOCKED: ATOM     22  C   UNL     1     140.339  70.658 227.005 -0.58 -0.01    +0.042 A  
DOCKED: ATOM     23  Cl  UNL     1     139.796  71.329 223.089 -0.41 +0.01    -0.080 Cl 
DOCKED: ATOM     24  Cl  UNL     1     141.112  71.516 228.325 -0.83 +0.02    -0.084 Cl 
DOCKED: ENDBRANCH  16  17
DOCKED: ENDBRANCH  15  16
DOCKED: ENDBRANCH  14  15
DOCKED: ENDBRANCH  13  14
DOCKED: ENDBRANCH   1  13
DOCKED: TORSDOF 9
DOCKED: TER
DOCKED: ENDMDL
________________________________________________________________________________


    FINAL DOCKED STATE:
    ________________________


Run:   2 / 20
Time taken for this run:   0.044s

DOCKED: MODEL        2
DOCKED: USER    Run = 2
DOCKED: USER
DOCKED: USER    Estimated Free Energy of Binding    =  -5.96 kcal/mol  [=(1)+(2)+(3)-(4)]
DOCKED: USER
DOCKED: USER    (1) Final Intermolecular Energy     =  -8.65 kcal/mol
DOCKED: USER        vdW + Hbond + desolv Energy     =  -8.65 kcal/mol
DOCKED: USER        Electrostatic Energy            =  +0.00 kcal/mol
DOCKED: USER        Moving Ligand-Fixed Receptor    =  -8.65 kcal/mol
DOCKED: USER        Moving Ligand-Moving Receptor   =  +0.00 kcal/mol
DOCKED: USER    (2) Final Total Internal Energy     =  -0.67 kcal/mol
DOCKED: USER    (3) Torsional Free Energy           =  +2.68 kcal/mol
DOCKED: USER    (4) Unbound System's Energy         =  -0.67 kcal/mol
DOCKED: USER
DOCKED: USER
DOCKED: REMARK SMILES O=C(CCCOc1ccc(Cl)cc1Cl)[N-]/N=C/c1cccnc1F
DOCKED: REMARK SMILES IDX 2 1 1 2 15 3 16 4 17 5 18 6 23 7 19 8 22 9 20 10 21 11 24 12
DOCKED: REMARK SMILES IDX 3 13 4 14 5 15 6 16 7 17 8 18 13 19 9 20 12 21 10 22 14 23
DOCKED: REMARK SMILES IDX 11 24
DOCKED: REMARK H PARENT
DOCKED: USER                              x       y       z     vdW  Elec       q    Type
DOCKED: USER                           _______ _______ _______ _____ _____    ______ ____
DOCKED: ROOT
DOCKED: ATOM      1  C   UNL     1     138.693  68.513 224.311 -0.31 -0.01    +0.068 C  
DOCKED: ATOM      2  O   UNL     1     138.975  68.220 223.119 -0.16 +0.06    -0.319 OA 
DOCKED: ENDROOT
DOCKED: BRANCH   1   3
DOCKED: ATOM      3  N   UNL     1     138.902  67.535 225.333 -0.47 -0.07    -0.545 NA 
DOCKED: BRANCH   3   4
DOCKED: ATOM      4  N   UNL     1     140.034  67.557 226.156 -0.36 +0.06    -0.372 NA 
DOCKED: BRANCH   4   5
DOCKED: ATOM      5  C   UNL     1     140.023  68.195 227.284 -0.58 -0.02    +0.099 C  
DOCKED: BRANCH   5   6
DOCKED: ATOM      6  C   UNL     1     140.391  69.624 227.348 -0.56 -0.01    +0.046 A  
DOCKED: ATOM      7  C   UNL     1     141.261  70.175 226.394 -0.36 -0.04    +0.221 A  
DOCKED: ATOM      8  C   UNL     1     139.872  70.467 228.345 -0.60 -0.00    +0.016 A  
DOCKED: ATOM      9  N   UNL     1     141.567  71.499 226.431 -0.40 +0.02    -0.228 NA 
DOCKED: ATOM     10  C   UNL     1     140.209  71.821 228.363 -0.69 -0.01    +0.021 A  
DOCKED: ATOM     11  C   UNL     1     141.061  72.326 227.382 -0.68 -0.03    +0.114 A  
DOCKED: ATOM     12  F   UNL     1     141.788  69.401 225.411 -0.06 +0.04    -0.184 F  
DOCKED: ENDBRANCH   5   6
DOCKED: ENDBRANCH   4   5
DOCKED: ENDBRANCH   3   4
DOCKED: ENDBRANCH   1   3
DOCKED: BRANCH   1  13
DOCKED: ATOM     13  C   UNL     1     138.195  69.897 224.631 -0.30 -0.01    +0.060 C  
DOCKED: BRANCH  13  14
DOCKED: ATOM     14  C   UNL     1     136.666  70.005 224.494 -0.22 -0.00    +0.048 C  
DOCKED: BRANCH  14  15
DOCKED: ATOM     15  C   UNL     1     136.193  71.423 224.152 -0.09 -0.04    +0.230 C  
DOCKED: BRANCH  15  16
DOCKED: ATOM     16  O   UNL     1     134.908  71.646 224.726 -0.05 +0.05    -0.492 OA 
DOCKED: BRANCH  16  17
DOCKED: ATOM     17  C   UNL     1     134.454  72.825 225.344 -0.21 -0.01    +0.137 A  
DOCKED: ATOM     18  C   UNL     1     135.077  74.017 224.945 -0.28 -0.01    +0.049 A  
DOCKED: ATOM     19  C   UNL     1     133.402  72.889 226.299 -0.31 -0.00    +0.084 A  
DOCKED: ATOM     20  C   UNL     1     134.685  75.247 225.477 -0.40 -0.00    +0.024 A  
DOCKED: ATOM     21  C   UNL     1     133.019  74.131 226.824 -0.31 +0.00    +0.045 A  
DOCKED: ATOM     22  C   UNL     1     133.655  75.305 226.415 -0.37 +0.00    +0.042 A  
DOCKED: ATOM     23  Cl  UNL     1     132.456  71.500 226.815 -0.43 +0.01    -0.080 Cl 
DOCKED: ATOM     24  Cl  UNL     1     133.141  76.852 227.061 -0.45 +0.01    -0.084 Cl 
DOCKED: ENDBRANCH  16  17
DOCKED: ENDBRANCH  15  16
DOCKED: ENDBRANCH  14  15
DOCKED: ENDBRANCH  13  14
DOCKED: ENDBRANCH   1  13
DOCKED: TORSDOF 9
DOCKED: TER
DOCKED: ENDMDL
________________________________________________________________________________


    FINAL DOCKED STATE:
    ________________________


Run:   3 / 20
Time taken for this run:   0.044s

DOCKED: MODEL        3
DOCKED: USER    Run = 3
DOCKED: USER
DOCKED: USER    Estimated Free Energy of Binding    =  -6.22 kcal/mol  [=(1)+(2)+(3)-(4)]
DOCKED: USER
DOCKED: USER    (1) Final Intermolecular Energy     =  -8.91 kcal/mol
DOCKED: USER        vdW + Hbond + desolv Energy     =  -8.12 kcal/mol
DOCKED: USER        Electrostatic Energy            =  -0.78 kcal/mol
DOCKED: USER        Moving Ligand-Fixed Receptor    =  -8.91 kcal/mol
DOCKED: USER        Moving Ligand-Moving Receptor   =  +0.00 kcal/mol
DOCKED: USER    (2) Final Total Internal Energy     =  -0.50 kcal/mol
DOCKED: USER    (3) Torsional Free Energy           =  +2.68 kcal/mol
DOCKED: USER    (4) Unbound System's Energy         =  -0.50 kcal/mol
DOCKED: USER
DOCKED: USER
DOCKED: REMARK SMILES O=C(CCCOc1ccc(Cl)cc1Cl)[N-]/N=C/c1cccnc1F
DOCKED: REMARK SMILES IDX 2 1 1 2 15 3 16 4 17 5 18 6 23 7 19 8 22 9 20 10 21 11 24 12
DOCKED: REMARK SMILES IDX 3 13 4 14 5 15 6 16 7 17 8 18 13 19 9 20 12 21 10 22 14 23
DOCKED: REMARK SMILES IDX 11 24
DOCKED: REMARK H PARENT
DOCKED: USER                              x       y       z     vdW  Elec       q    Type
DOCKED: USER                           _______ _______ _______ _____ _____    ______ ____
DOCKED: ROOT
DOCKED: ATOM      1  C   UNL     1     145.735  73.429 220.515 -0.59 -0.00    +0.068 C  
DOCKED: ATOM      2  O   UNL     1     146.068  73.024 221.660 -0.49 +0.07    -0.319 OA 
DOCKED: ENDROOT
DOCKED: BRANCH   1   3
DOCKED: ATOM      3  N   UNL     1     146.329  72.820 219.365 -0.46 -0.51    -0.545 NA 
DOCKED: BRANCH   3   4
DOCKED: ATOM      4  N   UNL     1     145.619  71.927 218.553 -0.51 -0.30    -0.372 NA 
DOCKED: BRANCH   4   5
DOCKED: ATOM      5  C   UNL     1     145.112  70.842 219.046 -0.23 +0.03    +0.099 C  
DOCKED: BRANCH   5   6
DOCKED: ATOM      6  C   UNL     1     145.491  69.518 218.509 -0.28 +0.01    +0.046 A  
DOCKED: ATOM      7  C   UNL     1     145.290  68.359 219.276 -0.30 +0.03    +0.221 A  
DOCKED: ATOM      8  C   UNL     1     146.041  69.382 217.223 -0.20 +0.00    +0.016 A  
DOCKED: ATOM      9  N   UNL     1     145.601  67.138 218.765 -0.32 +0.06    -0.228 NA 
DOCKED: ATOM     10  C   UNL     1     146.358  68.117 216.727 -0.22 -0.00    +0.021 A  
DOCKED: ATOM     11  C   UNL     1     146.121  66.994 217.518 -0.32 -0.05    +0.114 A  
DOCKED: ATOM     12  F   UNL     1     144.761  68.439 220.523 -0.08 -0.06    -0.184 F  
DOCKED: ENDBRANCH   5   6
DOCKED: ENDBRANCH   4   5
DOCKED: ENDBRANCH   3   4
DOCKED: ENDBRANCH   1   3
DOCKED: BRANCH   1  13
DOCKED: ATOM     13  C   UNL     1     144.687  74.503 220.390 -0.41 -0.02    +0.060 C  
DOCKED: BRANCH  13  14
DOCKED: ATOM     14  C   UNL     1     143.262  73.932 220.491 -0.32 -0.01    +0.048 C  
DOCKED: BRANCH  14  15
DOCKED: ATOM     15  C   UNL     1     142.238  74.731 219.678 -0.15 -0.08    +0.230 C  
DOCKED: BRANCH  15  16
DOCKED: ATOM     16  O   UNL     1     141.305  75.346 220.563 -0.08 +0.16    -0.492 OA 
DOCKED: BRANCH  16  17
DOCKED: ATOM     17  C   UNL     1     141.365  76.654 221.077 -0.23 -0.07    +0.137 A  
DOCKED: ATOM     18  C   UNL     1     141.019  76.807 222.428 -0.36 -0.02    +0.049 A  
DOCKED: ATOM     19  C   UNL     1     141.778  77.797 220.342 -0.28 -0.05    +0.084 A  
DOCKED: ATOM     20  C   UNL     1     141.068  78.058 223.045 -0.47 -0.01    +0.024 A  
DOCKED: ATOM     21  C   UNL     1     141.822  79.048 220.975 -0.33 -0.03    +0.045 A  
DOCKED: ATOM     22  C   UNL     1     141.472  79.178 222.321 -0.44 -0.02    +0.042 A  
DOCKED: ATOM     23  Cl  UNL     1     142.343  77.747 218.677 -0.38 +0.05    -0.080 Cl 
DOCKED: ATOM     24  Cl  UNL     1     141.564  80.746 223.103 -0.68 +0.02    -0.084 Cl 
DOCKED: ENDBRANCH  16  17
DOCKED: ENDBRANCH  15  16
DOCKED: ENDBRANCH  14  15
DOCKED: ENDBRANCH  13  14
DOCKED: ENDBRANCH   1  13
DOCKED: TORSDOF 9
DOCKED: TER
DOCKED: ENDMDL
________________________________________________________________________________


    FINAL DOCKED STATE:
    ________________________


Run:   4 / 20
Time taken for this run:   0.044s

DOCKED: MODEL        4
DOCKED: USER    Run = 4
DOCKED: USER
DOCKED: USER    Estimated Free Energy of Binding    =  -6.04 kcal/mol  [=(1)+(2)+(3)-(4)]
DOCKED: USER
DOCKED: USER    (1) Final Intermolecular Energy     =  -8.72 kcal/mol
DOCKED: USER        vdW + Hbond + desolv Energy     =  -8.76 kcal/mol
DOCKED: USER        Electrostatic Energy            =  +0.04 kcal/mol
DOCKED: USER        Moving Ligand-Fixed Receptor    =  -8.72 kcal/mol
DOCKED: USER        Moving Ligand-Moving Receptor   =  +0.00 kcal/mol
DOCKED: USER    (2) Final Total Internal Energy     =  -0.52 kcal/mol
DOCKED: USER    (3) Torsional Free Energy           =  +2.68 kcal/mol
DOCKED: USER    (4) Unbound System's Energy         =  -0.52 kcal/mol
DOCKED: USER
DOCKED: USER
DOCKED: REMARK SMILES O=C(CCCOc1ccc(Cl)cc1Cl)[N-]/N=C/c1cccnc1F
DOCKED: REMARK SMILES IDX 2 1 1 2 15 3 16 4 17 5 18 6 23 7 19 8 22 9 20 10 21 11 24 12
DOCKED: REMARK SMILES IDX 3 13 4 14 5 15 6 16 7 17 8 18 13 19 9 20 12 21 10 22 14 23
DOCKED: REMARK SMILES IDX 11 24
DOCKED: REMARK H PARENT
DOCKED: USER                              x       y       z     vdW  Elec       q    Type
DOCKED: USER                           _______ _______ _______ _____ _____    ______ ____
DOCKED: ROOT
DOCKED: ATOM      1  C   UNL     1     140.191  74.130 221.675 -0.25 -0.01    +0.068 C  
DOCKED: ATOM      2  O   UNL     1     141.002  74.895 222.260 -0.44 -0.00    -0.319 OA 
DOCKED: ENDROOT
DOCKED: BRANCH   1   3
DOCKED: ATOM      3  N   UNL     1     139.755  72.941 222.342 -0.36 +0.09    -0.545 NA 
DOCKED: BRANCH   3   4
DOCKED: ATOM      4  N   UNL     1     140.475  72.386 223.407 -0.23 +0.03    -0.372 NA 
DOCKED: BRANCH   4   5
DOCKED: ATOM      5  C   UNL     1     140.138  71.240 223.909 -0.36 -0.02    +0.099 C  
DOCKED: BRANCH   5   6
DOCKED: ATOM      6  C   UNL     1     140.259  70.986 225.360 -0.51 -0.01    +0.046 A  
DOCKED: ATOM      7  C   UNL     1     139.702  69.827 225.924 -0.31 -0.03    +0.221 A  
DOCKED: ATOM      8  C   UNL     1     140.944  71.877 226.203 -0.63 -0.00    +0.016 A  
DOCKED: ATOM      9  N   UNL     1     139.849  69.573 227.252 -0.32 +0.04    -0.228 NA 
DOCKED: ATOM     10  C   UNL     1     141.073  71.595 227.563 -0.79 -0.00    +0.021 A  
DOCKED: ATOM     11  C   UNL     1     140.520  70.422 228.074 -0.53 -0.02    +0.114 A  
DOCKED: ATOM     12  F   UNL     1     139.032  68.935 225.150 -0.11 +0.02    -0.184 F  
DOCKED: ENDBRANCH   5   6
DOCKED: ENDBRANCH   4   5
DOCKED: ENDBRANCH   3   4
DOCKED: ENDBRANCH   1   3
DOCKED: BRANCH   1  13
DOCKED: ATOM     13  C   UNL     1     139.665  74.513 220.318 -0.12 -0.01    +0.060 C  
DOCKED: BRANCH  13  14
DOCKED: ATOM     14  C   UNL     1     140.801  74.804 219.321 -0.09 -0.01    +0.048 C  
DOCKED: BRANCH  14  15
DOCKED: ATOM     15  C   UNL     1     141.636  76.031 219.704 -0.15 -0.10    +0.230 C  
DOCKED: BRANCH  15  16
DOCKED: ATOM     16  O   UNL     1     140.796  77.003 220.322 -0.03 +0.19    -0.492 OA 
DOCKED: BRANCH  16  17
DOCKED: ATOM     17  C   UNL     1     141.201  78.065 221.150 -0.26 -0.06    +0.137 A  
DOCKED: ATOM     18  C   UNL     1     141.111  77.845 222.532 -0.43 -0.02    +0.049 A  
DOCKED: ATOM     19  C   UNL     1     141.719  79.304 220.686 -0.28 -0.04    +0.084 A  
DOCKED: ATOM     20  C   UNL     1     141.511  78.824 223.444 -0.58 -0.01    +0.024 A  
DOCKED: ATOM     21  C   UNL     1     142.117  80.278 221.613 -0.42 -0.02    +0.045 A  
DOCKED: ATOM     22  C   UNL     1     142.016  80.039 222.986 -0.57 -0.01    +0.042 A  
DOCKED: ATOM     23  Cl  UNL     1     141.994  79.684 218.992 -0.35 +0.05    -0.080 Cl 
DOCKED: ATOM     24  Cl  UNL     1     142.548  81.259 224.129 -0.66 +0.01    -0.084 Cl 
DOCKED: ENDBRANCH  16  17
DOCKED: ENDBRANCH  15  16
DOCKED: ENDBRANCH  14  15
DOCKED: ENDBRANCH  13  14
DOCKED: ENDBRANCH   1  13
DOCKED: TORSDOF 9
DOCKED: TER
DOCKED: ENDMDL
________________________________________________________________________________


    FINAL DOCKED STATE:
    ________________________


Run:   5 / 20
Time taken for this run:   0.044s

DOCKED: MODEL        5
DOCKED: USER    Run = 5
DOCKED: USER
DOCKED: USER    Estimated Free Energy of Binding    =  -6.37 kcal/mol  [=(1)+(2)+(3)-(4)]
DOCKED: USER
DOCKED: USER    (1) Final Intermolecular Energy     =  -9.06 kcal/mol
DOCKED: USER        vdW + Hbond + desolv Energy     =  -9.12 kcal/mol
DOCKED: USER        Electrostatic Energy            =  +0.07 kcal/mol
DOCKED: USER        Moving Ligand-Fixed Receptor    =  -9.06 kcal/mol
DOCKED: USER        Moving Ligand-Moving Receptor   =  +0.00 kcal/mol
DOCKED: USER    (2) Final Total Internal Energy     =  -0.72 kcal/mol
DOCKED: USER    (3) Torsional Free Energy           =  +2.68 kcal/mol
DOCKED: USER    (4) Unbound System's Energy         =  -0.72 kcal/mol
DOCKED: USER
DOCKED: USER
DOCKED: REMARK SMILES O=C(CCCOc1ccc(Cl)cc1Cl)[N-]/N=C/c1cccnc1F
DOCKED: REMARK SMILES IDX 2 1 1 2 15 3 16 4 17 5 18 6 23 7 19 8 22 9 20 10 21 11 24 12
DOCKED: REMARK SMILES IDX 3 13 4 14 5 15 6 16 7 17 8 18 13 19 9 20 12 21 10 22 14 23
DOCKED: REMARK SMILES IDX 11 24
DOCKED: REMARK H PARENT
DOCKED: USER                              x       y       z     vdW  Elec       q    Type
DOCKED: USER                           _______ _______ _______ _____ _____    ______ ____
DOCKED: ROOT
DOCKED: ATOM      1  C   UNL     1     139.937  74.075 221.858 -0.23 -0.01    +0.068 C  
DOCKED: ATOM      2  O   UNL     1     141.059  74.631 221.997 -0.59 +0.02    -0.319 OA 
DOCKED: ENDROOT
DOCKED: BRANCH   1   3
DOCKED: ATOM      3  N   UNL     1     139.621  72.941 222.671 -0.37 +0.11    -0.545 NA 
DOCKED: BRANCH   3   4
DOCKED: ATOM      4  N   UNL     1     140.605  72.250 223.389 -0.24 +0.02    -0.372 NA 
DOCKED: BRANCH   4   5
DOCKED: ATOM      5  C   UNL     1     140.342  71.111 223.947 -0.35 -0.01    +0.099 C  
DOCKED: BRANCH   5   6
DOCKED: ATOM      6  C   UNL     1     140.363  70.967 225.417 -0.52 -0.01    +0.046 A  
DOCKED: ATOM      7  C   UNL     1     139.688  69.902 226.034 -0.31 -0.03    +0.221 A  
DOCKED: ATOM      8  C   UNL     1     141.068  71.872 226.229 -0.65 -0.00    +0.016 A  
DOCKED: ATOM      9  N   UNL     1     139.743  69.747 227.384 -0.32 +0.03    -0.228 NA 
DOCKED: ATOM     10  C   UNL     1     141.101  71.693 227.613 -0.79 -0.00    +0.021 A  
DOCKED: ATOM     11  C   UNL     1     140.432  70.608 228.178 -0.53 -0.02    +0.114 A  
DOCKED: ATOM     12  F   UNL     1     138.995  69.001 225.293 -0.11 +0.02    -0.184 F  
DOCKED: ENDBRANCH   5   6
DOCKED: ENDBRANCH   4   5
DOCKED: ENDBRANCH   3   4
DOCKED: ENDBRANCH   1   3
DOCKED: BRANCH   1  13
DOCKED: ATOM     13  C   UNL     1     138.946  74.651 220.883 -0.15 -0.01    +0.060 C  
DOCKED: BRANCH  13  14
DOCKED: ATOM     14  C   UNL     1     137.680  75.170 221.586 -0.17 -0.01    +0.048 C  
DOCKED: BRANCH  14  15
DOCKED: ATOM     15  C   UNL     1     137.987  76.110 222.757 -0.17 -0.06    +0.230 C  
DOCKED: BRANCH  15  16
DOCKED: ATOM     16  O   UNL     1     138.306  77.405 222.255 -0.08 +0.09    -0.492 OA 
DOCKED: BRANCH  16  17
DOCKED: ATOM     17  C   UNL     1     139.351  78.243 222.684 -0.26 -0.03    +0.137 A  
DOCKED: ATOM     18  C   UNL     1     140.654  77.788 222.438 -0.40 -0.02    +0.049 A  
DOCKED: ATOM     19  C   UNL     1     139.174  79.510 223.304 -0.33 -0.01    +0.084 A  
DOCKED: ATOM     20  C   UNL     1     141.765  78.552 222.800 -0.47 -0.01    +0.024 A  
DOCKED: ATOM     21  C   UNL     1     140.298  80.267 223.662 -0.41 -0.01    +0.045 A  
DOCKED: ATOM     22  C   UNL     1     141.588  79.793 223.410 -0.55 -0.01    +0.042 A  
DOCKED: ATOM     23  Cl  UNL     1     137.609  80.262 223.579 -0.36 +0.01    -0.080 Cl 
DOCKED: ATOM     24  Cl  UNL     1     142.981  80.770 223.838 -0.75 +0.02    -0.084 Cl 
DOCKED: ENDBRANCH  16  17
DOCKED: ENDBRANCH  15  16
DOCKED: ENDBRANCH  14  15
DOCKED: ENDBRANCH  13  14
DOCKED: ENDBRANCH   1  13
DOCKED: TORSDOF 9
DOCKED: TER
DOCKED: ENDMDL
________________________________________________________________________________


    FINAL DOCKED STATE:
    ________________________


Run:   6 / 20
Time taken for this run:   0.044s

DOCKED: MODEL        6
DOCKED: USER    Run = 6
DOCKED: USER
DOCKED: USER    Estimated Free Energy of Binding    =  -5.96 kcal/mol  [=(1)+(2)+(3)-(4)]
DOCKED: USER
DOCKED: USER    (1) Final Intermolecular Energy     =  -8.65 kcal/mol
DOCKED: USER        vdW + Hbond + desolv Energy     =  -8.61 kcal/mol
DOCKED: USER        Electrostatic Energy            =  -0.03 kcal/mol
DOCKED: USER        Moving Ligand-Fixed Receptor    =  -8.65 kcal/mol
DOCKED: USER        Moving Ligand-Moving Receptor   =  +0.00 kcal/mol
DOCKED: USER    (2) Final Total Internal Energy     =  -1.07 kcal/mol
DOCKED: USER    (3) Torsional Free Energy           =  +2.68 kcal/mol
DOCKED: USER    (4) Unbound System's Energy         =  -1.07 kcal/mol
DOCKED: USER
DOCKED: USER
DOCKED: REMARK SMILES O=C(CCCOc1ccc(Cl)cc1Cl)[N-]/N=C/c1cccnc1F
DOCKED: REMARK SMILES IDX 2 1 1 2 15 3 16 4 17 5 18 6 23 7 19 8 22 9 20 10 21 11 24 12
DOCKED: REMARK SMILES IDX 3 13 4 14 5 15 6 16 7 17 8 18 13 19 9 20 12 21 10 22 14 23
DOCKED: REMARK SMILES IDX 11 24
DOCKED: REMARK H PARENT
DOCKED: USER                              x       y       z     vdW  Elec       q    Type
DOCKED: USER                           _______ _______ _______ _____ _____    ______ ____
DOCKED: ROOT
DOCKED: ATOM      1  C   UNL     1     138.198  69.058 224.579 -0.31 -0.01    +0.068 C  
DOCKED: ATOM      2  O   UNL     1     137.255  69.384 225.347 -0.15 +0.02    -0.319 OA 
DOCKED: ENDROOT
DOCKED: BRANCH   1   3
DOCKED: ATOM      3  N   UNL     1     138.865  67.810 224.790 -0.44 -0.03    -0.545 NA 
DOCKED: BRANCH   3   4
DOCKED: ATOM      4  N   UNL     1     139.230  67.375 226.070 -0.73 +0.01    -0.372 NA 
DOCKED: BRANCH   4   5
DOCKED: ATOM      5  C   UNL     1     140.312  67.808 226.635 -0.60 -0.02    +0.099 C  
DOCKED: BRANCH   5   6
DOCKED: ATOM      6  C   UNL     1     140.446  69.226 227.026 -0.55 -0.01    +0.046 A  
DOCKED: ATOM      7  C   UNL     1     141.353  70.063 226.357 -0.34 -0.04    +0.221 A  
DOCKED: ATOM      8  C   UNL     1     139.664  69.775 228.057 -0.60 -0.00    +0.016 A  
DOCKED: ATOM      9  N   UNL     1     141.445  71.378 226.692 -0.43 +0.03    -0.228 NA 
DOCKED: ATOM     10  C   UNL     1     139.785  71.126 228.384 -0.50 -0.00    +0.021 A  
DOCKED: ATOM     11  C   UNL     1     140.685  71.923 227.677 -0.70 -0.03    +0.114 A  
DOCKED: ATOM     12  F   UNL     1     142.128  69.580 225.354 -0.04 +0.03    -0.184 F  
DOCKED: ENDBRANCH   5   6
DOCKED: ENDBRANCH   4   5
DOCKED: ENDBRANCH   3   4
DOCKED: ENDBRANCH   1   3
DOCKED: BRANCH   1  13
DOCKED: ATOM     13  C   UNL     1     138.561  69.965 223.433 -0.24 -0.01    +0.060 C  
DOCKED: BRANCH  13  14
DOCKED: ATOM     14  C   UNL     1     139.115  71.315 223.920 -0.28 -0.01    +0.048 C  
DOCKED: BRANCH  14  15
DOCKED: ATOM     15  C   UNL     1     140.532  71.601 223.411 -0.22 -0.03    +0.230 C  
DOCKED: BRANCH  15  16
DOCKED: ATOM     16  O   UNL     1     140.477  71.974 222.037 -0.12 +0.06    -0.492 OA 
DOCKED: BRANCH  16  17
DOCKED: ATOM     17  C   UNL     1     141.097  73.086 221.438 -0.23 -0.01    +0.137 A  
DOCKED: ATOM     18  C   UNL     1     142.357  72.861 220.865 -0.24 -0.01    +0.049 A  
DOCKED: ATOM     19  C   UNL     1     140.525  74.383 221.347 -0.26 -0.01    +0.084 A  
DOCKED: ATOM     20  C   UNL     1     143.050  73.889 220.224 -0.30 -0.01    +0.024 A  
DOCKED: ATOM     21  C   UNL     1     141.231  75.407 220.700 -0.26 -0.01    +0.045 A  
DOCKED: ATOM     22  C   UNL     1     142.487  75.162 220.138 -0.29 -0.02    +0.042 A  
DOCKED: ATOM     23  Cl  UNL     1     138.913  74.792 221.919 -0.30 +0.02    -0.080 Cl 
DOCKED: ATOM     24  Cl  UNL     1     143.342  76.447 219.305 -0.47 +0.06    -0.084 Cl 
DOCKED: ENDBRANCH  16  17
DOCKED: ENDBRANCH  15  16
DOCKED: ENDBRANCH  14  15
DOCKED: ENDBRANCH  13  14
DOCKED: ENDBRANCH   1  13
DOCKED: TORSDOF 9
DOCKED: TER
DOCKED: ENDMDL
________________________________________________________________________________


    FINAL DOCKED STATE:
    ________________________


Run:   7 / 20
Time taken for this run:   0.044s

DOCKED: MODEL        7
DOCKED: USER    Run = 7
DOCKED: USER
DOCKED: USER    Estimated Free Energy of Binding    =  -6.05 kcal/mol  [=(1)+(2)+(3)-(4)]
DOCKED: USER
DOCKED: USER    (1) Final Intermolecular Energy     =  -8.74 kcal/mol
DOCKED: USER        vdW + Hbond + desolv Energy     =  -7.78 kcal/mol
DOCKED: USER        Electrostatic Energy            =  -0.96 kcal/mol
DOCKED: USER        Moving Ligand-Fixed Receptor    =  -8.74 kcal/mol
DOCKED: USER        Moving Ligand-Moving Receptor   =  +0.00 kcal/mol
DOCKED: USER    (2) Final Total Internal Energy     =  -0.54 kcal/mol
DOCKED: USER    (3) Torsional Free Energy           =  +2.68 kcal/mol
DOCKED: USER    (4) Unbound System's Energy         =  -0.54 kcal/mol
DOCKED: USER
DOCKED: USER
DOCKED: REMARK SMILES O=C(CCCOc1ccc(Cl)cc1Cl)[N-]/N=C/c1cccnc1F
DOCKED: REMARK SMILES IDX 2 1 1 2 15 3 16 4 17 5 18 6 23 7 19 8 22 9 20 10 21 11 24 12
DOCKED: REMARK SMILES IDX 3 13 4 14 5 15 6 16 7 17 8 18 13 19 9 20 12 21 10 22 14 23
DOCKED: REMARK SMILES IDX 11 24
DOCKED: REMARK H PARENT
DOCKED: USER                              x       y       z     vdW  Elec       q    Type
DOCKED: USER                           _______ _______ _______ _____ _____    ______ ____
DOCKED: ROOT
DOCKED: ATOM      1  C   UNL     1     145.814  73.237 220.453 -0.57 +0.00    +0.068 C  
DOCKED: ATOM      2  O   UNL     1     146.208  72.762 221.551 -0.40 +0.06    -0.319 OA 
DOCKED: ENDROOT
DOCKED: BRANCH   1   3
DOCKED: ATOM      3  N   UNL     1     146.297  72.661 219.236 -0.42 -0.61    -0.545 NA 
DOCKED: BRANCH   3   4
DOCKED: ATOM      4  N   UNL     1     145.426  72.192 218.244 -0.45 -0.23    -0.372 NA 
DOCKED: BRANCH   4   5
DOCKED: ATOM      5  C   UNL     1     145.646  71.064 217.648 -0.08 +0.07    +0.099 C  
DOCKED: BRANCH   5   6
DOCKED: ATOM      6  C   UNL     1     145.386  69.782 218.334 -0.25 +0.01    +0.046 A  
DOCKED: ATOM      7  C   UNL     1     146.254  69.330 219.341 -0.21 +0.13    +0.221 A  
DOCKED: ATOM      8  C   UNL     1     144.265  68.996 218.015 -0.15 -0.00    +0.016 A  
DOCKED: ATOM      9  N   UNL     1     145.992  68.170 220.001 -0.91 -0.08    -0.228 NA 
DOCKED: ATOM     10  C   UNL     1     144.025  67.807 218.703 -0.26 -0.01    +0.021 A  
DOCKED: ATOM     11  C   UNL     1     144.905  67.409 219.710 -0.37 -0.01    +0.114 A  
DOCKED: ATOM     12  F   UNL     1     147.349  70.054 219.686 -0.06 -0.23    -0.184 F  
DOCKED: ENDBRANCH   5   6
DOCKED: ENDBRANCH   4   5
DOCKED: ENDBRANCH   3   4
DOCKED: ENDBRANCH   1   3
DOCKED: BRANCH   1  13
DOCKED: ATOM     13  C   UNL     1     144.809  74.358 220.454 -0.45 -0.02    +0.060 C  
DOCKED: BRANCH  13  14
DOCKED: ATOM     14  C   UNL     1     143.372  73.844 220.652 -0.28 -0.01    +0.048 C  
DOCKED: BRANCH  14  15
DOCKED: ATOM     15  C   UNL     1     142.315  74.941 220.487 -0.20 -0.09    +0.230 C  
DOCKED: BRANCH  15  16
DOCKED: ATOM     16  O   UNL     1     141.424  74.914 221.599 -0.27 +0.11    -0.492 OA 
DOCKED: BRANCH  16  17
DOCKED: ATOM     17  C   UNL     1     140.526  75.925 221.985 -0.31 -0.03    +0.137 A  
DOCKED: ATOM     18  C   UNL     1     141.086  77.179 222.269 -0.37 -0.02    +0.049 A  
DOCKED: ATOM     19  C   UNL     1     139.116  75.770 222.070 -0.28 -0.02    +0.084 A  
DOCKED: ATOM     20  C   UNL     1     140.282  78.259 222.638 -0.39 -0.01    +0.024 A  
DOCKED: ATOM     21  C   UNL     1     138.321  76.863 222.441 -0.28 -0.01    +0.045 A  
DOCKED: ATOM     22  C   UNL     1     138.899  78.103 222.722 -0.29 -0.01    +0.042 A  
DOCKED: ATOM     23  Cl  UNL     1     138.260  74.295 221.641 -0.23 +0.02    -0.080 Cl 
DOCKED: ATOM     24  Cl  UNL     1     137.885  79.467 223.156 -0.30 +0.01    -0.084 Cl 
DOCKED: ENDBRANCH  16  17
DOCKED: ENDBRANCH  15  16
DOCKED: ENDBRANCH  14  15
DOCKED: ENDBRANCH  13  14
DOCKED: ENDBRANCH   1  13
DOCKED: TORSDOF 9
DOCKED: TER
DOCKED: ENDMDL
________________________________________________________________________________


    FINAL DOCKED STATE:
    ________________________


Run:   8 / 20
Time taken for this run:   0.044s

DOCKED: MODEL        8
DOCKED: USER    Run = 8
DOCKED: USER
DOCKED: USER    Estimated Free Energy of Binding    =  -6.30 kcal/mol  [=(1)+(2)+(3)-(4)]
DOCKED: USER
DOCKED: USER    (1) Final Intermolecular Energy     =  -8.99 kcal/mol
DOCKED: USER        vdW + Hbond + desolv Energy     =  -9.07 kcal/mol
DOCKED: USER        Electrostatic Energy            =  +0.08 kcal/mol
DOCKED: USER        Moving Ligand-Fixed Receptor    =  -8.99 kcal/mol
DOCKED: USER        Moving Ligand-Moving Receptor   =  +0.00 kcal/mol
DOCKED: USER    (2) Final Total Internal Energy     =  -0.71 kcal/mol
DOCKED: USER    (3) Torsional Free Energy           =  +2.68 kcal/mol
DOCKED: USER    (4) Unbound System's Energy         =  -0.71 kcal/mol
DOCKED: USER
DOCKED: USER
DOCKED: REMARK SMILES O=C(CCCOc1ccc(Cl)cc1Cl)[N-]/N=C/c1cccnc1F
DOCKED: REMARK SMILES IDX 2 1 1 2 15 3 16 4 17 5 18 6 23 7 19 8 22 9 20 10 21 11 24 12
DOCKED: REMARK SMILES IDX 3 13 4 14 5 15 6 16 7 17 8 18 13 19 9 20 12 21 10 22 14 23
DOCKED: REMARK SMILES IDX 11 24
DOCKED: REMARK H PARENT
DOCKED: USER                              x       y       z     vdW  Elec       q    Type
DOCKED: USER                           _______ _______ _______ _____ _____    ______ ____
DOCKED: ROOT
DOCKED: ATOM      1  C   UNL     1     139.835  74.232 221.948 -0.22 -0.01    +0.068 C  
DOCKED: ATOM      2  O   UNL     1     140.984  74.745 221.971 -0.62 +0.02    -0.319 OA 
DOCKED: ENDROOT
DOCKED: BRANCH   1   3
DOCKED: ATOM      3  N   UNL     1     139.602  73.019 222.670 -0.39 +0.11    -0.545 NA 
DOCKED: BRANCH   3   4
DOCKED: ATOM      4  N   UNL     1     140.653  72.270 223.213 -0.26 +0.02    -0.372 NA 
DOCKED: BRANCH   4   5
DOCKED: ATOM      5  C   UNL     1     140.430  71.124 223.774 -0.30 -0.01    +0.099 C  
DOCKED: BRANCH   5   6
DOCKED: ATOM      6  C   UNL     1     140.396  70.995 225.245 -0.51 -0.01    +0.046 A  
DOCKED: ATOM      7  C   UNL     1     139.663  69.960 225.848 -0.31 -0.03    +0.221 A  
DOCKED: ATOM      8  C   UNL     1     141.104  71.883 226.072 -0.61 -0.00    +0.016 A  
DOCKED: ATOM      9  N   UNL     1     139.667  69.818 227.201 -0.30 +0.03    -0.228 NA 
DOCKED: ATOM     10  C   UNL     1     141.083  71.718 227.457 -0.79 -0.00    +0.021 A  
DOCKED: ATOM     11  C   UNL     1     140.357  70.663 228.009 -0.57 -0.02    +0.114 A  
DOCKED: ATOM     12  F   UNL     1     138.965  69.076 225.092 -0.10 +0.02    -0.184 F  
DOCKED: ENDBRANCH   5   6
DOCKED: ENDBRANCH   4   5
DOCKED: ENDBRANCH   3   4
DOCKED: ENDBRANCH   1   3
DOCKED: BRANCH   1  13
DOCKED: ATOM     13  C   UNL     1     138.730  74.936 221.207 -0.18 -0.01    +0.060 C  
DOCKED: BRANCH  13  14
DOCKED: ATOM     14  C   UNL     1     137.495  75.167 222.096 -0.19 -0.01    +0.048 C  
DOCKED: BRANCH  14  15
DOCKED: ATOM     15  C   UNL     1     137.450  76.573 222.706 -0.20 -0.05    +0.230 C  
DOCKED: BRANCH  15  16
DOCKED: ATOM     16  O   UNL     1     138.309  77.438 221.968 -0.06 +0.10    -0.492 OA 
DOCKED: BRANCH  16  17
DOCKED: ATOM     17  C   UNL     1     139.351  78.232 222.482 -0.25 -0.03    +0.137 A  
DOCKED: ATOM     18  C   UNL     1     140.656  77.819 222.174 -0.38 -0.02    +0.049 A  
DOCKED: ATOM     19  C   UNL     1     139.169  79.417 223.243 -0.33 -0.01    +0.084 A  
DOCKED: ATOM     20  C   UNL     1     141.763  78.548 222.612 -0.44 -0.01    +0.024 A  
DOCKED: ATOM     21  C   UNL     1     140.290  80.140 223.677 -0.42 -0.01    +0.045 A  
DOCKED: ATOM     22  C   UNL     1     141.581  79.709 223.361 -0.55 -0.01    +0.042 A  
DOCKED: ATOM     23  Cl  UNL     1     137.600  80.119 223.615 -0.35 +0.01    -0.080 Cl 
DOCKED: ATOM     24  Cl  UNL     1     142.970  80.644 223.887 -0.75 +0.02    -0.084 Cl 
DOCKED: ENDBRANCH  16  17
DOCKED: ENDBRANCH  15  16
DOCKED: ENDBRANCH  14  15
DOCKED: ENDBRANCH  13  14
DOCKED: ENDBRANCH   1  13
DOCKED: TORSDOF 9
DOCKED: TER
DOCKED: ENDMDL
________________________________________________________________________________


    FINAL DOCKED STATE:
    ________________________


Run:   9 / 20
Time taken for this run:   0.044s

DOCKED: MODEL        9
DOCKED: USER    Run = 9
DOCKED: USER
DOCKED: USER    Estimated Free Energy of Binding    =  -5.87 kcal/mol  [=(1)+(2)+(3)-(4)]
DOCKED: USER
DOCKED: USER    (1) Final Intermolecular Energy     =  -8.55 kcal/mol
DOCKED: USER        vdW + Hbond + desolv Energy     =  -8.53 kcal/mol
DOCKED: USER        Electrostatic Energy            =  -0.02 kcal/mol
DOCKED: USER        Moving Ligand-Fixed Receptor    =  -8.55 kcal/mol
DOCKED: USER        Moving Ligand-Moving Receptor   =  +0.00 kcal/mol
DOCKED: USER    (2) Final Total Internal Energy     =  -0.91 kcal/mol
DOCKED: USER    (3) Torsional Free Energy           =  +2.68 kcal/mol
DOCKED: USER    (4) Unbound System's Energy         =  -0.91 kcal/mol
DOCKED: USER
DOCKED: USER
DOCKED: REMARK SMILES O=C(CCCOc1ccc(Cl)cc1Cl)[N-]/N=C/c1cccnc1F
DOCKED: REMARK SMILES IDX 2 1 1 2 15 3 16 4 17 5 18 6 23 7 19 8 22 9 20 10 21 11 24 12
DOCKED: REMARK SMILES IDX 3 13 4 14 5 15 6 16 7 17 8 18 13 19 9 20 12 21 10 22 14 23
DOCKED: REMARK SMILES IDX 11 24
DOCKED: REMARK H PARENT
DOCKED: USER                              x       y       z     vdW  Elec       q    Type
DOCKED: USER                           _______ _______ _______ _____ _____    ______ ____
DOCKED: ROOT
DOCKED: ATOM      1  C   UNL     1     136.809  69.311 224.265 -0.22 -0.00    +0.068 C  
DOCKED: ATOM      2  O   UNL     1     135.731  68.661 224.233 -0.42 -0.01    -0.319 OA 
DOCKED: ENDROOT
DOCKED: BRANCH   1   3
DOCKED: ATOM      3  N   UNL     1     137.718  69.094 225.347 -0.01 +0.03    -0.545 NA 
DOCKED: BRANCH   3   4
DOCKED: ATOM      4  N   UNL     1     138.823  68.243 225.224 -0.51 +0.01    -0.372 NA 
DOCKED: BRANCH   4   5
DOCKED: ATOM      5  C   UNL     1     139.845  68.364 226.010 -0.51 -0.02    +0.099 C  
DOCKED: BRANCH   5   6
DOCKED: ATOM      6  C   UNL     1     140.263  69.690 226.509 -0.50 -0.01    +0.046 A  
DOCKED: ATOM      7  C   UNL     1     139.966  70.078 227.825 -0.43 -0.04    +0.221 A  
DOCKED: ATOM      8  C   UNL     1     140.979  70.584 225.694 -0.56 -0.00    +0.016 A  
DOCKED: ATOM      9  N   UNL     1     140.387  71.282 228.295 -0.46 +0.05    -0.228 NA 
DOCKED: ATOM     10  C   UNL     1     141.391  71.817 226.201 -0.62 -0.00    +0.021 A  
DOCKED: ATOM     11  C   UNL     1     141.090  72.149 227.521 -0.72 -0.03    +0.114 A  
DOCKED: ATOM     12  F   UNL     1     139.279  69.249 228.651 -0.17 +0.02    -0.184 F  
DOCKED: ENDBRANCH   5   6
DOCKED: ENDBRANCH   4   5
DOCKED: ENDBRANCH   3   4
DOCKED: ENDBRANCH   1   3
DOCKED: BRANCH   1  13
DOCKED: ATOM     13  C   UNL     1     137.132  70.257 223.139 -0.16 -0.01    +0.060 C  
DOCKED: BRANCH  13  14
DOCKED: ATOM     14  C   UNL     1     138.424  71.048 223.403 -0.25 -0.01    +0.048 C  
DOCKED: BRANCH  14  15
DOCKED: ATOM     15  C   UNL     1     138.722  72.090 222.319 -0.15 -0.06    +0.230 C  
DOCKED: BRANCH  15  16
DOCKED: ATOM     16  O   UNL     1     139.856  72.863 222.701 -0.50 +0.07    -0.492 OA 
DOCKED: BRANCH  16  17
DOCKED: ATOM     17  C   UNL     1     141.017  73.093 221.941 -0.21 -0.01    +0.137 A  
DOCKED: ATOM     18  C   UNL     1     141.778  71.962 221.611 -0.17 -0.00    +0.049 A  
DOCKED: ATOM     19  C   UNL     1     141.437  74.364 221.465 -0.20 -0.01    +0.084 A  
DOCKED: ATOM     20  C   UNL     1     142.935  72.074 220.838 -0.27 -0.00    +0.024 A  
DOCKED: ATOM     21  C   UNL     1     142.601  74.462 220.689 -0.28 -0.01    +0.045 A  
DOCKED: ATOM     22  C   UNL     1     143.346  73.323 220.375 -0.30 -0.01    +0.042 A  
DOCKED: ATOM     23  Cl  UNL     1     140.533  75.853 221.702 -0.44 +0.02    -0.080 Cl 
DOCKED: ATOM     24  Cl  UNL     1     144.783  73.462 219.378 -0.46 +0.01    -0.084 Cl 
DOCKED: ENDBRANCH  16  17
DOCKED: ENDBRANCH  15  16
DOCKED: ENDBRANCH  14  15
DOCKED: ENDBRANCH  13  14
DOCKED: ENDBRANCH   1  13
DOCKED: TORSDOF 9
DOCKED: TER
DOCKED: ENDMDL
________________________________________________________________________________


    FINAL DOCKED STATE:
    ________________________


Run:   10 / 20
Time taken for this run:   0.044s

DOCKED: MODEL        10
DOCKED: USER    Run = 10
DOCKED: USER
DOCKED: USER    Estimated Free Energy of Binding    =  -6.36 kcal/mol  [=(1)+(2)+(3)-(4)]
DOCKED: USER
DOCKED: USER    (1) Final Intermolecular Energy     =  -9.05 kcal/mol
DOCKED: USER        vdW + Hbond + desolv Energy     =  -9.11 kcal/mol
DOCKED: USER        Electrostatic Energy            =  +0.06 kcal/mol
DOCKED: USER        Moving Ligand-Fixed Receptor    =  -9.05 kcal/mol
DOCKED: USER        Moving Ligand-Moving Receptor   =  +0.00 kcal/mol
DOCKED: USER    (2) Final Total Internal Energy     =  -0.61 kcal/mol
DOCKED: USER    (3) Torsional Free Energy           =  +2.68 kcal/mol
DOCKED: USER    (4) Unbound System's Energy         =  -0.61 kcal/mol
DOCKED: USER
DOCKED: USER
DOCKED: REMARK SMILES O=C(CCCOc1ccc(Cl)cc1Cl)[N-]/N=C/c1cccnc1F
DOCKED: REMARK SMILES IDX 2 1 1 2 15 3 16 4 17 5 18 6 23 7 19 8 22 9 20 10 21 11 24 12
DOCKED: REMARK SMILES IDX 3 13 4 14 5 15 6 16 7 17 8 18 13 19 9 20 12 21 10 22 14 23
DOCKED: REMARK SMILES IDX 11 24
DOCKED: REMARK H PARENT
DOCKED: USER                              x       y       z     vdW  Elec       q    Type
DOCKED: USER                           _______ _______ _______ _____ _____    ______ ____
DOCKED: ROOT
DOCKED: ATOM      1  C   UNL     1     140.385  73.628 221.965 -0.23 -0.00    +0.068 C  
DOCKED: ATOM      2  O   UNL     1     139.601  74.573 222.245 -0.72 +0.04    -0.319 OA 
DOCKED: ENDROOT
DOCKED: BRANCH   1   3
DOCKED: ATOM      3  N   UNL     1     140.694  72.662 222.973 -0.24 -0.00    -0.545 NA 
DOCKED: BRANCH   3   4
DOCKED: ATOM      4  N   UNL     1     139.704  71.861 223.557 -0.18 +0.09    -0.372 NA 
DOCKED: BRANCH   4   5
DOCKED: ATOM      5  C   UNL     1     140.014  70.757 224.159 -0.35 -0.02    +0.099 C  
DOCKED: BRANCH   5   6
DOCKED: ATOM      6  C   UNL     1     140.299  70.740 225.609 -0.52 -0.01    +0.046 A  
DOCKED: ATOM      7  C   UNL     1     140.096  69.569 226.356 -0.35 -0.04    +0.221 A  
DOCKED: ATOM      8  C   UNL     1     140.792  71.878 226.269 -0.61 -0.00    +0.016 A  
DOCKED: ATOM      9  N   UNL     1     140.398  69.543 227.682 -0.35 +0.04    -0.228 NA 
DOCKED: ATOM     10  C   UNL     1     141.085  71.825 227.632 -0.82 -0.00    +0.021 A  
DOCKED: ATOM     11  C   UNL     1     140.887  70.633 228.328 -0.48 -0.02    +0.114 A  
DOCKED: ATOM     12  F   UNL     1     139.623  68.444 225.764 -0.14 +0.03    -0.184 F  
DOCKED: ENDBRANCH   5   6
DOCKED: ENDBRANCH   4   5
DOCKED: ENDBRANCH   3   4
DOCKED: ENDBRANCH   1   3
DOCKED: BRANCH   1  13
DOCKED: ATOM     13  C   UNL     1     140.932  73.515 220.567 -0.19 -0.01    +0.060 C  
DOCKED: BRANCH  13  14
DOCKED: ATOM     14  C   UNL     1     142.238  74.311 220.393 -0.26 -0.01    +0.048 C  
DOCKED: BRANCH  14  15
DOCKED: ATOM     15  C   UNL     1     142.029  75.661 219.697 -0.17 -0.10    +0.230 C  
DOCKED: BRANCH  15  16
DOCKED: ATOM     16  O   UNL     1     141.074  76.428 220.425 -0.05 +0.19    -0.492 OA 
DOCKED: BRANCH  16  17
DOCKED: ATOM     17  C   UNL     1     141.318  77.601 221.161 -0.26 -0.07    +0.137 A  
DOCKED: ATOM     18  C   UNL     1     141.136  77.513 222.549 -0.38 -0.02    +0.049 A  
DOCKED: ATOM     19  C   UNL     1     141.762  78.831 220.606 -0.27 -0.05    +0.084 A  
DOCKED: ATOM     20  C   UNL     1     141.375  78.611 223.377 -0.56 -0.01    +0.024 A  
DOCKED: ATOM     21  C   UNL     1     141.999  79.926 221.449 -0.39 -0.02    +0.045 A  
DOCKED: ATOM     22  C   UNL     1     141.809  79.817 222.829 -0.53 -0.01    +0.042 A  
DOCKED: ATOM     23  Cl  UNL     1     142.139  79.064 218.904 -0.33 +0.06    -0.080 Cl 
DOCKED: ATOM     24  Cl  UNL     1     142.139  81.190 223.870 -0.73 +0.01    -0.084 Cl 
DOCKED: ENDBRANCH  16  17
DOCKED: ENDBRANCH  15  16
DOCKED: ENDBRANCH  14  15
DOCKED: ENDBRANCH  13  14
DOCKED: ENDBRANCH   1  13
DOCKED: TORSDOF 9
DOCKED: TER
DOCKED: ENDMDL
________________________________________________________________________________


    FINAL DOCKED STATE:
    ________________________


Run:   11 / 20
Time taken for this run:   0.044s

DOCKED: MODEL        11
DOCKED: USER    Run = 11
DOCKED: USER
DOCKED: USER    Estimated Free Energy of Binding    =  -6.34 kcal/mol  [=(1)+(2)+(3)-(4)]
DOCKED: USER
DOCKED: USER    (1) Final Intermolecular Energy     =  -9.03 kcal/mol
DOCKED: USER        vdW + Hbond + desolv Energy     =  -9.13 kcal/mol
DOCKED: USER        Electrostatic Energy            =  +0.10 kcal/mol
DOCKED: USER        Moving Ligand-Fixed Receptor    =  -9.03 kcal/mol
DOCKED: USER        Moving Ligand-Moving Receptor   =  +0.00 kcal/mol
DOCKED: USER    (2) Final Total Internal Energy     =  -0.65 kcal/mol
DOCKED: USER    (3) Torsional Free Energy           =  +2.68 kcal/mol
DOCKED: USER    (4) Unbound System's Energy         =  -0.65 kcal/mol
DOCKED: USER
DOCKED: USER
DOCKED: REMARK SMILES O=C(CCCOc1ccc(Cl)cc1Cl)[N-]/N=C/c1cccnc1F
DOCKED: REMARK SMILES IDX 2 1 1 2 15 3 16 4 17 5 18 6 23 7 19 8 22 9 20 10 21 11 24 12
DOCKED: REMARK SMILES IDX 3 13 4 14 5 15 6 16 7 17 8 18 13 19 9 20 12 21 10 22 14 23
DOCKED: REMARK SMILES IDX 11 24
DOCKED: REMARK H PARENT
DOCKED: USER                              x       y       z     vdW  Elec       q    Type
DOCKED: USER                           _______ _______ _______ _____ _____    ______ ____
DOCKED: ROOT
DOCKED: ATOM      1  C   UNL     1     139.634  73.175 222.052 -0.24 -0.01    +0.068 C  
DOCKED: ATOM      2  O   UNL     1     140.494  74.066 222.281 -0.76 -0.02    -0.319 OA 
DOCKED: ENDROOT
DOCKED: BRANCH   1   3
DOCKED: ATOM      3  N   UNL     1     139.869  71.846 222.528 -0.09 +0.09    -0.545 NA 
DOCKED: BRANCH   3   4
DOCKED: ATOM      4  N   UNL     1     139.691  71.501 223.873 -0.18 +0.08    -0.372 NA 
DOCKED: BRANCH   4   5
DOCKED: ATOM      5  C   UNL     1     140.698  71.459 224.687 -0.41 -0.01    +0.099 C  
DOCKED: BRANCH   5   6
DOCKED: ATOM      6  C   UNL     1     140.622  70.689 225.945 -0.55 -0.01    +0.046 A  
DOCKED: ATOM      7  C   UNL     1     140.810  71.330 227.180 -0.53 -0.04    +0.221 A  
DOCKED: ATOM      8  C   UNL     1     140.345  69.311 225.942 -0.49 -0.00    +0.016 A  
DOCKED: ATOM      9  N   UNL     1     140.699  70.627 228.339 -0.37 +0.04    -0.228 NA 
DOCKED: ATOM     10  C   UNL     1     140.245  68.614 227.147 -0.63 -0.00    +0.021 A  
DOCKED: ATOM     11  C   UNL     1     140.419  69.298 228.349 -0.53 -0.02    +0.114 A  
DOCKED: ATOM     12  F   UNL     1     141.078  72.659 227.235 -0.32 +0.04    -0.184 F  
DOCKED: ENDBRANCH   5   6
DOCKED: ENDBRANCH   4   5
DOCKED: ENDBRANCH   3   4
DOCKED: ENDBRANCH   1   3
DOCKED: BRANCH   1  13
DOCKED: ATOM     13  C   UNL     1     138.365  73.544 221.332 -0.15 -0.01    +0.060 C  
DOCKED: BRANCH  13  14
DOCKED: ATOM     14  C   UNL     1     138.279  75.055 221.055 -0.14 -0.01    +0.048 C  
DOCKED: BRANCH  14  15
DOCKED: ATOM     15  C   UNL     1     138.281  75.901 222.334 -0.20 -0.06    +0.230 C  
DOCKED: BRANCH  15  16
DOCKED: ATOM     16  O   UNL     1     138.474  77.272 221.997 -0.07 +0.10    -0.492 OA 
DOCKED: BRANCH  16  17
DOCKED: ATOM     17  C   UNL     1     139.565  78.083 222.355 -0.26 -0.03    +0.137 A  
DOCKED: ATOM     18  C   UNL     1     139.319  79.060 223.331 -0.35 -0.01    +0.049 A  
DOCKED: ATOM     19  C   UNL     1     140.879  77.956 221.829 -0.33 -0.03    +0.084 A  
DOCKED: ATOM     20  C   UNL     1     140.339  79.903 223.778 -0.44 -0.00    +0.024 A  
DOCKED: ATOM     21  C   UNL     1     141.893  78.809 222.287 -0.44 -0.02    +0.045 A  
DOCKED: ATOM     22  C   UNL     1     141.626  79.777 223.259 -0.54 -0.01    +0.042 A  
DOCKED: ATOM     23  Cl  UNL     1     141.366  76.713 220.684 -0.35 +0.04    -0.080 Cl 
DOCKED: ATOM     24  Cl  UNL     1     142.915  80.815 223.841 -0.76 +0.02    -0.084 Cl 
DOCKED: ENDBRANCH  16  17
DOCKED: ENDBRANCH  15  16
DOCKED: ENDBRANCH  14  15
DOCKED: ENDBRANCH  13  14
DOCKED: ENDBRANCH   1  13
DOCKED: TORSDOF 9
DOCKED: TER
DOCKED: ENDMDL
________________________________________________________________________________


    FINAL DOCKED STATE:
    ________________________


Run:   12 / 20
Time taken for this run:   0.044s

DOCKED: MODEL        12
DOCKED: USER    Run = 12
DOCKED: USER
DOCKED: USER    Estimated Free Energy of Binding    =  -5.80 kcal/mol  [=(1)+(2)+(3)-(4)]
DOCKED: USER
DOCKED: USER    (1) Final Intermolecular Energy     =  -8.48 kcal/mol
DOCKED: USER        vdW + Hbond + desolv Energy     =  -8.47 kcal/mol
DOCKED: USER        Electrostatic Energy            =  -0.01 kcal/mol
DOCKED: USER        Moving Ligand-Fixed Receptor    =  -8.48 kcal/mol
DOCKED: USER        Moving Ligand-Moving Receptor   =  +0.00 kcal/mol
DOCKED: USER    (2) Final Total Internal Energy     =  -0.94 kcal/mol
DOCKED: USER    (3) Torsional Free Energy           =  +2.68 kcal/mol
DOCKED: USER    (4) Unbound System's Energy         =  -0.94 kcal/mol
DOCKED: USER
DOCKED: USER
DOCKED: REMARK SMILES O=C(CCCOc1ccc(Cl)cc1Cl)[N-]/N=C/c1cccnc1F
DOCKED: REMARK SMILES IDX 2 1 1 2 15 3 16 4 17 5 18 6 23 7 19 8 22 9 20 10 21 11 24 12
DOCKED: REMARK SMILES IDX 3 13 4 14 5 15 6 16 7 17 8 18 13 19 9 20 12 21 10 22 14 23
DOCKED: REMARK SMILES IDX 11 24
DOCKED: REMARK H PARENT
DOCKED: USER                              x       y       z     vdW  Elec       q    Type
DOCKED: USER                           _______ _______ _______ _____ _____    ______ ____
DOCKED: ROOT
DOCKED: ATOM      1  C   UNL     1     134.821  69.245 225.068 -0.23 -0.00    +0.068 C  
DOCKED: ATOM      2  O   UNL     1     135.049  68.171 224.452 -0.60 -0.04    -0.319 OA 
DOCKED: ENDROOT
DOCKED: BRANCH   1   3
DOCKED: ATOM      3  N   UNL     1     133.826  69.256 226.096 -0.48 +0.01    -0.545 NA 
DOCKED: BRANCH   3   4
DOCKED: ATOM      4  N   UNL     1     133.650  70.357 226.943 -0.33 +0.01    -0.372 NA 
DOCKED: BRANCH   4   5
DOCKED: ATOM      5  C   UNL     1     132.768  71.267 226.674 -0.30 -0.01    +0.099 C  
DOCKED: BRANCH   5   6
DOCKED: ATOM      6  C   UNL     1     133.155  72.689 226.570 -0.36 -0.00    +0.046 A  
DOCKED: ATOM      7  C   UNL     1     132.480  73.663 227.321 -0.28 -0.02    +0.221 A  
DOCKED: ATOM      8  C   UNL     1     134.211  73.098 225.738 -0.30 +0.00    +0.016 A  
DOCKED: ATOM      9  N   UNL     1     132.864  74.966 227.255 -0.59 -0.01    -0.228 NA 
DOCKED: ATOM     10  C   UNL     1     134.579  74.443 225.684 -0.34 +0.00    +0.021 A  
DOCKED: ATOM     11  C   UNL     1     133.891  75.372 226.464 -0.34 +0.00    +0.114 A  
DOCKED: ATOM     12  F   UNL     1     131.454  73.317 228.140 -0.14 +0.05    -0.184 F  
DOCKED: ENDBRANCH   5   6
DOCKED: ENDBRANCH   4   5
DOCKED: ENDBRANCH   3   4
DOCKED: ENDBRANCH   1   3
DOCKED: BRANCH   1  13
DOCKED: ATOM     13  C   UNL     1     135.635  70.468 224.743 -0.16 -0.01    +0.060 C  
DOCKED: BRANCH  13  14
DOCKED: ATOM     14  C   UNL     1     136.465  70.284 223.461 -0.17 -0.01    +0.048 C  
DOCKED: BRANCH  14  15
DOCKED: ATOM     15  C   UNL     1     137.436  71.441 223.203 -0.13 -0.06    +0.230 C  
DOCKED: BRANCH  15  16
DOCKED: ATOM     16  O   UNL     1     138.776  70.983 223.363 -0.08 +0.11    -0.492 OA 
DOCKED: BRANCH  16  17
DOCKED: ATOM     17  C   UNL     1     139.315  70.329 224.485 -0.30 -0.02    +0.137 A  
DOCKED: ATOM     18  C   UNL     1     139.748  71.151 225.536 -0.39 -0.01    +0.049 A  
DOCKED: ATOM     19  C   UNL     1     139.415  68.919 224.634 -0.30 -0.01    +0.084 A  
DOCKED: ATOM     20  C   UNL     1     140.276  70.605 226.707 -0.57 -0.00    +0.024 A  
DOCKED: ATOM     21  C   UNL     1     139.948  68.384 225.815 -0.51 -0.01    +0.045 A  
DOCKED: ATOM     22  C   UNL     1     140.375  69.222 226.849 -0.54 -0.01    +0.042 A  
DOCKED: ATOM     23  Cl  UNL     1     138.818  67.760 223.455 -0.25 +0.01    -0.080 Cl 
DOCKED: ATOM     24  Cl  UNL     1     141.010  68.532 228.331 -0.78 +0.02    -0.084 Cl 
DOCKED: ENDBRANCH  16  17
DOCKED: ENDBRANCH  15  16
DOCKED: ENDBRANCH  14  15
DOCKED: ENDBRANCH  13  14
DOCKED: ENDBRANCH   1  13
DOCKED: TORSDOF 9
DOCKED: TER
DOCKED: ENDMDL
________________________________________________________________________________


    FINAL DOCKED STATE:
    ________________________


Run:   13 / 20
Time taken for this run:   0.044s

DOCKED: MODEL        13
DOCKED: USER    Run = 13
DOCKED: USER
DOCKED: USER    Estimated Free Energy of Binding    =  -5.95 kcal/mol  [=(1)+(2)+(3)-(4)]
DOCKED: USER
DOCKED: USER    (1) Final Intermolecular Energy     =  -8.64 kcal/mol
DOCKED: USER        vdW + Hbond + desolv Energy     =  -8.69 kcal/mol
DOCKED: USER        Electrostatic Energy            =  +0.05 kcal/mol
DOCKED: USER        Moving Ligand-Fixed Receptor    =  -8.64 kcal/mol
DOCKED: USER        Moving Ligand-Moving Receptor   =  +0.00 kcal/mol
DOCKED: USER    (2) Final Total Internal Energy     =  -0.61 kcal/mol
DOCKED: USER    (3) Torsional Free Energy           =  +2.68 kcal/mol
DOCKED: USER    (4) Unbound System's Energy         =  -0.61 kcal/mol
DOCKED: USER
DOCKED: USER
DOCKED: REMARK SMILES O=C(CCCOc1ccc(Cl)cc1Cl)[N-]/N=C/c1cccnc1F
DOCKED: REMARK SMILES IDX 2 1 1 2 15 3 16 4 17 5 18 6 23 7 19 8 22 9 20 10 21 11 24 12
DOCKED: REMARK SMILES IDX 3 13 4 14 5 15 6 16 7 17 8 18 13 19 9 20 12 21 10 22 14 23
DOCKED: REMARK SMILES IDX 11 24
DOCKED: REMARK H PARENT
DOCKED: USER                              x       y       z     vdW  Elec       q    Type
DOCKED: USER                           _______ _______ _______ _____ _____    ______ ____
DOCKED: ROOT
DOCKED: ATOM      1  C   UNL     1     140.163  73.006 221.839 -0.27 -0.01    +0.068 C  
DOCKED: ATOM      2  O   UNL     1     141.034  73.878 222.097 -0.60 -0.01    -0.319 OA 
DOCKED: ENDROOT
DOCKED: BRANCH   1   3
DOCKED: ATOM      3  N   UNL     1     140.196  71.763 222.547 -0.09 +0.08    -0.545 NA 
DOCKED: BRANCH   3   4
DOCKED: ATOM      4  N   UNL     1     139.470  71.566 223.727 -0.16 +0.09    -0.372 NA 
DOCKED: BRANCH   4   5
DOCKED: ATOM      5  C   UNL     1     140.076  71.340 224.850 -0.40 -0.02    +0.099 C  
DOCKED: BRANCH   5   6
DOCKED: ATOM      6  C   UNL     1     140.091  69.988 225.443 -0.43 -0.01    +0.046 A  
DOCKED: ATOM      7  C   UNL     1     139.182  69.011 225.004 -0.27 -0.03    +0.221 A  
DOCKED: ATOM      8  C   UNL     1     141.018  69.638 226.440 -0.54 -0.00    +0.016 A  
DOCKED: ATOM      9  N   UNL     1     139.225  67.755 225.522 -0.82 +0.01    -0.228 NA 
DOCKED: ATOM     10  C   UNL     1     141.033  68.343 226.959 -0.63 -0.01    +0.021 A  
DOCKED: ATOM     11  C   UNL     1     140.124  67.402 226.477 -0.58 -0.02    +0.114 A  
DOCKED: ATOM     12  F   UNL     1     138.270  69.300 224.042 -0.07 +0.02    -0.184 F  
DOCKED: ENDBRANCH   5   6
DOCKED: ENDBRANCH   4   5
DOCKED: ENDBRANCH   3   4
DOCKED: ENDBRANCH   1   3
DOCKED: BRANCH   1  13
DOCKED: ATOM     13  C   UNL     1     139.086  73.316 220.835 -0.13 -0.01    +0.060 C  
DOCKED: BRANCH  13  14
DOCKED: ATOM     14  C   UNL     1     138.047  74.305 221.391 -0.15 -0.01    +0.048 C  
DOCKED: BRANCH  14  15
DOCKED: ATOM     15  C   UNL     1     138.654  75.340 222.344 -0.13 -0.06    +0.230 C  
DOCKED: BRANCH  15  16
DOCKED: ATOM     16  O   UNL     1     138.986  76.519 221.616 -0.07 +0.11    -0.492 OA 
DOCKED: BRANCH  16  17
DOCKED: ATOM     17  C   UNL     1     139.866  77.541 222.019 -0.26 -0.04    +0.137 A  
DOCKED: ATOM     18  C   UNL     1     139.434  78.349 223.082 -0.28 -0.01    +0.049 A  
DOCKED: ATOM     19  C   UNL     1     141.149  77.777 221.456 -0.31 -0.04    +0.084 A  
DOCKED: ATOM     20  C   UNL     1     140.240  79.376 223.577 -0.45 -0.00    +0.024 A  
DOCKED: ATOM     21  C   UNL     1     141.947  78.812 221.964 -0.40 -0.02    +0.045 A  
DOCKED: ATOM     22  C   UNL     1     141.497  79.606 223.021 -0.51 -0.01    +0.042 A  
DOCKED: ATOM     23  Cl  UNL     1     141.870  76.783 220.198 -0.35 +0.04    -0.080 Cl 
DOCKED: ATOM     24  Cl  UNL     1     142.523  80.876 223.662 -0.79 +0.02    -0.084 Cl 
DOCKED: ENDBRANCH  16  17
DOCKED: ENDBRANCH  15  16
DOCKED: ENDBRANCH  14  15
DOCKED: ENDBRANCH  13  14
DOCKED: ENDBRANCH   1  13
DOCKED: TORSDOF 9
DOCKED: TER
DOCKED: ENDMDL
________________________________________________________________________________


    FINAL DOCKED STATE:
    ________________________


Run:   14 / 20
Time taken for this run:   0.044s

DOCKED: MODEL        14
DOCKED: USER    Run = 14
DOCKED: USER
DOCKED: USER    Estimated Free Energy of Binding    =  -6.01 kcal/mol  [=(1)+(2)+(3)-(4)]
DOCKED: USER
DOCKED: USER    (1) Final Intermolecular Energy     =  -8.70 kcal/mol
DOCKED: USER        vdW + Hbond + desolv Energy     =  -8.77 kcal/mol
DOCKED: USER        Electrostatic Energy            =  +0.07 kcal/mol
DOCKED: USER        Moving Ligand-Fixed Receptor    =  -8.70 kcal/mol
DOCKED: USER        Moving Ligand-Moving Receptor   =  +0.00 kcal/mol
DOCKED: USER    (2) Final Total Internal Energy     =  -0.63 kcal/mol
DOCKED: USER    (3) Torsional Free Energy           =  +2.68 kcal/mol
DOCKED: USER    (4) Unbound System's Energy         =  -0.63 kcal/mol
DOCKED: USER
DOCKED: USER
DOCKED: REMARK SMILES O=C(CCCOc1ccc(Cl)cc1Cl)[N-]/N=C/c1cccnc1F
DOCKED: REMARK SMILES IDX 2 1 1 2 15 3 16 4 17 5 18 6 23 7 19 8 22 9 20 10 21 11 24 12
DOCKED: REMARK SMILES IDX 3 13 4 14 5 15 6 16 7 17 8 18 13 19 9 20 12 21 10 22 14 23
DOCKED: REMARK SMILES IDX 11 24
DOCKED: REMARK H PARENT
DOCKED: USER                              x       y       z     vdW  Elec       q    Type
DOCKED: USER                           _______ _______ _______ _____ _____    ______ ____
DOCKED: ROOT
DOCKED: ATOM      1  C   UNL     1     139.640  73.502 221.995 -0.24 -0.01    +0.068 C  
DOCKED: ATOM      2  O   UNL     1     140.702  74.100 222.313 -0.70 -0.03    -0.319 OA 
DOCKED: ENDROOT
DOCKED: BRANCH   1   3
DOCKED: ATOM      3  N   UNL     1     139.577  72.080 222.136 -0.07 +0.10    -0.545 NA 
DOCKED: BRANCH   3   4
DOCKED: ATOM      4  N   UNL     1     139.233  71.473 223.350 -0.14 +0.09    -0.372 NA 
DOCKED: BRANCH   4   5
DOCKED: ATOM      5  C   UNL     1     140.083  70.728 223.984 -0.32 -0.02    +0.099 C  
DOCKED: BRANCH   5   6
DOCKED: ATOM      6  C   UNL     1     140.267  70.865 225.444 -0.51 -0.01    +0.046 A  
DOCKED: ATOM      7  C   UNL     1     139.672  69.945 226.322 -0.32 -0.03    +0.221 A  
DOCKED: ATOM      8  C   UNL     1     141.049  71.898 225.987 -0.57 -0.00    +0.016 A  
DOCKED: ATOM      9  N   UNL     1     139.876  70.049 227.662 -0.35 +0.04    -0.228 NA 
DOCKED: ATOM     10  C   UNL     1     141.235  71.984 227.367 -0.79 -0.00    +0.021 A  
DOCKED: ATOM     11  C   UNL     1     140.640  71.035 228.197 -0.58 -0.02    +0.114 A  
DOCKED: ATOM     12  F   UNL     1     138.908  68.930 225.845 -0.12 +0.02    -0.184 F  
DOCKED: ENDBRANCH   5   6
DOCKED: ENDBRANCH   4   5
DOCKED: ENDBRANCH   3   4
DOCKED: ENDBRANCH   1   3
DOCKED: BRANCH   1  13
DOCKED: ATOM     13  C   UNL     1     138.456  74.304 221.526 -0.18 -0.01    +0.060 C  
DOCKED: BRANCH  13  14
DOCKED: ATOM     14  C   UNL     1     138.873  75.678 220.972 -0.16 -0.01    +0.048 C  
DOCKED: BRANCH  14  15
DOCKED: ATOM     15  C   UNL     1     137.938  76.810 221.411 -0.11 -0.05    +0.230 C  
DOCKED: BRANCH  15  16
DOCKED: ATOM     16  O   UNL     1     138.324  77.270 222.704 -0.12 +0.09    -0.492 OA 
DOCKED: BRANCH  16  17
DOCKED: ATOM     17  C   UNL     1     139.361  78.172 223.003 -0.20 -0.02    +0.137 A  
DOCKED: ATOM     18  C   UNL     1     140.666  77.725 222.750 -0.40 -0.01    +0.049 A  
DOCKED: ATOM     19  C   UNL     1     139.173  79.490 223.501 -0.35 -0.01    +0.084 A  
DOCKED: ATOM     20  C   UNL     1     141.768  78.549 222.988 -0.50 -0.01    +0.024 A  
DOCKED: ATOM     21  C   UNL     1     140.288  80.307 223.735 -0.40 -0.01    +0.045 A  
DOCKED: ATOM     22  C   UNL     1     141.580  79.841 223.478 -0.55 -0.01    +0.042 A  
DOCKED: ATOM     23  Cl  UNL     1     137.599  80.228 223.764 -0.36 +0.01    -0.080 Cl 
DOCKED: ATOM     24  Cl  UNL     1     142.961  80.888 223.748 -0.72 +0.02    -0.084 Cl 
DOCKED: ENDBRANCH  16  17
DOCKED: ENDBRANCH  15  16
DOCKED: ENDBRANCH  14  15
DOCKED: ENDBRANCH  13  14
DOCKED: ENDBRANCH   1  13
DOCKED: TORSDOF 9
DOCKED: TER
DOCKED: ENDMDL
________________________________________________________________________________


    FINAL DOCKED STATE:
    ________________________


Run:   15 / 20
Time taken for this run:   0.044s

DOCKED: MODEL        15
DOCKED: USER    Run = 15
DOCKED: USER
DOCKED: USER    Estimated Free Energy of Binding    =  -5.12 kcal/mol  [=(1)+(2)+(3)-(4)]
DOCKED: USER
DOCKED: USER    (1) Final Intermolecular Energy     =  -7.80 kcal/mol
DOCKED: USER        vdW + Hbond + desolv Energy     =  -7.90 kcal/mol
DOCKED: USER        Electrostatic Energy            =  +0.10 kcal/mol
DOCKED: USER        Moving Ligand-Fixed Receptor    =  -7.80 kcal/mol
DOCKED: USER        Moving Ligand-Moving Receptor   =  +0.00 kcal/mol
DOCKED: USER    (2) Final Total Internal Energy     =  -1.54 kcal/mol
DOCKED: USER    (3) Torsional Free Energy           =  +2.68 kcal/mol
DOCKED: USER    (4) Unbound System's Energy         =  -1.54 kcal/mol
DOCKED: USER
DOCKED: USER
DOCKED: REMARK SMILES O=C(CCCOc1ccc(Cl)cc1Cl)[N-]/N=C/c1cccnc1F
DOCKED: REMARK SMILES IDX 2 1 1 2 15 3 16 4 17 5 18 6 23 7 19 8 22 9 20 10 21 11 24 12
DOCKED: REMARK SMILES IDX 3 13 4 14 5 15 6 16 7 17 8 18 13 19 9 20 12 21 10 22 14 23
DOCKED: REMARK SMILES IDX 11 24
DOCKED: REMARK H PARENT
DOCKED: USER                              x       y       z     vdW  Elec       q    Type
DOCKED: USER                           _______ _______ _______ _____ _____    ______ ____
DOCKED: ROOT
DOCKED: ATOM      1  C   UNL     1     139.774  73.410 222.127 -0.20 -0.01    +0.068 C  
DOCKED: ATOM      2  O   UNL     1     140.733  72.863 222.732 -0.55 -0.01    -0.319 OA 
DOCKED: ENDROOT
DOCKED: BRANCH   1   3
DOCKED: ATOM      3  N   UNL     1     139.538  74.807 222.320 -0.52 +0.08    -0.545 NA 
DOCKED: BRANCH   3   4
DOCKED: ATOM      4  N   UNL     1     140.577  75.745 222.267 -0.33 +0.06    -0.372 NA 
DOCKED: BRANCH   4   5
DOCKED: ATOM      5  C   UNL     1     140.413  76.884 221.671 -0.31 -0.03    +0.099 C  
DOCKED: BRANCH   5   6
DOCKED: ATOM      6  C   UNL     1     141.146  78.085 222.121 -0.39 -0.02    +0.046 A  
DOCKED: ATOM      7  C   UNL     1     141.506  79.082 221.199 -0.24 -0.11    +0.221 A  
DOCKED: ATOM      8  C   UNL     1     141.484  78.271 223.473 -0.53 -0.01    +0.016 A  
DOCKED: ATOM      9  N   UNL     1     142.144  80.206 221.622 -0.28 +0.09    -0.228 NA 
DOCKED: ATOM     10  C   UNL     1     142.145  79.431 223.876 -0.58 -0.01    +0.021 A  
DOCKED: ATOM     11  C   UNL     1     142.464  80.402 222.927 -0.54 -0.03    +0.114 A  
DOCKED: ATOM     12  F   UNL     1     141.200  78.948 219.884 -0.05 +0.09    -0.184 F  
DOCKED: ENDBRANCH   5   6
DOCKED: ENDBRANCH   4   5
DOCKED: ENDBRANCH   3   4
DOCKED: ENDBRANCH   1   3
DOCKED: BRANCH   1  13
DOCKED: ATOM     13  C   UNL     1     138.937  72.590 221.182 -0.13 -0.01    +0.060 C  
DOCKED: BRANCH  13  14
DOCKED: ATOM     14  C   UNL     1     139.447  72.681 219.733 -0.05 -0.01    +0.048 C  
DOCKED: BRANCH  14  15
DOCKED: ATOM     15  C   UNL     1     139.923  74.088 219.352 -0.03 -0.05    +0.230 C  
DOCKED: BRANCH  15  16
DOCKED: ATOM     16  O   UNL     1     141.230  74.012 218.792 +0.02 +0.12    -0.492 OA 
DOCKED: BRANCH  16  17
DOCKED: ATOM     17  C   UNL     1     142.448  73.953 219.494 -0.14 -0.04    +0.137 A  
DOCKED: ATOM     18  C   UNL     1     142.837  72.688 219.958 -0.20 -0.01    +0.049 A  
DOCKED: ATOM     19  C   UNL     1     143.306  75.062 219.725 -0.33 -0.04    +0.084 A  
DOCKED: ATOM     20  C   UNL     1     144.039  72.513 220.645 -0.35 -0.00    +0.024 A  
DOCKED: ATOM     21  C   UNL     1     144.511  74.871 220.416 -0.36 -0.02    +0.045 A  
DOCKED: ATOM     22  C   UNL     1     144.878  73.603 220.873 -0.52 -0.01    +0.042 A  
DOCKED: ATOM     23  Cl  UNL     1     143.009  76.683 219.112 -0.45 +0.05    -0.080 Cl 
DOCKED: ATOM     24  Cl  UNL     1     146.404  73.380 221.709 -0.84 +0.01    -0.084 Cl 
DOCKED: ENDBRANCH  16  17
DOCKED: ENDBRANCH  15  16
DOCKED: ENDBRANCH  14  15
DOCKED: ENDBRANCH  13  14
DOCKED: ENDBRANCH   1  13
DOCKED: TORSDOF 9
DOCKED: TER
DOCKED: ENDMDL
________________________________________________________________________________


    FINAL DOCKED STATE:
    ________________________


Run:   16 / 20
Time taken for this run:   0.044s

DOCKED: MODEL        16
DOCKED: USER    Run = 16
DOCKED: USER
DOCKED: USER    Estimated Free Energy of Binding    =  -6.06 kcal/mol  [=(1)+(2)+(3)-(4)]
DOCKED: USER
DOCKED: USER    (1) Final Intermolecular Energy     =  -8.75 kcal/mol
DOCKED: USER        vdW + Hbond + desolv Energy     =  -8.93 kcal/mol
DOCKED: USER        Electrostatic Energy            =  +0.18 kcal/mol
DOCKED: USER        Moving Ligand-Fixed Receptor    =  -8.75 kcal/mol
DOCKED: USER        Moving Ligand-Moving Receptor   =  +0.00 kcal/mol
DOCKED: USER    (2) Final Total Internal Energy     =  -0.46 kcal/mol
DOCKED: USER    (3) Torsional Free Energy           =  +2.68 kcal/mol
DOCKED: USER    (4) Unbound System's Energy         =  -0.46 kcal/mol
DOCKED: USER
DOCKED: USER
DOCKED: REMARK SMILES O=C(CCCOc1ccc(Cl)cc1Cl)[N-]/N=C/c1cccnc1F
DOCKED: REMARK SMILES IDX 2 1 1 2 15 3 16 4 17 5 18 6 23 7 19 8 22 9 20 10 21 11 24 12
DOCKED: REMARK SMILES IDX 3 13 4 14 5 15 6 16 7 17 8 18 13 19 9 20 12 21 10 22 14 23
DOCKED: REMARK SMILES IDX 11 24
DOCKED: REMARK H PARENT
DOCKED: USER                              x       y       z     vdW  Elec       q    Type
DOCKED: USER                           _______ _______ _______ _____ _____    ______ ____
DOCKED: ROOT
DOCKED: ATOM      1  C   UNL     1     140.219  74.202 220.721 -0.19 -0.01    +0.068 C  
DOCKED: ATOM      2  O   UNL     1     139.735  74.714 219.677 -0.02 +0.07    -0.319 OA 
DOCKED: ENDROOT
DOCKED: BRANCH   1   3
DOCKED: ATOM      3  N   UNL     1     139.965  74.827 221.982 -0.58 +0.06    -0.545 NA 
DOCKED: BRANCH   3   4
DOCKED: ATOM      4  N   UNL     1     140.610  76.009 222.364 -0.29 +0.08    -0.372 NA 
DOCKED: BRANCH   4   5
DOCKED: ATOM      5  C   UNL     1     140.010  77.153 222.271 -0.33 -0.02    +0.099 C  
DOCKED: BRANCH   5   6
DOCKED: ATOM      6  C   UNL     1     140.694  78.401 222.667 -0.42 -0.01    +0.046 A  
DOCKED: ATOM      7  C   UNL     1     140.022  79.364 223.437 -0.31 -0.04    +0.221 A  
DOCKED: ATOM      8  C   UNL     1     142.028  78.649 222.302 -0.37 -0.01    +0.016 A  
DOCKED: ATOM      9  N   UNL     1     140.666  80.493 223.835 -0.27 +0.03    -0.228 NA 
DOCKED: ATOM     10  C   UNL     1     142.662  79.821 222.718 -0.60 -0.01    +0.021 A  
DOCKED: ATOM     11  C   UNL     1     141.959  80.737 223.499 -0.53 -0.02    +0.114 A  
DOCKED: ATOM     12  F   UNL     1     138.733  79.169 223.816 -0.10 +0.02    -0.184 F  
DOCKED: ENDBRANCH   5   6
DOCKED: ENDBRANCH   4   5
DOCKED: ENDBRANCH   3   4
DOCKED: ENDBRANCH   1   3
DOCKED: BRANCH   1  13
DOCKED: ATOM     13  C   UNL     1     141.005  72.922 220.616 -0.18 -0.01    +0.060 C  
DOCKED: BRANCH  13  14
DOCKED: ATOM     14  C   UNL     1     141.173  72.235 221.983 -0.22 -0.00    +0.048 C  
DOCKED: BRANCH  14  15
DOCKED: ATOM     15  C   UNL     1     139.879  71.591 222.493 -0.21 -0.04    +0.230 C  
DOCKED: BRANCH  15  16
DOCKED: ATOM     16  O   UNL     1     139.728  71.864 223.883 -0.18 +0.12    -0.492 OA 
DOCKED: BRANCH  16  17
DOCKED: ATOM     17  C   UNL     1     140.012  70.994 224.951 -0.40 -0.02    +0.137 A  
DOCKED: ATOM     18  C   UNL     1     140.763  71.531 226.007 -0.60 -0.01    +0.049 A  
DOCKED: ATOM     19  C   UNL     1     139.567  69.648 225.042 -0.35 -0.01    +0.084 A  
DOCKED: ATOM     20  C   UNL     1     141.081  70.761 227.128 -0.62 -0.00    +0.024 A  
DOCKED: ATOM     21  C   UNL     1     139.893  68.886 226.173 -0.50 -0.01    +0.045 A  
DOCKED: ATOM     22  C   UNL     1     140.644  69.440 227.213 -0.56 -0.01    +0.042 A  
DOCKED: ATOM     23  Cl  UNL     1     138.530  68.871 223.854 -0.38 +0.01    -0.080 Cl 
DOCKED: ATOM     24  Cl  UNL     1     141.016  68.481 228.634 -0.72 +0.02    -0.084 Cl 
DOCKED: ENDBRANCH  16  17
DOCKED: ENDBRANCH  15  16
DOCKED: ENDBRANCH  14  15
DOCKED: ENDBRANCH  13  14
DOCKED: ENDBRANCH   1  13
DOCKED: TORSDOF 9
DOCKED: TER
DOCKED: ENDMDL
________________________________________________________________________________


    FINAL DOCKED STATE:
    ________________________


Run:   17 / 20
Time taken for this run:   0.044s

DOCKED: MODEL        17
DOCKED: USER    Run = 17
DOCKED: USER
DOCKED: USER    Estimated Free Energy of Binding    =  -5.61 kcal/mol  [=(1)+(2)+(3)-(4)]
DOCKED: USER
DOCKED: USER    (1) Final Intermolecular Energy     =  -8.29 kcal/mol
DOCKED: USER        vdW + Hbond + desolv Energy     =  -8.39 kcal/mol
DOCKED: USER        Electrostatic Energy            =  +0.10 kcal/mol
DOCKED: USER        Moving Ligand-Fixed Receptor    =  -8.29 kcal/mol
DOCKED: USER        Moving Ligand-Moving Receptor   =  +0.00 kcal/mol
DOCKED: USER    (2) Final Total Internal Energy     =  -0.73 kcal/mol
DOCKED: USER    (3) Torsional Free Energy           =  +2.68 kcal/mol
DOCKED: USER    (4) Unbound System's Energy         =  -0.73 kcal/mol
DOCKED: USER
DOCKED: USER
DOCKED: REMARK SMILES O=C(CCCOc1ccc(Cl)cc1Cl)[N-]/N=C/c1cccnc1F
DOCKED: REMARK SMILES IDX 2 1 1 2 15 3 16 4 17 5 18 6 23 7 19 8 22 9 20 10 21 11 24 12
DOCKED: REMARK SMILES IDX 3 13 4 14 5 15 6 16 7 17 8 18 13 19 9 20 12 21 10 22 14 23
DOCKED: REMARK SMILES IDX 11 24
DOCKED: REMARK H PARENT
DOCKED: USER                              x       y       z     vdW  Elec       q    Type
DOCKED: USER                           _______ _______ _______ _____ _____    ______ ____
DOCKED: ROOT
DOCKED: ATOM      1  C   UNL     1     140.417  74.276 221.927 -0.13 -0.00    +0.068 C  
DOCKED: ATOM      2  O   UNL     1     141.374  74.984 221.517 -0.34 +0.07    -0.319 OA 
DOCKED: ENDROOT
DOCKED: BRANCH   1   3
DOCKED: ATOM      3  N   UNL     1     140.682  72.943 222.374 -0.44 +0.01    -0.545 NA 
DOCKED: BRANCH   3   4
DOCKED: ATOM      4  N   UNL     1     139.964  72.359 223.424 -0.23 +0.07    -0.372 NA 
DOCKED: BRANCH   4   5
DOCKED: ATOM      5  C   UNL     1     140.315  71.212 223.912 -0.36 -0.01    +0.099 C  
DOCKED: BRANCH   5   6
DOCKED: ATOM      6  C   UNL     1     140.342  70.987 225.372 -0.51 -0.01    +0.046 A  
DOCKED: ATOM      7  C   UNL     1     139.731  69.849 225.924 -0.31 -0.03    +0.221 A  
DOCKED: ATOM      8  C   UNL     1     140.987  71.886 226.238 -0.64 -0.00    +0.016 A  
DOCKED: ATOM      9  N   UNL     1     139.792  69.622 227.263 -0.32 +0.04    -0.228 NA 
DOCKED: ATOM     10  C   UNL     1     141.026  71.632 227.609 -0.79 -0.00    +0.021 A  
DOCKED: ATOM     11  C   UNL     1     140.424  70.478 228.108 -0.53 -0.02    +0.114 A  
DOCKED: ATOM     12  F   UNL     1     139.098  68.950 225.128 -0.11 +0.02    -0.184 F  
DOCKED: ENDBRANCH   5   6
DOCKED: ENDBRANCH   4   5
DOCKED: ENDBRANCH   3   4
DOCKED: ENDBRANCH   1   3
DOCKED: BRANCH   1  13
DOCKED: ATOM     13  C   UNL     1     139.035  74.869 221.984 -0.24 -0.01    +0.060 C  
DOCKED: BRANCH  13  14
DOCKED: ATOM     14  C   UNL     1     138.545  75.325 220.599 -0.11 -0.01    +0.048 C  
DOCKED: BRANCH  14  15
DOCKED: ATOM     15  C   UNL     1     139.304  76.545 220.067 -0.05 -0.06    +0.230 C  
DOCKED: BRANCH  15  16
DOCKED: ATOM     16  O   UNL     1     139.049  77.667 220.907 +0.00 +0.12    -0.492 OA 
DOCKED: BRANCH  16  17
DOCKED: ATOM     17  C   UNL     1     140.002  78.451 221.582 -0.19 -0.04    +0.137 A  
DOCKED: ATOM     18  C   UNL     1     139.740  78.721 222.933 -0.34 -0.01    +0.049 A  
DOCKED: ATOM     19  C   UNL     1     141.203  78.944 221.006 -0.27 -0.04    +0.084 A  
DOCKED: ATOM     20  C   UNL     1     140.633  79.468 223.704 -0.49 -0.00    +0.024 A  
DOCKED: ATOM     21  C   UNL     1     142.091  79.693 221.791 -0.43 -0.02    +0.045 A  
DOCKED: ATOM     22  C   UNL     1     141.809  79.952 223.135 -0.56 -0.01    +0.042 A  
DOCKED: ATOM     23  Cl  UNL     1     141.721  78.598 219.361 -0.34 +0.05    -0.080 Cl 
DOCKED: ATOM     24  Cl  UNL     1     142.947  80.865 224.109 -0.66 +0.01    -0.084 Cl 
DOCKED: ENDBRANCH  16  17
DOCKED: ENDBRANCH  15  16
DOCKED: ENDBRANCH  14  15
DOCKED: ENDBRANCH  13  14
DOCKED: ENDBRANCH   1  13
DOCKED: TORSDOF 9
DOCKED: TER
DOCKED: ENDMDL
________________________________________________________________________________


    FINAL DOCKED STATE:
    ________________________


Run:   18 / 20
Time taken for this run:   0.044s

DOCKED: MODEL        18
DOCKED: USER    Run = 18
DOCKED: USER
DOCKED: USER    Estimated Free Energy of Binding    =  -5.91 kcal/mol  [=(1)+(2)+(3)-(4)]
DOCKED: USER
DOCKED: USER    (1) Final Intermolecular Energy     =  -8.60 kcal/mol
DOCKED: USER        vdW + Hbond + desolv Energy     =  -8.82 kcal/mol
DOCKED: USER        Electrostatic Energy            =  +0.22 kcal/mol
DOCKED: USER        Moving Ligand-Fixed Receptor    =  -8.60 kcal/mol
DOCKED: USER        Moving Ligand-Moving Receptor   =  +0.00 kcal/mol
DOCKED: USER    (2) Final Total Internal Energy     =  -0.59 kcal/mol
DOCKED: USER    (3) Torsional Free Energy           =  +2.68 kcal/mol
DOCKED: USER    (4) Unbound System's Energy         =  -0.59 kcal/mol
DOCKED: USER
DOCKED: USER
DOCKED: REMARK SMILES O=C(CCCOc1ccc(Cl)cc1Cl)[N-]/N=C/c1cccnc1F
DOCKED: REMARK SMILES IDX 2 1 1 2 15 3 16 4 17 5 18 6 23 7 19 8 22 9 20 10 21 11 24 12
DOCKED: REMARK SMILES IDX 3 13 4 14 5 15 6 16 7 17 8 18 13 19 9 20 12 21 10 22 14 23
DOCKED: REMARK SMILES IDX 11 24
DOCKED: REMARK H PARENT
DOCKED: USER                              x       y       z     vdW  Elec       q    Type
DOCKED: USER                           _______ _______ _______ _____ _____    ______ ____
DOCKED: ROOT
DOCKED: ATOM      1  C   UNL     1     139.938  75.026 221.707 -0.28 -0.01    +0.068 C  
DOCKED: ATOM      2  O   UNL     1     141.153  74.718 221.585 -0.43 +0.05    -0.319 OA 
DOCKED: ENDROOT
DOCKED: BRANCH   1   3
DOCKED: ATOM      3  N   UNL     1     139.562  76.405 221.640 -0.06 +0.13    -0.545 NA 
DOCKED: BRANCH   3   4
DOCKED: ATOM      4  N   UNL     1     139.042  77.083 222.749 -0.11 +0.07    -0.372 NA 
DOCKED: BRANCH   4   5
DOCKED: ATOM      5  C   UNL     1     139.006  78.378 222.777 -0.27 -0.02    +0.099 C  
DOCKED: BRANCH   5   6
DOCKED: ATOM      6  C   UNL     1     140.230  79.164 223.035 -0.40 -0.01    +0.046 A  
DOCKED: ATOM      7  C   UNL     1     140.139  80.466 223.553 -0.30 -0.03    +0.221 A  
DOCKED: ATOM      8  C   UNL     1     141.506  78.629 222.788 -0.51 -0.01    +0.016 A  
DOCKED: ATOM      9  N   UNL     1     141.268  81.173 223.827 -0.32 +0.03    -0.228 NA 
DOCKED: ATOM     10  C   UNL     1     142.647  79.380 223.072 -0.58 -0.01    +0.021 A  
DOCKED: ATOM     11  C   UNL     1     142.507  80.661 223.605 -0.57 -0.02    +0.114 A  
DOCKED: ATOM     12  F   UNL     1     138.930  81.025 223.809 -0.12 +0.02    -0.184 F  
DOCKED: ENDBRANCH   5   6
DOCKED: ENDBRANCH   4   5
DOCKED: ENDBRANCH   3   4
DOCKED: ENDBRANCH   1   3
DOCKED: BRANCH   1  13
DOCKED: ATOM     13  C   UNL     1     138.914  73.934 221.868 -0.19 -0.01    +0.060 C  
DOCKED: BRANCH  13  14
DOCKED: ATOM     14  C   UNL     1     139.552  72.535 221.823 -0.23 -0.01    +0.048 C  
DOCKED: BRANCH  14  15
DOCKED: ATOM     15  C   UNL     1     140.328  72.188 223.098 -0.22 -0.03    +0.230 C  
DOCKED: BRANCH  15  16
DOCKED: ATOM     16  O   UNL     1     139.448  71.583 224.040 -0.15 +0.13    -0.492 OA 
DOCKED: BRANCH  16  17
DOCKED: ATOM     17  C   UNL     1     139.801  70.714 225.089 -0.38 -0.02    +0.137 A  
DOCKED: ATOM     18  C   UNL     1     140.509  71.285 226.157 -0.58 -0.01    +0.049 A  
DOCKED: ATOM     19  C   UNL     1     139.462  69.336 225.151 -0.36 -0.01    +0.084 A  
DOCKED: ATOM     20  C   UNL     1     140.888  70.519 227.260 -0.61 -0.00    +0.024 A  
DOCKED: ATOM     21  C   UNL     1     139.848  68.578 226.266 -0.53 -0.01    +0.045 A  
DOCKED: ATOM     22  C   UNL     1     140.556  69.166 227.317 -0.58 -0.01    +0.042 A  
DOCKED: ATOM     23  Cl  UNL     1     138.487  68.506 223.946 -0.36 +0.01    -0.080 Cl 
DOCKED: ATOM     24  Cl  UNL     1     141.003  68.208 228.717 -0.69 +0.02    -0.084 Cl 
DOCKED: ENDBRANCH  16  17
DOCKED: ENDBRANCH  15  16
DOCKED: ENDBRANCH  14  15
DOCKED: ENDBRANCH  13  14
DOCKED: ENDBRANCH   1  13
DOCKED: TORSDOF 9
DOCKED: TER
DOCKED: ENDMDL
________________________________________________________________________________


    FINAL DOCKED STATE:
    ________________________


Run:   19 / 20
Time taken for this run:   0.044s

DOCKED: MODEL        19
DOCKED: USER    Run = 19
DOCKED: USER
DOCKED: USER    Estimated Free Energy of Binding    =  -5.92 kcal/mol  [=(1)+(2)+(3)-(4)]
DOCKED: USER
DOCKED: USER    (1) Final Intermolecular Energy     =  -8.61 kcal/mol
DOCKED: USER        vdW + Hbond + desolv Energy     =  -8.61 kcal/mol
DOCKED: USER        Electrostatic Energy            =  +0.00 kcal/mol
DOCKED: USER        Moving Ligand-Fixed Receptor    =  -8.61 kcal/mol
DOCKED: USER        Moving Ligand-Moving Receptor   =  +0.00 kcal/mol
DOCKED: USER    (2) Final Total Internal Energy     =  -1.02 kcal/mol
DOCKED: USER    (3) Torsional Free Energy           =  +2.68 kcal/mol
DOCKED: USER    (4) Unbound System's Energy         =  -1.02 kcal/mol
DOCKED: USER
DOCKED: USER
DOCKED: REMARK SMILES O=C(CCCOc1ccc(Cl)cc1Cl)[N-]/N=C/c1cccnc1F
DOCKED: REMARK SMILES IDX 2 1 1 2 15 3 16 4 17 5 18 6 23 7 19 8 22 9 20 10 21 11 24 12
DOCKED: REMARK SMILES IDX 3 13 4 14 5 15 6 16 7 17 8 18 13 19 9 20 12 21 10 22 14 23
DOCKED: REMARK SMILES IDX 11 24
DOCKED: REMARK H PARENT
DOCKED: USER                              x       y       z     vdW  Elec       q    Type
DOCKED: USER                           _______ _______ _______ _____ _____    ______ ____
DOCKED: ROOT
DOCKED: ATOM      1  C   UNL     1     138.807  68.072 223.789 -0.24 -0.01    +0.068 C  
DOCKED: ATOM      2  O   UNL     1     139.122  66.939 223.339 -0.35 +0.04    -0.319 OA 
DOCKED: ENDROOT
DOCKED: BRANCH   1   3
DOCKED: ATOM      3  N   UNL     1     138.449  68.195 225.168 -0.29 -0.02    -0.545 NA 
DOCKED: BRANCH   3   4
DOCKED: ATOM      4  N   UNL     1     139.241  67.652 226.188 -0.56 +0.02    -0.372 NA 
DOCKED: BRANCH   4   5
DOCKED: ATOM      5  C   UNL     1     140.405  68.151 226.461 -0.58 -0.02    +0.099 C  
DOCKED: BRANCH   5   6
DOCKED: ATOM      6  C   UNL     1     140.543  69.556 226.895 -0.53 -0.01    +0.046 A  
DOCKED: ATOM      7  C   UNL     1     141.379  70.436 226.190 -0.37 -0.03    +0.221 A  
DOCKED: ATOM      8  C   UNL     1     139.834  70.051 228.004 -0.61 -0.00    +0.016 A  
DOCKED: ATOM      9  N   UNL     1     141.474  71.740 226.567 -0.47 +0.03    -0.228 NA 
DOCKED: ATOM     10  C   UNL     1     139.956  71.391 228.372 -0.61 -0.00    +0.021 A  
DOCKED: ATOM     11  C   UNL     1     140.784  72.232 227.628 -0.68 -0.03    +0.114 A  
DOCKED: ATOM     12  F   UNL     1     142.083  70.006 225.113 +0.05 +0.02    -0.184 F  
DOCKED: ENDBRANCH   5   6
DOCKED: ENDBRANCH   4   5
DOCKED: ENDBRANCH   3   4
DOCKED: ENDBRANCH   1   3
DOCKED: BRANCH   1  13
DOCKED: ATOM     13  C   UNL     1     138.866  69.269 222.878 -0.20 -0.01    +0.060 C  
DOCKED: BRANCH  13  14
DOCKED: ATOM     14  C   UNL     1     138.464  70.565 223.602 -0.26 -0.01    +0.048 C  
DOCKED: BRANCH  14  15
DOCKED: ATOM     15  C   UNL     1     139.640  71.529 223.804 -0.25 -0.05    +0.230 C  
DOCKED: BRANCH  15  16
DOCKED: ATOM     16  O   UNL     1     139.659  72.482 222.744 -0.28 +0.10    -0.492 OA 
DOCKED: BRANCH  16  17
DOCKED: ATOM     17  C   UNL     1     140.779  72.891 221.998 -0.25 -0.01    +0.137 A  
DOCKED: ATOM     18  C   UNL     1     141.675  71.882 221.618 -0.18 -0.00    +0.049 A  
DOCKED: ATOM     19  C   UNL     1     141.035  74.226 221.583 -0.27 -0.01    +0.084 A  
DOCKED: ATOM     20  C   UNL     1     142.807  72.174 220.854 -0.26 -0.00    +0.024 A  
DOCKED: ATOM     21  C   UNL     1     142.175  74.506 220.816 -0.28 -0.01    +0.045 A  
DOCKED: ATOM     22  C   UNL     1     143.056  73.485 220.450 -0.29 -0.01    +0.042 A  
DOCKED: ATOM     23  Cl  UNL     1     139.951  75.577 221.888 -0.40 +0.01    -0.080 Cl 
DOCKED: ATOM     24  Cl  UNL     1     144.460  73.850 219.465 -0.44 +0.02    -0.084 Cl 
DOCKED: ENDBRANCH  16  17
DOCKED: ENDBRANCH  15  16
DOCKED: ENDBRANCH  14  15
DOCKED: ENDBRANCH  13  14
DOCKED: ENDBRANCH   1  13
DOCKED: TORSDOF 9
DOCKED: TER
DOCKED: ENDMDL
________________________________________________________________________________


    FINAL DOCKED STATE:
    ________________________


Run:   20 / 20
Time taken for this run:   0.044s

DOCKED: MODEL        20
DOCKED: USER    Run = 20
DOCKED: USER
DOCKED: USER    Estimated Free Energy of Binding    =  -5.61 kcal/mol  [=(1)+(2)+(3)-(4)]
DOCKED: USER
DOCKED: USER    (1) Final Intermolecular Energy     =  -8.30 kcal/mol
DOCKED: USER        vdW + Hbond + desolv Energy     =  -8.36 kcal/mol
DOCKED: USER        Electrostatic Energy            =  +0.06 kcal/mol
DOCKED: USER        Moving Ligand-Fixed Receptor    =  -8.30 kcal/mol
DOCKED: USER        Moving Ligand-Moving Receptor   =  +0.00 kcal/mol
DOCKED: USER    (2) Final Total Internal Energy     =  -0.90 kcal/mol
DOCKED: USER    (3) Torsional Free Energy           =  +2.68 kcal/mol
DOCKED: USER    (4) Unbound System's Energy         =  -0.90 kcal/mol
DOCKED: USER
DOCKED: USER
DOCKED: REMARK SMILES O=C(CCCOc1ccc(Cl)cc1Cl)[N-]/N=C/c1cccnc1F
DOCKED: REMARK SMILES IDX 2 1 1 2 15 3 16 4 17 5 18 6 23 7 19 8 22 9 20 10 21 11 24 12
DOCKED: REMARK SMILES IDX 3 13 4 14 5 15 6 16 7 17 8 18 13 19 9 20 12 21 10 22 14 23
DOCKED: REMARK SMILES IDX 11 24
DOCKED: REMARK H PARENT
DOCKED: USER                              x       y       z     vdW  Elec       q    Type
DOCKED: USER                           _______ _______ _______ _____ _____    ______ ____
DOCKED: ROOT
DOCKED: ATOM      1  C   UNL     1     138.689  69.516 223.791 -0.27 -0.01    +0.068 C  
DOCKED: ATOM      2  O   UNL     1     139.220  69.055 222.747 -0.11 +0.06    -0.319 OA 
DOCKED: ENDROOT
DOCKED: BRANCH   1   3
DOCKED: ATOM      3  N   UNL     1     138.333  68.616 224.844 -0.19 +0.02    -0.545 NA 
DOCKED: BRANCH   3   4
DOCKED: ATOM      4  N   UNL     1     139.261  67.726 225.399 -0.71 +0.01    -0.372 NA 
DOCKED: BRANCH   4   5
DOCKED: ATOM      5  C   UNL     1     139.892  68.020 226.492 -0.58 -0.02    +0.099 C  
DOCKED: BRANCH   5   6
DOCKED: ATOM      6  C   UNL     1     140.294  69.412 226.782 -0.53 -0.01    +0.046 A  
DOCKED: ATOM      7  C   UNL     1     139.945  70.010 228.003 -0.44 -0.04    +0.221 A  
DOCKED: ATOM      8  C   UNL     1     141.044  70.162 225.860 -0.53 -0.00    +0.016 A  
DOCKED: ATOM      9  N   UNL     1     140.350  71.277 228.286 -0.46 +0.05    -0.228 NA 
DOCKED: ATOM     10  C   UNL     1     141.440  71.462 226.174 -0.64 -0.00    +0.021 A  
DOCKED: ATOM     11  C   UNL     1     141.087  72.006 227.408 -0.72 -0.02    +0.114 A  
DOCKED: ATOM     12  F   UNL     1     139.222  69.326 228.926 -0.16 +0.02    -0.184 F  
DOCKED: ENDBRANCH   5   6
DOCKED: ENDBRANCH   4   5
DOCKED: ENDBRANCH   3   4
DOCKED: ENDBRANCH   1   3
DOCKED: BRANCH   1  13
DOCKED: ATOM     13  C   UNL     1     138.491  71.003 223.920 -0.27 -0.01    +0.060 C  
DOCKED: BRANCH  13  14
DOCKED: ATOM     14  C   UNL     1     137.073  71.434 223.507 -0.19 -0.01    +0.048 C  
DOCKED: BRANCH  14  15
DOCKED: ATOM     15  C   UNL     1     137.060  72.359 222.285 -0.09 -0.06    +0.230 C  
DOCKED: BRANCH  15  16
DOCKED: ATOM     16  O   UNL     1     138.397  72.589 221.849 -0.05 +0.12    -0.492 OA 
DOCKED: BRANCH  16  17
DOCKED: ATOM     17  C   UNL     1     139.093  73.811 221.872 -0.19 -0.03    +0.137 A  
DOCKED: ATOM     18  C   UNL     1     138.351  74.943 222.240 -0.13 -0.01    +0.049 A  
DOCKED: ATOM     19  C   UNL     1     140.477  73.963 221.588 -0.27 -0.01    +0.084 A  
DOCKED: ATOM     20  C   UNL     1     138.950  76.201 222.319 -0.32 -0.01    +0.024 A  
DOCKED: ATOM     21  C   UNL     1     141.066  75.232 221.672 -0.32 -0.01    +0.045 A  
DOCKED: ATOM     22  C   UNL     1     140.307  76.347 222.038 -0.36 -0.01    +0.042 A  
DOCKED: ATOM     23  Cl  UNL     1     141.559  72.626 221.220 -0.32 +0.01    -0.080 Cl 
DOCKED: ATOM     24  Cl  UNL     1     141.069  77.922 222.167 -0.53 +0.03    -0.084 Cl 
DOCKED: ENDBRANCH  16  17
DOCKED: ENDBRANCH  15  16
DOCKED: ENDBRANCH  14  15
DOCKED: ENDBRANCH  13  14
DOCKED: ENDBRANCH   1  13
DOCKED: TORSDOF 9
DOCKED: TER
DOCKED: ENDMDL
________________________________________________________________________________


    CLUSTERING HISTOGRAM
    ____________________


________________________________________________________________________________
     |           |     |           |     |
Clus | Lowest    | Run | Mean      | Num | Histogram
-ter | Binding   |     | Binding   | in  |
Rank | Energy    |     | Energy    | Clus|    5    10   15   20   25   30   35
_____|___________|_____|___________|_____|____:____|____:____|____:____|____:___
   1 |     -6.37 |   5 |     -6.12 |   8 |########
   2 |     -6.31 |   1 |     -6.06 |   2 |##
   3 |     -6.22 |   3 |     -6.22 |   1 |#
   4 |     -6.06 |  16 |     -5.99 |   2 |##
   5 |     -6.05 |   7 |     -6.05 |   1 |#
   6 |     -5.96 |   2 |     -5.96 |   1 |#
   7 |     -5.96 |   6 |     -5.92 |   3 |###
   8 |     -5.61 |  20 |     -5.61 |   1 |#
   9 |     -5.12 |  15 |     -5.12 |   1 |#
_____|___________|_____|___________|_____|______________________________________


    RMSD TABLE
    __________


_______________________________________________________________________
     |      |      |           |         |                 |
Rank | Sub- | Run  | Binding   | Cluster | Reference       | Grep
     | Rank |      | Energy    | RMSD    | RMSD            | Pattern
_____|______|______|___________|_________|_________________|___________
   1      1      5       -6.37      0.00    271.98           RANKING
   1      2     10       -6.36      1.77    271.91           RANKING
   1      3     11       -6.34      1.70    272.03           RANKING
   1      4      8       -6.30      0.27    271.91           RANKING
   1      5      4       -6.04      1.64    271.78           RANKING
   1      6     14       -6.01      0.66    271.97           RANKING
   1      7     13       -5.95      1.73    271.34           RANKING
   1      8     17       -5.61      1.40    271.78           RANKING
   2      1      1       -6.31      0.00    270.49           RANKING
   2      2     12       -5.80      1.73    270.55           RANKING
   3      1      3       -6.22      0.00    270.53           RANKING
   4      1     16       -6.06      0.00    271.82           RANKING
   4      2     18       -5.91      1.10    272.05           RANKING
   5      1      7       -6.05      0.00    270.45           RANKING
   6      1      2       -5.96      0.00    271.45           RANKING
   7      1      6       -5.96      0.00    271.42           RANKING
   7      2     19       -5.92      1.20    271.39           RANKING
   7      3      9       -5.87      1.66    271.25           RANKING
   8      1     20       -5.61      0.00    271.28           RANKING
   9      1     15       -5.12      0.00    270.88           RANKING

Run time 0.848 sec
Idle time 0.000 sec
