AutoDock-GPU version: v1.6

**********************************************************
**    AutoDock-GPU AUTODOCKTOOLS-COMPATIBLE DLG FILE    **
**********************************************************


    DOCKING PARAMETERS
    ________________________


Ligand file:                               /home/a/REINVENT4/ReinventStudies/scoringData/graph-dock-34dfml/graph-DockGPU/node-autodockgpu/inputs/ATTQMMYACVSETC-ZSWPEEKQNA-N.pdbqt
Grid fld file:                             /home/a/REINVENT4/ReinventStudies/mols/Rad51/maps/rad51_receptor.maps.fld

Random seed:                               42
Number of runs:                            20
Number of energy evaluations:              1132076
Number of generations:                     42000
Size of population:                        150
Rate of crossover:                         80.000000%
Tournament selection probability limit:    60.000000%
Rate of mutation:                          2.000000%
Maximal allowed delta movement:            +/- 6.000000A
Maximal allowed delta angle:               +/- 90.000000

Rate of local search:                      100.000000%
Maximal number of local search iterations: 300
Rho lower bound:                           0.010000
Spread of local search delta movement:     2.000000A
Spread of local search delta angle:        74.999999
Limit of consecutive successes/failures:   4

Handle symmetry during clustering:         YES
RMSD tolerance:                            2.000000A

Program call in command line was:          /home/a/REINVENT4/ReinventStudies/adgpu-v1.6_linux_x64_cuda12_128wi --filelist batch.txt --heuristics 1 --nrun 20 --psize 150 --lsit 300 --seed 42 --heurmax 12000000 


    GRID PARAMETERS
    ________________________


Receptor name:                             rad51_receptor
Number of grid points (x, y, z):           53, 53, 53
Grid center (x, y, z):                     139.950000, 75.640000, 221.970000A
Grid size (x, y, z):                       19.500000, 19.500000, 19.500000A
Grid spacing:                              0.375000A


    LIGAND PARAMETERS
    ________________________


Ligand name:                               /home/a/REINVENT4/ReinventStudies/scoringData/graph-dock-34dfml/graph-DockGPU/node-autodockgpu/inputs/ATTQMMYACVSETC-ZSWPEEKQNA-N
Number of atoms:                           36
Number of rotatable bonds:                 4
Number of atom types:                      6


    DUMMY DATA (only for ADT-compatibility)
    ________________________


DPF> outlev 1
DPF> ga_run 20
DPF> fld /home/a/REINVENT4/ReinventStudies/mols/Rad51/maps/rad51_receptor.maps.fld
DPF> move /home/a/REINVENT4/ReinventStudies/scoringData/graph-dock-34dfml/graph-DockGPU/node-autodockgpu/inputs/ATTQMMYACVSETC-ZSWPEEKQNA-N.pdbqt


    COUNTER STATES
    ________________________


Number of energy evaluations performed:    956101
Number of generations used:                60


    INPUT LIGAND PDBQT FILE:
    ________________________


INPUT-LIGAND-PDBQT: REMARK SMILES NC(=O)c1ccc2cc(C(=O)N3C[C@]4(CCN([C@H]5CCNC5)C4)c4ccccc43)[nH]c2c1
INPUT-LIGAND-PDBQT: REMARK SMILES IDX 10 1 11 2 9 3 4 4 5 5 32 6 6 7 31 8 7 9 30 10 8 11 2 13 1 14
INPUT-LIGAND-PDBQT: REMARK SMILES IDX 3 17 12 18 13 19 29 20 14 21 28 22 24 23 15 24 23 25 27 26
INPUT-LIGAND-PDBQT: REMARK SMILES IDX 25 27 16 28 17 29 26 30 18 31 19 32 22 33 20 34 21 35
INPUT-LIGAND-PDBQT: REMARK H PARENT 30 12 1 15 1 16 21 36
INPUT-LIGAND-PDBQT: ROOT
INPUT-LIGAND-PDBQT: ATOM      1  C   UNL     1       1.257   0.001   1.697  1.00  0.00     0.274 C 
INPUT-LIGAND-PDBQT: ATOM      2  O   UNL     1       1.970   0.981   2.042  1.00  0.00    -0.267 OA
INPUT-LIGAND-PDBQT: ENDROOT
INPUT-LIGAND-PDBQT: BRANCH   1   3
INPUT-LIGAND-PDBQT: ATOM      3  C   UNL     1       1.002  -1.081   2.664  1.00  0.00     0.106 A 
INPUT-LIGAND-PDBQT: ATOM      4  C   UNL     1       0.844  -4.008   6.104  1.00  0.00     0.041 A 
INPUT-LIGAND-PDBQT: ATOM      5  C   UNL     1      -0.237  -4.519   5.335  1.00  0.00     0.014 A 
INPUT-LIGAND-PDBQT: ATOM      6  C   UNL     1       1.563  -2.885   5.627  1.00  0.00     0.040 A 
INPUT-LIGAND-PDBQT: ATOM      7  C   UNL     1      -0.608  -3.916   4.120  1.00  0.00     0.011 A 
INPUT-LIGAND-PDBQT: ATOM      8  C   UNL     1       1.168  -2.313   4.419  1.00  0.00     0.047 A 
INPUT-LIGAND-PDBQT: ATOM      9  C   UNL     1       0.121  -2.811   3.694  1.00  0.00     0.000 A 
INPUT-LIGAND-PDBQT: ATOM     10  N   UNL     1       1.716  -1.252   3.803  1.00  0.00    -0.350 N 
INPUT-LIGAND-PDBQT: ATOM     11  C   UNL     1      -0.011  -2.034   2.565  1.00  0.00     0.042 A 
INPUT-LIGAND-PDBQT: ATOM     12  H   UNL     1       2.525  -0.681   4.136  1.00  0.00     0.167 HD
INPUT-LIGAND-PDBQT: BRANCH   4  13
INPUT-LIGAND-PDBQT: ATOM     13  C   UNL     1       1.217  -4.668   7.379  1.00  0.00     0.248 C 
INPUT-LIGAND-PDBQT: ATOM     14  N   UNL     1       1.951  -3.977   8.393  1.00  0.00    -0.366 N 
INPUT-LIGAND-PDBQT: ATOM     15  H   UNL     1       2.126  -2.950   8.343  1.00  0.00     0.159 HD
INPUT-LIGAND-PDBQT: ATOM     16  H   UNL     1       2.250  -4.485   9.255  1.00  0.00     0.159 HD
INPUT-LIGAND-PDBQT: ATOM     17  O   UNL     1       0.870  -5.863   7.587  1.00  0.00    -0.270 OA
INPUT-LIGAND-PDBQT: ENDBRANCH   4  13
INPUT-LIGAND-PDBQT: ENDBRANCH   1   3
INPUT-LIGAND-PDBQT: BRANCH   1  18
INPUT-LIGAND-PDBQT: ATOM     18  N   UNL     1       0.665  -0.013   0.392  1.00  0.00    -0.306 N 
INPUT-LIGAND-PDBQT: ATOM     19  C   UNL     1      -0.018   1.132  -0.205  1.00  0.00     0.139 C 
INPUT-LIGAND-PDBQT: ATOM     20  C   UNL     1       0.685  -1.084  -0.540  1.00  0.00     0.048 A 
INPUT-LIGAND-PDBQT: ATOM     21  C   UNL     1      -0.558   0.629  -1.590  1.00  0.00     0.029 C 
INPUT-LIGAND-PDBQT: ATOM     22  C   UNL     1       1.353  -2.307  -0.409  1.00  0.00     0.026 A 
INPUT-LIGAND-PDBQT: ATOM     23  C   UNL     1      -0.003  -0.766  -1.683  1.00  0.00    -0.015 A 
INPUT-LIGAND-PDBQT: ATOM     24  C   UNL     1      -2.076   0.658  -1.657  1.00  0.00     0.030 C 
INPUT-LIGAND-PDBQT: ATOM     25  C   UNL     1      -0.135   1.539  -2.753  1.00  0.00     0.098 C 
INPUT-LIGAND-PDBQT: ATOM     26  C   UNL     1       1.264  -3.235  -1.457  1.00  0.00     0.002 A 
INPUT-LIGAND-PDBQT: ATOM     27  C   UNL     1      -0.106  -1.680  -2.739  1.00  0.00     0.006 A 
INPUT-LIGAND-PDBQT: ATOM     28  C   UNL     1      -2.369   2.059  -2.154  1.00  0.00     0.086 C 
INPUT-LIGAND-PDBQT: ATOM     29  N   UNL     1      -1.258   2.454  -3.042  1.00  0.00    -0.298 NA
INPUT-LIGAND-PDBQT: ATOM     30  C   UNL     1       0.531  -2.925  -2.617  1.00  0.00     0.000 A 
INPUT-LIGAND-PDBQT: BRANCH  29  31
INPUT-LIGAND-PDBQT: ATOM     31  C   UNL     1      -0.888   3.881  -2.880  1.00  0.00     0.071 C 
INPUT-LIGAND-PDBQT: ATOM     32  C   UNL     1       0.151   4.316  -3.902  1.00  0.00     0.036 C 
INPUT-LIGAND-PDBQT: ATOM     33  C   UNL     1      -2.056   4.815  -3.180  1.00  0.00     0.100 C 
INPUT-LIGAND-PDBQT: ATOM     34  C   UNL     1      -0.174   5.772  -4.205  1.00  0.00     0.082 C 
INPUT-LIGAND-PDBQT: ATOM     35  N   UNL     1      -1.503   6.076  -3.669  1.00  0.00    -0.315 NA
INPUT-LIGAND-PDBQT: ATOM     36  H   UNL     1      -1.386   6.715  -2.848  1.00  0.00     0.122 HD
INPUT-LIGAND-PDBQT: ENDBRANCH  29  31
INPUT-LIGAND-PDBQT: ENDBRANCH   1  18
INPUT-LIGAND-PDBQT: TORSDOF 4


    FINAL DOCKED STATE:
    ________________________


Run:   1 / 20
Time taken for this run:   0.047s

DOCKED: MODEL        1
DOCKED: USER    Run = 1
DOCKED: USER
DOCKED: USER    Estimated Free Energy of Binding    =  -8.49 kcal/mol  [=(1)+(2)+(3)-(4)]
DOCKED: USER
DOCKED: USER    (1) Final Intermolecular Energy     =  -9.68 kcal/mol
DOCKED: USER        vdW + Hbond + desolv Energy     =  -9.60 kcal/mol
DOCKED: USER        Electrostatic Energy            =  -0.09 kcal/mol
DOCKED: USER        Moving Ligand-Fixed Receptor    =  -9.68 kcal/mol
DOCKED: USER        Moving Ligand-Moving Receptor   =  +0.00 kcal/mol
DOCKED: USER    (2) Final Total Internal Energy     =  -1.15 kcal/mol
DOCKED: USER    (3) Torsional Free Energy           =  +1.19 kcal/mol
DOCKED: USER    (4) Unbound System's Energy         =  -1.15 kcal/mol
DOCKED: USER
DOCKED: USER
DOCKED: REMARK SMILES NC(=O)c1ccc2cc(C(=O)N3C[C@]4(CCN([C@H]5CCNC5)C4)c4ccccc43)[nH]c2c1
DOCKED: REMARK SMILES IDX 10 1 11 2 9 3 4 4 5 5 32 6 6 7 31 8 7 9 30 10 8 11 2 13 1 14
DOCKED: REMARK SMILES IDX 3 17 12 18 13 19 29 20 14 21 28 22 24 23 15 24 23 25 27 26
DOCKED: REMARK SMILES IDX 25 27 16 28 17 29 26 30 18 31 19 32 22 33 20 34 21 35
DOCKED: REMARK H PARENT 30 12 1 15 1 16 21 36
DOCKED: USER                              x       y       z     vdW  Elec       q    Type
DOCKED: USER                           _______ _______ _______ _____ _____    ______ ____
DOCKED: ROOT
DOCKED: ATOM      1  C   UNL     1     140.188  73.000 221.236 -0.15 -0.04    +0.274 C  
DOCKED: ATOM      2  O   UNL     1     139.124  73.448 220.731 -0.07 +0.05    -0.267 OA 
DOCKED: ENDROOT
DOCKED: BRANCH   1   3
DOCKED: ATOM      3  C   UNL     1     140.109  71.996 222.312 -0.26 -0.02    +0.106 A  
DOCKED: ATOM      4  C   UNL     1     140.303  69.513 226.083 -0.48 -0.01    +0.041 A  
DOCKED: ATOM      5  C   UNL     1     139.498  68.647 225.294 -0.44 -0.00    +0.014 A  
DOCKED: ATOM      6  C   UNL     1     140.754  70.735 225.528 -0.54 -0.01    +0.040 A  
DOCKED: ATOM      7  C   UNL     1     139.134  68.994 223.981 -0.30 -0.00    +0.011 A  
DOCKED: ATOM      8  C   UNL     1     140.375  71.047 224.223 -0.41 -0.01    +0.047 A  
DOCKED: ATOM      9  C   UNL     1     139.594  70.207 223.479 -0.29 -0.00    +0.000 A  
DOCKED: ATOM     10  N   UNL     1     140.697  72.148 223.523 -0.13 +0.02    -0.350 N  
DOCKED: ATOM     11  C   UNL     1     139.403  70.796 222.249 -0.19 -0.01    +0.042 A  
DOCKED: ATOM     12  H   UNL     1     141.280  72.952 223.849 +0.17 +0.04    +0.167 HD 
DOCKED: BRANCH   4  13
DOCKED: ATOM     13  C   UNL     1     140.675  69.118 227.463 -0.43 -0.05    +0.248 C  
DOCKED: ATOM     14  N   UNL     1     140.542  67.769 227.917 -0.18 +0.11    -0.366 N  
DOCKED: ATOM     15  H   UNL     1     140.319  66.987 227.264 -0.46 -0.06    +0.159 HD 
DOCKED: ATOM     16  H   UNL     1     140.757  67.532 228.912 -0.10 -0.06    +0.159 HD 
DOCKED: ATOM     17  O   UNL     1     141.135  69.984 228.257 -0.37 +0.05    -0.270 OA 
DOCKED: ENDBRANCH   4  13
DOCKED: ENDBRANCH   1   3
DOCKED: BRANCH   1  18
DOCKED: ATOM     18  N   UNL     1     141.451  73.436 220.716 -0.11 +0.05    -0.306 N  
DOCKED: ATOM     19  C   UNL     1     142.583  72.545 220.473 -0.20 -0.02    +0.139 C  
DOCKED: ATOM     20  C   UNL     1     141.795  74.751 220.308 -0.24 -0.01    +0.048 A  
DOCKED: ATOM     21  C   UNL     1     143.752  73.468 219.981 -0.33 -0.01    +0.029 C  
DOCKED: ATOM     22  C   UNL     1     140.953  75.868 220.253 -0.20 -0.01    +0.026 A  
DOCKED: ATOM     23  C   UNL     1     143.098  74.820 219.886 -0.34 +0.01    -0.015 A  
DOCKED: ATOM     24  C   UNL     1     144.931  73.458 220.940 -0.51 -0.01    +0.030 C  
DOCKED: ATOM     25  C   UNL     1     144.367  72.987 218.658 -0.18 -0.00    +0.098 C  
DOCKED: ATOM     26  C   UNL     1     141.482  77.085 219.802 -0.24 -0.00    +0.002 A  
DOCKED: ATOM     27  C   UNL     1     143.646  76.027 219.434 -0.39 -0.00    +0.006 A  
DOCKED: ATOM     28  C   UNL     1     145.764  72.293 220.444 -0.24 +0.01    +0.086 C  
DOCKED: ATOM     29  N   UNL     1     145.582  72.212 218.981 -0.63 -0.19    -0.298 NA 
DOCKED: ATOM     30  C   UNL     1     142.827  77.167 219.399 -0.32 -0.00    +0.000 A  
DOCKED: BRANCH  29  31
DOCKED: ATOM     31  C   UNL     1     145.511  70.811 218.500 -0.23 +0.04    +0.071 C  
DOCKED: ATOM     32  C   UNL     1     146.493  69.910 219.232 -0.18 +0.03    +0.036 C  
DOCKED: ATOM     33  C   UNL     1     144.168  70.162 218.820 -0.16 +0.01    +0.100 C  
DOCKED: ATOM     34  C   UNL     1     145.805  68.555 219.315 -0.40 +0.02    +0.082 C  
DOCKED: ATOM     35  N   UNL     1     144.392  68.726 218.968 -0.13 +0.01    -0.315 NA 
DOCKED: ATOM     36  H   UNL     1     144.228  68.277 218.036 +0.05 -0.03    +0.122 HD 
DOCKED: ENDBRANCH  29  31
DOCKED: ENDBRANCH   1  18
DOCKED: TORSDOF 4
DOCKED: TER
DOCKED: ENDMDL
________________________________________________________________________________


    FINAL DOCKED STATE:
    ________________________


Run:   2 / 20
Time taken for this run:   0.047s

DOCKED: MODEL        2
DOCKED: USER    Run = 2
DOCKED: USER
DOCKED: USER    Estimated Free Energy of Binding    =  -9.20 kcal/mol  [=(1)+(2)+(3)-(4)]
DOCKED: USER
DOCKED: USER    (1) Final Intermolecular Energy     = -10.40 kcal/mol
DOCKED: USER        vdW + Hbond + desolv Energy     = -10.21 kcal/mol
DOCKED: USER        Electrostatic Energy            =  -0.18 kcal/mol
DOCKED: USER        Moving Ligand-Fixed Receptor    = -10.40 kcal/mol
DOCKED: USER        Moving Ligand-Moving Receptor   =  +0.00 kcal/mol
DOCKED: USER    (2) Final Total Internal Energy     =  -1.11 kcal/mol
DOCKED: USER    (3) Torsional Free Energy           =  +1.19 kcal/mol
DOCKED: USER    (4) Unbound System's Energy         =  -1.11 kcal/mol
DOCKED: USER
DOCKED: USER
DOCKED: REMARK SMILES NC(=O)c1ccc2cc(C(=O)N3C[C@]4(CCN([C@H]5CCNC5)C4)c4ccccc43)[nH]c2c1
DOCKED: REMARK SMILES IDX 10 1 11 2 9 3 4 4 5 5 32 6 6 7 31 8 7 9 30 10 8 11 2 13 1 14
DOCKED: REMARK SMILES IDX 3 17 12 18 13 19 29 20 14 21 28 22 24 23 15 24 23 25 27 26
DOCKED: REMARK SMILES IDX 25 27 16 28 17 29 26 30 18 31 19 32 22 33 20 34 21 35
DOCKED: REMARK H PARENT 30 12 1 15 1 16 21 36
DOCKED: USER                              x       y       z     vdW  Elec       q    Type
DOCKED: USER                           _______ _______ _______ _____ _____    ______ ____
DOCKED: ROOT
DOCKED: ATOM      1  C   UNL     1     140.603  73.690 221.951 -0.11 -0.01    +0.274 C  
DOCKED: ATOM      2  O   UNL     1     139.818  74.649 222.179 -0.75 +0.03    -0.267 OA 
DOCKED: ENDROOT
DOCKED: BRANCH   1   3
DOCKED: ATOM      3  C   UNL     1     140.311  72.366 222.527 -0.29 -0.01    +0.106 A  
DOCKED: ATOM      4  C   UNL     1     139.745  68.645 225.029 -0.33 -0.01    +0.041 A  
DOCKED: ATOM      5  C   UNL     1     139.115  68.200 223.834 -0.23 -0.00    +0.014 A  
DOCKED: ATOM      6  C   UNL     1     140.299  69.947 225.076 -0.41 -0.01    +0.040 A  
DOCKED: ATOM      7  C   UNL     1     139.022  69.041 222.711 -0.20 -0.00    +0.011 A  
DOCKED: ATOM      8  C   UNL     1     140.189  70.753 223.944 -0.34 -0.01    +0.047 A  
DOCKED: ATOM      9  C   UNL     1     139.573  70.315 222.805 -0.23 -0.00    +0.000 A  
DOCKED: ATOM     10  N   UNL     1     140.643  72.008 223.791 -0.14 +0.03    -0.350 N  
DOCKED: ATOM     11  C   UNL     1     139.632  71.334 221.881 -0.19 -0.01    +0.042 A  
DOCKED: ATOM     12  H   UNL     1     141.149  72.584 224.501 +0.10 -0.00    +0.167 HD 
DOCKED: BRANCH   4  13
DOCKED: ATOM     13  C   UNL     1     139.834  67.734 226.196 -0.45 -0.04    +0.248 C  
DOCKED: ATOM     14  N   UNL     1     141.019  67.651 226.993 -0.29 +0.10    -0.366 N  
DOCKED: ATOM     15  H   UNL     1     141.808  68.324 226.878 +0.02 -0.04    +0.159 HD 
DOCKED: ATOM     16  H   UNL     1     141.073  66.959 227.773 -0.37 -0.07    +0.159 HD 
DOCKED: ATOM     17  O   UNL     1     138.840  67.023 226.509 -0.72 -0.01    -0.270 OA 
DOCKED: ENDBRANCH   4  13
DOCKED: ENDBRANCH   1   3
DOCKED: BRANCH   1  18
DOCKED: ATOM     18  N   UNL     1     141.732  73.895 221.093 -0.15 +0.05    -0.306 N  
DOCKED: ATOM     19  C   UNL     1     142.732  72.870 220.803 -0.20 -0.02    +0.139 C  
DOCKED: ATOM     20  C   UNL     1     142.038  75.069 220.354 -0.27 -0.02    +0.048 A  
DOCKED: ATOM     21  C   UNL     1     143.801  73.567 219.889 -0.33 -0.01    +0.029 C  
DOCKED: ATOM     22  C   UNL     1     141.261  76.228 220.249 -0.23 -0.01    +0.026 A  
DOCKED: ATOM     23  C   UNL     1     143.210  74.930 219.656 -0.34 +0.01    -0.015 A  
DOCKED: ATOM     24  C   UNL     1     145.167  73.629 220.553 -0.57 -0.01    +0.030 C  
DOCKED: ATOM     25  C   UNL     1     144.071  72.783 218.596 -0.15 -0.00    +0.098 C  
DOCKED: ATOM     26  C   UNL     1     141.732  77.280 219.450 -0.26 -0.00    +0.002 A  
DOCKED: ATOM     27  C   UNL     1     143.698  75.970 218.855 -0.29 -0.00    +0.006 A  
DOCKED: ATOM     28  C   UNL     1     145.805  72.317 220.144 -0.35 +0.02    +0.086 C  
DOCKED: ATOM     29  N   UNL     1     145.288  71.973 218.805 -0.36 -0.14    -0.298 NA 
DOCKED: ATOM     30  C   UNL     1     142.951  77.154 218.759 -0.36 -0.00    +0.000 A  
DOCKED: BRANCH  29  31
DOCKED: ATOM     31  C   UNL     1     145.039  70.518 218.655 -0.22 +0.02    +0.071 C  
DOCKED: ATOM     32  C   UNL     1     146.326  69.712 218.734 -0.31 +0.03    +0.036 C  
DOCKED: ATOM     33  C   UNL     1     144.224  69.952 219.813 -0.14 +0.01    +0.100 C  
DOCKED: ATOM     34  C   UNL     1     145.933  68.399 219.396 -0.41 +0.02    +0.082 C  
DOCKED: ATOM     35  N   UNL     1     144.595  68.549 219.974 -0.43 -0.05    -0.315 NA 
DOCKED: ATOM     36  H   UNL     1     143.928  67.973 219.409 +0.05 -0.02    +0.122 HD 
DOCKED: ENDBRANCH  29  31
DOCKED: ENDBRANCH   1  18
DOCKED: TORSDOF 4
DOCKED: TER
DOCKED: ENDMDL
________________________________________________________________________________


    FINAL DOCKED STATE:
    ________________________


Run:   3 / 20
Time taken for this run:   0.047s

DOCKED: MODEL        3
DOCKED: USER    Run = 3
DOCKED: USER
DOCKED: USER    Estimated Free Energy of Binding    =  -8.45 kcal/mol  [=(1)+(2)+(3)-(4)]
DOCKED: USER
DOCKED: USER    (1) Final Intermolecular Energy     =  -9.64 kcal/mol
DOCKED: USER        vdW + Hbond + desolv Energy     =  -9.46 kcal/mol
DOCKED: USER        Electrostatic Energy            =  -0.18 kcal/mol
DOCKED: USER        Moving Ligand-Fixed Receptor    =  -9.64 kcal/mol
DOCKED: USER        Moving Ligand-Moving Receptor   =  +0.00 kcal/mol
DOCKED: USER    (2) Final Total Internal Energy     =  -1.17 kcal/mol
DOCKED: USER    (3) Torsional Free Energy           =  +1.19 kcal/mol
DOCKED: USER    (4) Unbound System's Energy         =  -1.17 kcal/mol
DOCKED: USER
DOCKED: USER
DOCKED: REMARK SMILES NC(=O)c1ccc2cc(C(=O)N3C[C@]4(CCN([C@H]5CCNC5)C4)c4ccccc43)[nH]c2c1
DOCKED: REMARK SMILES IDX 10 1 11 2 9 3 4 4 5 5 32 6 6 7 31 8 7 9 30 10 8 11 2 13 1 14
DOCKED: REMARK SMILES IDX 3 17 12 18 13 19 29 20 14 21 28 22 24 23 15 24 23 25 27 26
DOCKED: REMARK SMILES IDX 25 27 16 28 17 29 26 30 18 31 19 32 22 33 20 34 21 35
DOCKED: REMARK H PARENT 30 12 1 15 1 16 21 36
DOCKED: USER                              x       y       z     vdW  Elec       q    Type
DOCKED: USER                           _______ _______ _______ _____ _____    ______ ____
DOCKED: ROOT
DOCKED: ATOM      1  C   UNL     1     139.539  76.782 222.202 -0.22 -0.06    +0.274 C  
DOCKED: ATOM      2  O   UNL     1     138.558  76.030 222.449 -0.25 +0.06    -0.267 OA 
DOCKED: ENDROOT
DOCKED: BRANCH   1   3
DOCKED: ATOM      3  C   UNL     1     140.674  76.255 221.425 -0.29 -0.03    +0.106 A  
DOCKED: ATOM      4  C   UNL     1     144.198  74.034 219.671 -0.35 -0.01    +0.041 A  
DOCKED: ATOM      5  C   UNL     1     143.993  74.976 218.626 -0.10 -0.01    +0.014 A  
DOCKED: ATOM      6  C   UNL     1     143.354  74.068 220.808 -0.28 -0.01    +0.040 A  
DOCKED: ATOM      7  C   UNL     1     142.958  75.925 218.700 -0.29 -0.01    +0.011 A  
DOCKED: ATOM      8  C   UNL     1     142.339  75.023 220.849 -0.23 -0.02    +0.047 A  
DOCKED: ATOM      9  C   UNL     1     142.150  75.917 219.832 -0.29 -0.00    +0.000 A  
DOCKED: ATOM     10  N   UNL     1     141.442  75.215 221.830 -0.10 +0.08    -0.350 N  
DOCKED: ATOM     11  C   UNL     1     141.082  76.716 220.173 -0.21 -0.02    +0.042 A  
DOCKED: ATOM     12  H   UNL     1     141.358  74.674 222.720 +0.09 +0.05    +0.167 HD 
DOCKED: BRANCH   4  13
DOCKED: ATOM     13  C   UNL     1     145.301  73.048 219.568 -0.28 +0.03    +0.248 C  
DOCKED: ATOM     14  N   UNL     1     145.719  72.273 220.694 -0.04 +0.02    -0.366 N  
DOCKED: ATOM     15  H   UNL     1     145.179  72.260 221.586 -0.41 -0.07    +0.159 HD 
DOCKED: ATOM     16  H   UNL     1     146.537  71.629 220.606 -0.42 +0.03    +0.159 HD 
DOCKED: ATOM     17  O   UNL     1     145.879  72.874 218.461 -0.76 -0.22    -0.270 OA 
DOCKED: ENDBRANCH   4  13
DOCKED: ENDBRANCH   1   3
DOCKED: BRANCH   1  18
DOCKED: ATOM     18  N   UNL     1     139.504  78.148 222.636 -0.16 +0.06    -0.306 N  
DOCKED: ATOM     19  C   UNL     1     138.275  78.872 222.951 -0.21 -0.02    +0.139 C  
DOCKED: ATOM     20  C   UNL     1     140.620  78.991 222.880 -0.42 -0.01    +0.048 A  
DOCKED: ATOM     21  C   UNL     1     138.722  80.334 223.303 -0.35 -0.00    +0.029 C  
DOCKED: ATOM     22  C   UNL     1     141.974  78.640 222.828 -0.44 -0.01    +0.026 A  
DOCKED: ATOM     23  C   UNL     1     140.223  80.249 223.259 -0.43 +0.00    -0.015 A  
DOCKED: ATOM     24  C   UNL     1     138.168  81.353 222.321 -0.19 -0.00    +0.030 C  
DOCKED: ATOM     25  C   UNL     1     138.172  80.810 224.656 -0.30 -0.01    +0.098 C  
DOCKED: ATOM     26  C   UNL     1     142.932  79.620 223.123 -0.58 -0.00    +0.002 A  
DOCKED: ATOM     27  C   UNL     1     141.165  81.242 223.553 -0.48 -0.00    +0.006 A  
DOCKED: ATOM     28  C   UNL     1     136.826  81.715 222.927 -0.14 -0.01    +0.086 C  
DOCKED: ATOM     29  N   UNL     1     136.963  81.616 224.393 -0.15 +0.03    -0.298 NA 
DOCKED: ATOM     30  C   UNL     1     142.530  80.920 223.478 -0.65 -0.00    +0.000 A  
DOCKED: BRANCH  29  31
DOCKED: ATOM     31  C   UNL     1     135.750  81.052 225.034 -0.22 -0.01    +0.071 C  
DOCKED: ATOM     32  C   UNL     1     134.630  82.077 225.126 -0.11 -0.00    +0.036 C  
DOCKED: ATOM     33  C   UNL     1     135.117  79.947 224.194 -0.14 -0.01    +0.100 C  
DOCKED: ATOM     34  C   UNL     1     133.344  81.277 224.968 -0.06 -0.01    +0.082 C  
DOCKED: ATOM     35  N   UNL     1     133.684  79.938 224.478 -0.04 +0.04    -0.315 NA 
DOCKED: ATOM     36  H   UNL     1     133.514  79.254 225.252 +0.03 -0.02    +0.122 HD 
DOCKED: ENDBRANCH  29  31
DOCKED: ENDBRANCH   1  18
DOCKED: TORSDOF 4
DOCKED: TER
DOCKED: ENDMDL
________________________________________________________________________________


    FINAL DOCKED STATE:
    ________________________


Run:   4 / 20
Time taken for this run:   0.047s

DOCKED: MODEL        4
DOCKED: USER    Run = 4
DOCKED: USER
DOCKED: USER    Estimated Free Energy of Binding    =  -8.70 kcal/mol  [=(1)+(2)+(3)-(4)]
DOCKED: USER
DOCKED: USER    (1) Final Intermolecular Energy     =  -9.90 kcal/mol
DOCKED: USER        vdW + Hbond + desolv Energy     =  -9.70 kcal/mol
DOCKED: USER        Electrostatic Energy            =  -0.20 kcal/mol
DOCKED: USER        Moving Ligand-Fixed Receptor    =  -9.90 kcal/mol
DOCKED: USER        Moving Ligand-Moving Receptor   =  +0.00 kcal/mol
DOCKED: USER    (2) Final Total Internal Energy     =  -1.10 kcal/mol
DOCKED: USER    (3) Torsional Free Energy           =  +1.19 kcal/mol
DOCKED: USER    (4) Unbound System's Energy         =  -1.10 kcal/mol
DOCKED: USER
DOCKED: USER
DOCKED: REMARK SMILES NC(=O)c1ccc2cc(C(=O)N3C[C@]4(CCN([C@H]5CCNC5)C4)c4ccccc43)[nH]c2c1
DOCKED: REMARK SMILES IDX 10 1 11 2 9 3 4 4 5 5 32 6 6 7 31 8 7 9 30 10 8 11 2 13 1 14
DOCKED: REMARK SMILES IDX 3 17 12 18 13 19 29 20 14 21 28 22 24 23 15 24 23 25 27 26
DOCKED: REMARK SMILES IDX 25 27 16 28 17 29 26 30 18 31 19 32 22 33 20 34 21 35
DOCKED: REMARK H PARENT 30 12 1 15 1 16 21 36
DOCKED: USER                              x       y       z     vdW  Elec       q    Type
DOCKED: USER                           _______ _______ _______ _____ _____    ______ ____
DOCKED: ROOT
DOCKED: ATOM      1  C   UNL     1     139.584  76.835 222.179 -0.22 -0.06    +0.274 C  
DOCKED: ATOM      2  O   UNL     1     138.592  76.096 222.423 -0.25 +0.06    -0.267 OA 
DOCKED: ENDROOT
DOCKED: BRANCH   1   3
DOCKED: ATOM      3  C   UNL     1     140.711  76.294 221.400 -0.29 -0.03    +0.106 A  
DOCKED: ATOM      4  C   UNL     1     144.221  74.045 219.653 -0.35 -0.01    +0.041 A  
DOCKED: ATOM      5  C   UNL     1     144.003  74.965 218.591 -0.10 -0.01    +0.014 A  
DOCKED: ATOM      6  C   UNL     1     143.390  74.100 220.799 -0.28 -0.01    +0.040 A  
DOCKED: ATOM      7  C   UNL     1     142.967  75.913 218.658 -0.29 -0.01    +0.011 A  
DOCKED: ATOM      8  C   UNL     1     142.373  75.054 220.831 -0.22 -0.02    +0.047 A  
DOCKED: ATOM      9  C   UNL     1     142.170  75.926 219.798 -0.29 -0.00    +0.000 A  
DOCKED: ATOM     10  N   UNL     1     141.486  75.264 221.818 -0.08 +0.09    -0.350 N  
DOCKED: ATOM     11  C   UNL     1     141.105  76.730 220.135 -0.21 -0.02    +0.042 A  
DOCKED: ATOM     12  H   UNL     1     141.413  74.741 222.719 +0.08 +0.04    +0.167 HD 
DOCKED: BRANCH   4  13
DOCKED: ATOM     13  C   UNL     1     145.325  73.059 219.558 -0.28 +0.03    +0.248 C  
DOCKED: ATOM     14  N   UNL     1     145.734  72.282 220.686 -0.05 +0.02    -0.366 N  
DOCKED: ATOM     15  H   UNL     1     145.185  72.268 221.573 -0.41 -0.07    +0.159 HD 
DOCKED: ATOM     16  H   UNL     1     146.552  71.638 220.604 -0.42 +0.03    +0.159 HD 
DOCKED: ATOM     17  O   UNL     1     145.913  72.887 218.455 -0.76 -0.22    -0.270 OA 
DOCKED: ENDBRANCH   4  13
DOCKED: ENDBRANCH   1   3
DOCKED: BRANCH   1  18
DOCKED: ATOM     18  N   UNL     1     139.568  78.199 222.617 -0.16 +0.06    -0.306 N  
DOCKED: ATOM     19  C   UNL     1     138.350  78.936 222.943 -0.22 -0.02    +0.139 C  
DOCKED: ATOM     20  C   UNL     1     140.696  79.028 222.857 -0.42 -0.01    +0.048 A  
DOCKED: ATOM     21  C   UNL     1     138.817  80.393 223.296 -0.35 -0.00    +0.029 C  
DOCKED: ATOM     22  C   UNL     1     142.045  78.661 222.796 -0.41 -0.01    +0.026 A  
DOCKED: ATOM     23  C   UNL     1     140.317  80.289 223.242 -0.43 +0.00    -0.015 A  
DOCKED: ATOM     24  C   UNL     1     138.269  81.422 222.321 -0.19 -0.00    +0.030 C  
DOCKED: ATOM     25  C   UNL     1     138.281  80.870 224.654 -0.27 -0.01    +0.098 C  
DOCKED: ATOM     26  C   UNL     1     143.017  79.628 223.087 -0.55 -0.00    +0.002 A  
DOCKED: ATOM     27  C   UNL     1     141.272  81.270 223.534 -0.50 -0.00    +0.006 A  
DOCKED: ATOM     28  C   UNL     1     136.936  81.797 222.936 -0.14 -0.01    +0.086 C  
DOCKED: ATOM     29  N   UNL     1     137.080  81.692 224.401 -0.16 +0.03    -0.298 NA 
DOCKED: ATOM     30  C   UNL     1     142.632  80.932 223.450 -0.63 -0.00    +0.000 A  
DOCKED: BRANCH  29  31
DOCKED: ATOM     31  C   UNL     1     135.864  81.141 225.048 -0.23 -0.01    +0.071 C  
DOCKED: ATOM     32  C   UNL     1     135.910  81.291 226.561 -0.33 -0.01    +0.036 C  
DOCKED: ATOM     33  C   UNL     1     134.610  81.925 224.677 -0.09 -0.01    +0.100 C  
DOCKED: ATOM     34  C   UNL     1     134.464  81.512 226.983 -0.20 -0.01    +0.082 C  
DOCKED: ATOM     35  N   UNL     1     133.669  81.812 225.790 -0.01 +0.03    -0.315 NA 
DOCKED: ATOM     36  H   UNL     1     133.044  80.995 225.599 +0.02 -0.01    +0.122 HD 
DOCKED: ENDBRANCH  29  31
DOCKED: ENDBRANCH   1  18
DOCKED: TORSDOF 4
DOCKED: TER
DOCKED: ENDMDL
________________________________________________________________________________


    FINAL DOCKED STATE:
    ________________________


Run:   5 / 20
Time taken for this run:   0.047s

DOCKED: MODEL        5
DOCKED: USER    Run = 5
DOCKED: USER
DOCKED: USER    Estimated Free Energy of Binding    =  -8.27 kcal/mol  [=(1)+(2)+(3)-(4)]
DOCKED: USER
DOCKED: USER    (1) Final Intermolecular Energy     =  -9.46 kcal/mol
DOCKED: USER        vdW + Hbond + desolv Energy     =  -9.28 kcal/mol
DOCKED: USER        Electrostatic Energy            =  -0.18 kcal/mol
DOCKED: USER        Moving Ligand-Fixed Receptor    =  -9.46 kcal/mol
DOCKED: USER        Moving Ligand-Moving Receptor   =  +0.00 kcal/mol
DOCKED: USER    (2) Final Total Internal Energy     =  -1.28 kcal/mol
DOCKED: USER    (3) Torsional Free Energy           =  +1.19 kcal/mol
DOCKED: USER    (4) Unbound System's Energy         =  -1.28 kcal/mol
DOCKED: USER
DOCKED: USER
DOCKED: REMARK SMILES NC(=O)c1ccc2cc(C(=O)N3C[C@]4(CCN([C@H]5CCNC5)C4)c4ccccc43)[nH]c2c1
DOCKED: REMARK SMILES IDX 10 1 11 2 9 3 4 4 5 5 32 6 6 7 31 8 7 9 30 10 8 11 2 13 1 14
DOCKED: REMARK SMILES IDX 3 17 12 18 13 19 29 20 14 21 28 22 24 23 15 24 23 25 27 26
DOCKED: REMARK SMILES IDX 25 27 16 28 17 29 26 30 18 31 19 32 22 33 20 34 21 35
DOCKED: REMARK H PARENT 30 12 1 15 1 16 21 36
DOCKED: USER                              x       y       z     vdW  Elec       q    Type
DOCKED: USER                           _______ _______ _______ _____ _____    ______ ____
DOCKED: ROOT
DOCKED: ATOM      1  C   UNL     1     140.317  78.409 220.050 -0.07 -0.10    +0.274 C  
DOCKED: ATOM      2  O   UNL     1     139.829  78.739 218.935 -0.03 +0.09    -0.267 OA 
DOCKED: ENDROOT
DOCKED: BRANCH   1   3
DOCKED: ATOM      3  C   UNL     1     141.116  77.176 220.150 -0.19 -0.05    +0.106 A  
DOCKED: ATOM      4  C   UNL     1     144.244  73.916 220.273 -0.42 -0.01    +0.041 A  
DOCKED: ATOM      5  C   UNL     1     143.118  73.151 220.685 -0.29 -0.00    +0.014 A  
DOCKED: ATOM      6  C   UNL     1     144.076  75.290 219.977 -0.38 -0.02    +0.040 A  
DOCKED: ATOM      7  C   UNL     1     141.850  73.745 220.816 -0.27 -0.00    +0.011 A  
DOCKED: ATOM      8  C   UNL     1     142.806  75.846 220.118 -0.28 -0.03    +0.047 A  
DOCKED: ATOM      9  C   UNL     1     141.734  75.100 220.522 -0.28 -0.00    +0.000 A  
DOCKED: ATOM     10  N   UNL     1     142.444  77.119 219.889 -0.16 +0.24    -0.350 N  
DOCKED: ATOM     11  C   UNL     1     140.637  75.931 220.558 -0.21 -0.01    +0.042 A  
DOCKED: ATOM     12  H   UNL     1     143.062  77.901 219.573 -0.38 -0.16    +0.167 HD 
DOCKED: BRANCH   4  13
DOCKED: ATOM     13  C   UNL     1     145.568  73.261 220.138 -0.39 +0.01    +0.248 C  
DOCKED: ATOM     14  N   UNL     1     146.183  72.582 221.236 -0.07 +0.05    -0.366 N  
DOCKED: ATOM     15  H   UNL     1     145.670  72.393 222.124 -0.38 -0.08    +0.159 HD 
DOCKED: ATOM     16  H   UNL     1     147.141  72.181 221.127 -0.15 +0.04    +0.159 HD 
DOCKED: ATOM     17  O   UNL     1     146.166  73.288 219.028 -0.76 -0.17    -0.270 OA 
DOCKED: ENDBRANCH   4  13
DOCKED: ENDBRANCH   1   3
DOCKED: BRANCH   1  18
DOCKED: ATOM     18  N   UNL     1     140.131  79.269 221.181 -0.06 +0.09    -0.306 N  
DOCKED: ATOM     19  C   UNL     1     138.824  79.705 221.667 -0.13 -0.03    +0.139 C  
DOCKED: ATOM     20  C   UNL     1     141.142  79.787 222.032 -0.37 -0.02    +0.048 A  
DOCKED: ATOM     21  C   UNL     1     139.118  80.680 222.861 -0.31 -0.00    +0.029 C  
DOCKED: ATOM     22  C   UNL     1     142.511  79.498 221.991 -0.37 -0.01    +0.026 A  
DOCKED: ATOM     23  C   UNL     1     140.614  80.599 223.002 -0.43 +0.00    -0.015 A  
DOCKED: ATOM     24  C   UNL     1     138.634  82.092 222.578 -0.10 -0.00    +0.030 C  
DOCKED: ATOM     25  C   UNL     1     138.357  80.294 224.138 -0.33 -0.01    +0.098 C  
DOCKED: ATOM     26  C   UNL     1     143.352  80.102 222.938 -0.59 -0.00    +0.002 A  
DOCKED: ATOM     27  C   UNL     1     141.437  81.214 223.954 -0.45 -0.00    +0.006 A  
DOCKED: ATOM     28  C   UNL     1     137.202  82.067 223.071 -0.16 -0.01    +0.086 C  
DOCKED: ATOM     29  N   UNL     1     137.143  81.132 224.211 -0.16 +0.03    -0.298 NA 
DOCKED: ATOM     30  C   UNL     1     142.817  80.962 223.913 -0.65 -0.00    +0.000 A  
DOCKED: BRANCH  29  31
DOCKED: ATOM     31  C   UNL     1     135.895  80.330 224.217 -0.19 -0.01    +0.071 C  
DOCKED: ATOM     32  C   UNL     1     134.780  81.012 223.439 -0.08 -0.00    +0.036 C  
DOCKED: ATOM     33  C   UNL     1     136.057  79.009 223.471 -0.12 -0.01    +0.100 C  
DOCKED: ATOM     34  C   UNL     1     133.977  79.877 222.819 -0.05 -0.01    +0.082 C  
DOCKED: ATOM     35  N   UNL     1     134.750  78.639 222.933 -0.04 +0.04    -0.315 NA 
DOCKED: ATOM     36  H   UNL     1     134.278  78.022 223.635 +0.02 -0.01    +0.122 HD 
DOCKED: ENDBRANCH  29  31
DOCKED: ENDBRANCH   1  18
DOCKED: TORSDOF 4
DOCKED: TER
DOCKED: ENDMDL
________________________________________________________________________________


    FINAL DOCKED STATE:
    ________________________


Run:   6 / 20
Time taken for this run:   0.047s

DOCKED: MODEL        6
DOCKED: USER    Run = 6
DOCKED: USER
DOCKED: USER    Estimated Free Energy of Binding    =  -8.71 kcal/mol  [=(1)+(2)+(3)-(4)]
DOCKED: USER
DOCKED: USER    (1) Final Intermolecular Energy     =  -9.90 kcal/mol
DOCKED: USER        vdW + Hbond + desolv Energy     =  -9.73 kcal/mol
DOCKED: USER        Electrostatic Energy            =  -0.18 kcal/mol
DOCKED: USER        Moving Ligand-Fixed Receptor    =  -9.90 kcal/mol
DOCKED: USER        Moving Ligand-Moving Receptor   =  +0.00 kcal/mol
DOCKED: USER    (2) Final Total Internal Energy     =  -1.10 kcal/mol
DOCKED: USER    (3) Torsional Free Energy           =  +1.19 kcal/mol
DOCKED: USER    (4) Unbound System's Energy         =  -1.10 kcal/mol
DOCKED: USER
DOCKED: USER
DOCKED: REMARK SMILES NC(=O)c1ccc2cc(C(=O)N3C[C@]4(CCN([C@H]5CCNC5)C4)c4ccccc43)[nH]c2c1
DOCKED: REMARK SMILES IDX 10 1 11 2 9 3 4 4 5 5 32 6 6 7 31 8 7 9 30 10 8 11 2 13 1 14
DOCKED: REMARK SMILES IDX 3 17 12 18 13 19 29 20 14 21 28 22 24 23 15 24 23 25 27 26
DOCKED: REMARK SMILES IDX 25 27 16 28 17 29 26 30 18 31 19 32 22 33 20 34 21 35
DOCKED: REMARK H PARENT 30 12 1 15 1 16 21 36
DOCKED: USER                              x       y       z     vdW  Elec       q    Type
DOCKED: USER                           _______ _______ _______ _____ _____    ______ ____
DOCKED: ROOT
DOCKED: ATOM      1  C   UNL     1     139.527  76.838 222.180 -0.22 -0.06    +0.274 C  
DOCKED: ATOM      2  O   UNL     1     138.536  76.101 222.426 -0.24 +0.06    -0.267 OA 
DOCKED: ENDROOT
DOCKED: BRANCH   1   3
DOCKED: ATOM      3  C   UNL     1     140.655  76.295 221.402 -0.29 -0.03    +0.106 A  
DOCKED: ATOM      4  C   UNL     1     144.147  74.023 219.650 -0.35 -0.01    +0.041 A  
DOCKED: ATOM      5  C   UNL     1     143.957  74.968 218.605 -0.12 -0.01    +0.014 A  
DOCKED: ATOM      6  C   UNL     1     143.303  74.069 220.787 -0.28 -0.01    +0.040 A  
DOCKED: ATOM      7  C   UNL     1     142.937  75.933 218.680 -0.29 -0.01    +0.011 A  
DOCKED: ATOM      8  C   UNL     1     142.302  75.038 220.827 -0.24 -0.02    +0.047 A  
DOCKED: ATOM      9  C   UNL     1     142.127  75.936 219.811 -0.28 -0.00    +0.000 A  
DOCKED: ATOM     10  N   UNL     1     141.407  75.243 221.808 -0.12 +0.09    -0.350 N  
DOCKED: ATOM     11  C   UNL     1     141.071  76.751 220.152 -0.21 -0.02    +0.042 A  
DOCKED: ATOM     12  H   UNL     1     141.314  74.702 222.697 +0.08 +0.04    +0.167 HD 
DOCKED: BRANCH   4  13
DOCKED: ATOM     13  C   UNL     1     145.235  73.020 219.547 -0.28 +0.03    +0.248 C  
DOCKED: ATOM     14  N   UNL     1     145.667  72.265 220.682 -0.05 +0.02    -0.366 N  
DOCKED: ATOM     15  H   UNL     1     145.144  72.279 221.584 -0.38 -0.07    +0.159 HD 
DOCKED: ATOM     16  H   UNL     1     146.474  71.608 220.592 -0.43 +0.03    +0.159 HD 
DOCKED: ATOM     17  O   UNL     1     145.788  72.814 218.432 -0.74 -0.20    -0.270 OA 
DOCKED: ENDBRANCH   4  13
DOCKED: ENDBRANCH   1   3
DOCKED: BRANCH   1  18
DOCKED: ATOM     18  N   UNL     1     139.512  78.204 222.613 -0.16 +0.06    -0.306 N  
DOCKED: ATOM     19  C   UNL     1     138.294  78.943 222.935 -0.22 -0.02    +0.139 C  
DOCKED: ATOM     20  C   UNL     1     140.639  79.034 222.851 -0.42 -0.01    +0.048 A  
DOCKED: ATOM     21  C   UNL     1     138.761  80.400 223.284 -0.35 -0.00    +0.029 C  
DOCKED: ATOM     22  C   UNL     1     141.988  78.665 222.792 -0.43 -0.01    +0.026 A  
DOCKED: ATOM     23  C   UNL     1     140.261  80.296 223.232 -0.43 +0.00    -0.015 A  
DOCKED: ATOM     24  C   UNL     1     138.214  81.426 222.306 -0.19 -0.00    +0.030 C  
DOCKED: ATOM     25  C   UNL     1     138.224  80.882 224.640 -0.29 -0.01    +0.098 C  
DOCKED: ATOM     26  C   UNL     1     142.961  79.634 223.081 -0.59 -0.00    +0.002 A  
DOCKED: ATOM     27  C   UNL     1     141.217  81.278 223.521 -0.49 -0.00    +0.006 A  
DOCKED: ATOM     28  C   UNL     1     136.881  81.805 222.919 -0.14 -0.01    +0.086 C  
DOCKED: ATOM     29  N   UNL     1     137.024  81.704 224.384 -0.15 +0.03    -0.298 NA 
DOCKED: ATOM     30  C   UNL     1     142.577  80.939 223.439 -0.64 -0.00    +0.000 A  
DOCKED: BRANCH  29  31
DOCKED: ATOM     31  C   UNL     1     135.808  81.155 225.032 -0.23 -0.01    +0.071 C  
DOCKED: ATOM     32  C   UNL     1     135.865  81.287 226.546 -0.33 -0.01    +0.036 C  
DOCKED: ATOM     33  C   UNL     1     134.558  81.955 224.679 -0.08 -0.01    +0.100 C  
DOCKED: ATOM     34  C   UNL     1     134.423  81.515 226.980 -0.20 -0.01    +0.082 C  
DOCKED: ATOM     35  N   UNL     1     133.623  81.837 225.796 -0.01 +0.03    -0.315 NA 
DOCKED: ATOM     36  H   UNL     1     132.990  81.027 225.600 +0.02 -0.01    +0.122 HD 
DOCKED: ENDBRANCH  29  31
DOCKED: ENDBRANCH   1  18
DOCKED: TORSDOF 4
DOCKED: TER
DOCKED: ENDMDL
________________________________________________________________________________


    FINAL DOCKED STATE:
    ________________________


Run:   7 / 20
Time taken for this run:   0.047s

DOCKED: MODEL        7
DOCKED: USER    Run = 7
DOCKED: USER
DOCKED: USER    Estimated Free Energy of Binding    =  -8.63 kcal/mol  [=(1)+(2)+(3)-(4)]
DOCKED: USER
DOCKED: USER    (1) Final Intermolecular Energy     =  -9.83 kcal/mol
DOCKED: USER        vdW + Hbond + desolv Energy     =  -9.66 kcal/mol
DOCKED: USER        Electrostatic Energy            =  -0.17 kcal/mol
DOCKED: USER        Moving Ligand-Fixed Receptor    =  -9.83 kcal/mol
DOCKED: USER        Moving Ligand-Moving Receptor   =  +0.00 kcal/mol
DOCKED: USER    (2) Final Total Internal Energy     =  -1.11 kcal/mol
DOCKED: USER    (3) Torsional Free Energy           =  +1.19 kcal/mol
DOCKED: USER    (4) Unbound System's Energy         =  -1.11 kcal/mol
DOCKED: USER
DOCKED: USER
DOCKED: REMARK SMILES NC(=O)c1ccc2cc(C(=O)N3C[C@]4(CCN([C@H]5CCNC5)C4)c4ccccc43)[nH]c2c1
DOCKED: REMARK SMILES IDX 10 1 11 2 9 3 4 4 5 5 32 6 6 7 31 8 7 9 30 10 8 11 2 13 1 14
DOCKED: REMARK SMILES IDX 3 17 12 18 13 19 29 20 14 21 28 22 24 23 15 24 23 25 27 26
DOCKED: REMARK SMILES IDX 25 27 16 28 17 29 26 30 18 31 19 32 22 33 20 34 21 35
DOCKED: REMARK H PARENT 30 12 1 15 1 16 21 36
DOCKED: USER                              x       y       z     vdW  Elec       q    Type
DOCKED: USER                           _______ _______ _______ _____ _____    ______ ____
DOCKED: ROOT
DOCKED: ATOM      1  C   UNL     1     139.521  76.810 222.216 -0.22 -0.06    +0.274 C  
DOCKED: ATOM      2  O   UNL     1     138.541  76.062 222.478 -0.25 +0.06    -0.267 OA 
DOCKED: ENDROOT
DOCKED: BRANCH   1   3
DOCKED: ATOM      3  C   UNL     1     140.636  76.281 221.411 -0.29 -0.03    +0.106 A  
DOCKED: ATOM      4  C   UNL     1     144.104  74.045 219.565 -0.33 -0.01    +0.041 A  
DOCKED: ATOM      5  C   UNL     1     143.892  75.004 218.537 -0.14 -0.01    +0.014 A  
DOCKED: ATOM      6  C   UNL     1     143.280  74.072 220.717 -0.29 -0.01    +0.040 A  
DOCKED: ATOM      7  C   UNL     1     142.870  75.964 218.644 -0.28 -0.01    +0.011 A  
DOCKED: ATOM      8  C   UNL     1     142.277  75.038 220.789 -0.25 -0.02    +0.047 A  
DOCKED: ATOM      9  C   UNL     1     142.081  75.949 219.788 -0.28 -0.00    +0.000 A  
DOCKED: ATOM     10  N   UNL     1     141.399  75.226 221.788 -0.12 +0.09    -0.350 N  
DOCKED: ATOM     11  C   UNL     1     141.029  76.755 220.160 -0.20 -0.02    +0.042 A  
DOCKED: ATOM     12  H   UNL     1     141.324  74.673 222.671 +0.08 +0.04    +0.167 HD 
DOCKED: BRANCH   4  13
DOCKED: ATOM     13  C   UNL     1     145.193  73.048 219.429 -0.26 +0.02    +0.248 C  
DOCKED: ATOM     14  N   UNL     1     145.461  72.087 220.453 -0.03 +0.01    -0.366 N  
DOCKED: ATOM     15  H   UNL     1     144.819  71.953 221.264 -0.36 -0.06    +0.159 HD 
DOCKED: ATOM     16  H   UNL     1     146.271  71.436 220.355 -0.38 +0.04    +0.159 HD 
DOCKED: ATOM     17  O   UNL     1     145.895  73.031 218.381 -0.76 -0.19    -0.270 OA 
DOCKED: ENDBRANCH   4  13
DOCKED: ENDBRANCH   1   3
DOCKED: BRANCH   1  18
DOCKED: ATOM     18  N   UNL     1     139.504  78.173 222.658 -0.16 +0.06    -0.306 N  
DOCKED: ATOM     19  C   UNL     1     138.287  78.900 223.009 -0.21 -0.02    +0.139 C  
DOCKED: ATOM     20  C   UNL     1     140.629  79.009 222.880 -0.42 -0.01    +0.048 A  
DOCKED: ATOM     21  C   UNL     1     138.750  80.358 223.358 -0.36 -0.00    +0.029 C  
DOCKED: ATOM     22  C   UNL     1     141.980  78.652 222.792 -0.43 -0.01    +0.026 A  
DOCKED: ATOM     23  C   UNL     1     140.249  80.266 223.276 -0.43 +0.00    -0.015 A  
DOCKED: ATOM     24  C   UNL     1     138.175  81.386 222.397 -0.19 -0.00    +0.030 C  
DOCKED: ATOM     25  C   UNL     1     138.235  80.828 224.727 -0.24 -0.01    +0.098 C  
DOCKED: ATOM     26  C   UNL     1     142.950  79.626 223.069 -0.59 -0.00    +0.002 A  
DOCKED: ATOM     27  C   UNL     1     141.202  81.253 223.554 -0.49 -0.00    +0.006 A  
DOCKED: ATOM     28  C   UNL     1     136.852  81.750 223.038 -0.15 -0.01    +0.086 C  
DOCKED: ATOM     29  N   UNL     1     137.024  81.641 224.500 -0.16 +0.03    -0.298 NA 
DOCKED: ATOM     30  C   UNL     1     142.563  80.926 223.443 -0.64 -0.00    +0.000 A  
DOCKED: BRANCH  29  31
DOCKED: ATOM     31  C   UNL     1     135.825  81.079 225.167 -0.23 -0.01    +0.071 C  
DOCKED: ATOM     32  C   UNL     1     135.853  81.309 226.671 -0.33 -0.01    +0.036 C  
DOCKED: ATOM     33  C   UNL     1     134.545  81.795 224.749 -0.09 -0.01    +0.100 C  
DOCKED: ATOM     34  C   UNL     1     134.397  81.497 227.072 -0.20 -0.01    +0.082 C  
DOCKED: ATOM     35  N   UNL     1     133.600  81.705 225.860 -0.01 +0.03    -0.315 NA 
DOCKED: ATOM     36  H   UNL     1     133.007  80.856 225.709 +0.02 -0.01    +0.122 HD 
DOCKED: ENDBRANCH  29  31
DOCKED: ENDBRANCH   1  18
DOCKED: TORSDOF 4
DOCKED: TER
DOCKED: ENDMDL
________________________________________________________________________________


    FINAL DOCKED STATE:
    ________________________


Run:   8 / 20
Time taken for this run:   0.047s

DOCKED: MODEL        8
DOCKED: USER    Run = 8
DOCKED: USER
DOCKED: USER    Estimated Free Energy of Binding    =  -8.35 kcal/mol  [=(1)+(2)+(3)-(4)]
DOCKED: USER
DOCKED: USER    (1) Final Intermolecular Energy     =  -9.54 kcal/mol
DOCKED: USER        vdW + Hbond + desolv Energy     =  -9.37 kcal/mol
DOCKED: USER        Electrostatic Energy            =  -0.17 kcal/mol
DOCKED: USER        Moving Ligand-Fixed Receptor    =  -9.54 kcal/mol
DOCKED: USER        Moving Ligand-Moving Receptor   =  +0.00 kcal/mol
DOCKED: USER    (2) Final Total Internal Energy     =  -1.19 kcal/mol
DOCKED: USER    (3) Torsional Free Energy           =  +1.19 kcal/mol
DOCKED: USER    (4) Unbound System's Energy         =  -1.19 kcal/mol
DOCKED: USER
DOCKED: USER
DOCKED: REMARK SMILES NC(=O)c1ccc2cc(C(=O)N3C[C@]4(CCN([C@H]5CCNC5)C4)c4ccccc43)[nH]c2c1
DOCKED: REMARK SMILES IDX 10 1 11 2 9 3 4 4 5 5 32 6 6 7 31 8 7 9 30 10 8 11 2 13 1 14
DOCKED: REMARK SMILES IDX 3 17 12 18 13 19 29 20 14 21 28 22 24 23 15 24 23 25 27 26
DOCKED: REMARK SMILES IDX 25 27 16 28 17 29 26 30 18 31 19 32 22 33 20 34 21 35
DOCKED: REMARK H PARENT 30 12 1 15 1 16 21 36
DOCKED: USER                              x       y       z     vdW  Elec       q    Type
DOCKED: USER                           _______ _______ _______ _____ _____    ______ ____
DOCKED: ROOT
DOCKED: ATOM      1  C   UNL     1     139.517  76.832 222.171 -0.22 -0.06    +0.274 C  
DOCKED: ATOM      2  O   UNL     1     138.532  76.090 222.431 -0.24 +0.06    -0.267 OA 
DOCKED: ENDROOT
DOCKED: BRANCH   1   3
DOCKED: ATOM      3  C   UNL     1     140.635  76.293 221.377 -0.28 -0.03    +0.106 A  
DOCKED: ATOM      4  C   UNL     1     144.133  74.057 219.592 -0.34 -0.01    +0.041 A  
DOCKED: ATOM      5  C   UNL     1     143.889  74.963 218.525 -0.15 -0.01    +0.014 A  
DOCKED: ATOM      6  C   UNL     1     143.322  74.116 220.751 -0.28 -0.01    +0.040 A  
DOCKED: ATOM      7  C   UNL     1     142.846  75.904 218.601 -0.27 -0.01    +0.011 A  
DOCKED: ATOM      8  C   UNL     1     142.298  75.061 220.792 -0.24 -0.02    +0.047 A  
DOCKED: ATOM      9  C   UNL     1     142.070  75.922 219.754 -0.27 -0.00    +0.000 A  
DOCKED: ATOM     10  N   UNL     1     141.426  75.274 221.792 -0.12 +0.09    -0.350 N  
DOCKED: ATOM     11  C   UNL     1     141.003  76.720 220.102 -0.19 -0.02    +0.042 A  
DOCKED: ATOM     12  H   UNL     1     141.373  74.759 222.699 +0.07 +0.04    +0.167 HD 
DOCKED: BRANCH   4  13
DOCKED: ATOM     13  C   UNL     1     145.244  73.079 219.488 -0.27 +0.02    +0.248 C  
DOCKED: ATOM     14  N   UNL     1     145.524  72.148 220.536 +0.02 +0.02    -0.366 N  
DOCKED: ATOM     15  H   UNL     1     144.878  72.020 221.345 -0.34 -0.07    +0.159 HD 
DOCKED: ATOM     16  H   UNL     1     146.348  71.512 220.460 -0.44 +0.03    +0.159 HD 
DOCKED: ATOM     17  O   UNL     1     145.955  73.052 218.445 -0.78 -0.20    -0.270 OA 
DOCKED: ENDBRANCH   4  13
DOCKED: ENDBRANCH   1   3
DOCKED: BRANCH   1  18
DOCKED: ATOM     18  N   UNL     1     139.503  78.198 222.605 -0.16 +0.06    -0.306 N  
DOCKED: ATOM     19  C   UNL     1     138.284  78.941 222.914 -0.21 -0.02    +0.139 C  
DOCKED: ATOM     20  C   UNL     1     140.631  79.022 222.856 -0.42 -0.01    +0.048 A  
DOCKED: ATOM     21  C   UNL     1     138.754  80.396 223.269 -0.34 -0.00    +0.029 C  
DOCKED: ATOM     22  C   UNL     1     141.979  78.649 222.811 -0.44 -0.01    +0.026 A  
DOCKED: ATOM     23  C   UNL     1     140.253  80.286 223.233 -0.43 +0.00    -0.015 A  
DOCKED: ATOM     24  C   UNL     1     138.221  81.425 222.285 -0.19 -0.00    +0.030 C  
DOCKED: ATOM     25  C   UNL     1     138.204  80.880 224.619 -0.31 -0.01    +0.098 C  
DOCKED: ATOM     26  C   UNL     1     142.952  79.613 223.111 -0.58 -0.00    +0.002 A  
DOCKED: ATOM     27  C   UNL     1     141.210  81.263 223.533 -0.49 -0.00    +0.006 A  
DOCKED: ATOM     28  C   UNL     1     136.883  81.809 222.884 -0.14 -0.01    +0.086 C  
DOCKED: ATOM     29  N   UNL     1     137.010  81.707 224.351 -0.15 +0.03    -0.298 NA 
DOCKED: ATOM     30  C   UNL     1     142.569  80.919 223.465 -0.65 -0.00    +0.000 A  
DOCKED: BRANCH  29  31
DOCKED: ATOM     31  C   UNL     1     135.785  81.162 224.985 -0.23 -0.01    +0.071 C  
DOCKED: ATOM     32  C   UNL     1     134.613  82.126 224.873 -0.10 -0.00    +0.036 C  
DOCKED: ATOM     33  C   UNL     1     135.264  79.925 224.261 -0.13 -0.01    +0.100 C  
DOCKED: ATOM     34  C   UNL     1     133.381  81.241 224.743 -0.05 -0.01    +0.082 C  
DOCKED: ATOM     35  N   UNL     1     133.816  79.873 224.455 -0.04 +0.04    -0.315 NA 
DOCKED: ATOM     36  H   UNL     1     133.627  79.285 225.300 +0.03 -0.02    +0.122 HD 
DOCKED: ENDBRANCH  29  31
DOCKED: ENDBRANCH   1  18
DOCKED: TORSDOF 4
DOCKED: TER
DOCKED: ENDMDL
________________________________________________________________________________


    FINAL DOCKED STATE:
    ________________________


Run:   9 / 20
Time taken for this run:   0.047s

DOCKED: MODEL        9
DOCKED: USER    Run = 9
DOCKED: USER
DOCKED: USER    Estimated Free Energy of Binding    =  -8.70 kcal/mol  [=(1)+(2)+(3)-(4)]
DOCKED: USER
DOCKED: USER    (1) Final Intermolecular Energy     =  -9.89 kcal/mol
DOCKED: USER        vdW + Hbond + desolv Energy     =  -9.70 kcal/mol
DOCKED: USER        Electrostatic Energy            =  -0.19 kcal/mol
DOCKED: USER        Moving Ligand-Fixed Receptor    =  -9.89 kcal/mol
DOCKED: USER        Moving Ligand-Moving Receptor   =  +0.00 kcal/mol
DOCKED: USER    (2) Final Total Internal Energy     =  -1.09 kcal/mol
DOCKED: USER    (3) Torsional Free Energy           =  +1.19 kcal/mol
DOCKED: USER    (4) Unbound System's Energy         =  -1.09 kcal/mol
DOCKED: USER
DOCKED: USER
DOCKED: REMARK SMILES NC(=O)c1ccc2cc(C(=O)N3C[C@]4(CCN([C@H]5CCNC5)C4)c4ccccc43)[nH]c2c1
DOCKED: REMARK SMILES IDX 10 1 11 2 9 3 4 4 5 5 32 6 6 7 31 8 7 9 30 10 8 11 2 13 1 14
DOCKED: REMARK SMILES IDX 3 17 12 18 13 19 29 20 14 21 28 22 24 23 15 24 23 25 27 26
DOCKED: REMARK SMILES IDX 25 27 16 28 17 29 26 30 18 31 19 32 22 33 20 34 21 35
DOCKED: REMARK H PARENT 30 12 1 15 1 16 21 36
DOCKED: USER                              x       y       z     vdW  Elec       q    Type
DOCKED: USER                           _______ _______ _______ _____ _____    ______ ____
DOCKED: ROOT
DOCKED: ATOM      1  C   UNL     1     139.464  76.887 222.094 -0.22 -0.06    +0.274 C  
DOCKED: ATOM      2  O   UNL     1     138.447  76.173 222.302 -0.22 +0.06    -0.267 OA 
DOCKED: ENDROOT
DOCKED: BRANCH   1   3
DOCKED: ATOM      3  C   UNL     1     140.593  76.328 221.330 -0.27 -0.03    +0.106 A  
DOCKED: ATOM      4  C   UNL     1     144.143  74.075 219.673 -0.35 -0.01    +0.041 A  
DOCKED: ATOM      5  C   UNL     1     143.870  74.904 218.551 -0.17 -0.01    +0.014 A  
DOCKED: ATOM      6  C   UNL     1     143.335  74.188 220.830 -0.26 -0.01    +0.040 A  
DOCKED: ATOM      7  C   UNL     1     142.802  75.819 218.571 -0.25 -0.01    +0.011 A  
DOCKED: ATOM      8  C   UNL     1     142.286  75.105 220.816 -0.23 -0.02    +0.047 A  
DOCKED: ATOM      9  C   UNL     1     142.030  75.891 219.726 -0.26 -0.00    +0.000 A  
DOCKED: ATOM     10  N   UNL     1     141.413  75.359 221.805 -0.13 +0.10    -0.350 N  
DOCKED: ATOM     11  C   UNL     1     140.944  76.681 220.027 -0.18 -0.02    +0.042 A  
DOCKED: ATOM     12  H   UNL     1     141.378  74.903 222.744 +0.09 +0.03    +0.167 HD 
DOCKED: BRANCH   4  13
DOCKED: ATOM     13  C   UNL     1     145.280  73.123 219.625 -0.29 +0.02    +0.248 C  
DOCKED: ATOM     14  N   UNL     1     145.637  72.326 220.758 -0.05 +0.04    -0.366 N  
DOCKED: ATOM     15  H   UNL     1     145.033  72.273 221.606 -0.34 -0.07    +0.159 HD 
DOCKED: ATOM     16  H   UNL     1     146.477  71.708 220.713 -0.43 +0.01    +0.159 HD 
DOCKED: ATOM     17  O   UNL     1     145.943  72.997 218.559 -0.79 -0.21    -0.270 OA 
DOCKED: ENDBRANCH   4  13
DOCKED: ENDBRANCH   1   3
DOCKED: BRANCH   1  18
DOCKED: ATOM     18  N   UNL     1     139.477  78.243 222.556 -0.15 +0.06    -0.306 N  
DOCKED: ATOM     19  C   UNL     1     138.276  78.992 222.919 -0.22 -0.02    +0.139 C  
DOCKED: ATOM     20  C   UNL     1     140.621  79.052 222.787 -0.40 -0.01    +0.048 A  
DOCKED: ATOM     21  C   UNL     1     138.771  80.435 223.288 -0.35 -0.00    +0.029 C  
DOCKED: ATOM     22  C   UNL     1     141.963  78.667 222.692 -0.43 -0.01    +0.026 A  
DOCKED: ATOM     23  C   UNL     1     140.268  80.311 223.202 -0.42 +0.00    -0.015 A  
DOCKED: ATOM     24  C   UNL     1     138.218  81.489 222.343 -0.19 -0.00    +0.030 C  
DOCKED: ATOM     25  C   UNL     1     138.269  80.895 224.665 -0.27 -0.01    +0.098 C  
DOCKED: ATOM     26  C   UNL     1     142.955  79.615 222.980 -0.59 -0.00    +0.002 A  
DOCKED: ATOM     27  C   UNL     1     141.243  81.273 223.492 -0.50 -0.00    +0.006 A  
DOCKED: ATOM     28  C   UNL     1     136.903  81.872 222.992 -0.15 -0.01    +0.086 C  
DOCKED: ATOM     29  N   UNL     1     137.075  81.738 224.452 -0.16 +0.03    -0.298 NA 
DOCKED: ATOM     30  C   UNL     1     142.596  80.918 223.374 -0.63 -0.00    +0.000 A  
DOCKED: BRANCH  29  31
DOCKED: ATOM     31  C   UNL     1     135.866  81.193 225.113 -0.24 -0.01    +0.071 C  
DOCKED: ATOM     32  C   UNL     1     135.954  81.295 226.628 -0.34 -0.01    +0.036 C  
DOCKED: ATOM     33  C   UNL     1     134.619  82.014 224.799 -0.09 -0.01    +0.100 C  
DOCKED: ATOM     34  C   UNL     1     134.524  81.533 227.095 -0.21 -0.01    +0.082 C  
DOCKED: ATOM     35  N   UNL     1     133.706  81.887 225.933 -0.01 +0.03    -0.315 NA 
DOCKED: ATOM     36  H   UNL     1     133.058  81.088 225.734 +0.02 -0.01    +0.122 HD 
DOCKED: ENDBRANCH  29  31
DOCKED: ENDBRANCH   1  18
DOCKED: TORSDOF 4
DOCKED: TER
DOCKED: ENDMDL
________________________________________________________________________________


    FINAL DOCKED STATE:
    ________________________


Run:   10 / 20
Time taken for this run:   0.047s

DOCKED: MODEL        10
DOCKED: USER    Run = 10
DOCKED: USER
DOCKED: USER    Estimated Free Energy of Binding    =  -9.21 kcal/mol  [=(1)+(2)+(3)-(4)]
DOCKED: USER
DOCKED: USER    (1) Final Intermolecular Energy     = -10.40 kcal/mol
DOCKED: USER        vdW + Hbond + desolv Energy     = -10.23 kcal/mol
DOCKED: USER        Electrostatic Energy            =  -0.17 kcal/mol
DOCKED: USER        Moving Ligand-Fixed Receptor    = -10.40 kcal/mol
DOCKED: USER        Moving Ligand-Moving Receptor   =  +0.00 kcal/mol
DOCKED: USER    (2) Final Total Internal Energy     =  -1.10 kcal/mol
DOCKED: USER    (3) Torsional Free Energy           =  +1.19 kcal/mol
DOCKED: USER    (4) Unbound System's Energy         =  -1.10 kcal/mol
DOCKED: USER
DOCKED: USER
DOCKED: REMARK SMILES NC(=O)c1ccc2cc(C(=O)N3C[C@]4(CCN([C@H]5CCNC5)C4)c4ccccc43)[nH]c2c1
DOCKED: REMARK SMILES IDX 10 1 11 2 9 3 4 4 5 5 32 6 6 7 31 8 7 9 30 10 8 11 2 13 1 14
DOCKED: REMARK SMILES IDX 3 17 12 18 13 19 29 20 14 21 28 22 24 23 15 24 23 25 27 26
DOCKED: REMARK SMILES IDX 25 27 16 28 17 29 26 30 18 31 19 32 22 33 20 34 21 35
DOCKED: REMARK H PARENT 30 12 1 15 1 16 21 36
DOCKED: USER                              x       y       z     vdW  Elec       q    Type
DOCKED: USER                           _______ _______ _______ _____ _____    ______ ____
DOCKED: ROOT
DOCKED: ATOM      1  C   UNL     1     140.505  73.657 221.970 -0.12 -0.01    +0.274 C  
DOCKED: ATOM      2  O   UNL     1     139.680  74.591 222.158 -0.73 +0.03    -0.267 OA 
DOCKED: ENDROOT
DOCKED: BRANCH   1   3
DOCKED: ATOM      3  C   UNL     1     140.234  72.329 222.549 -0.29 -0.01    +0.106 A  
DOCKED: ATOM      4  C   UNL     1     139.724  68.608 225.063 -0.34 -0.01    +0.041 A  
DOCKED: ATOM      5  C   UNL     1     139.113  68.146 223.866 -0.23 -0.00    +0.014 A  
DOCKED: ATOM      6  C   UNL     1     140.251  69.922 225.109 -0.41 -0.01    +0.040 A  
DOCKED: ATOM      7  C   UNL     1     139.013  68.979 222.738 -0.21 -0.00    +0.011 A  
DOCKED: ATOM      8  C   UNL     1     140.133  70.720 223.973 -0.34 -0.01    +0.047 A  
DOCKED: ATOM      9  C   UNL     1     139.536  70.264 222.831 -0.23 -0.00    +0.000 A  
DOCKED: ATOM     10  N   UNL     1     140.564  71.983 223.818 -0.16 +0.04    -0.350 N  
DOCKED: ATOM     11  C   UNL     1     139.582  71.280 221.902 -0.19 -0.01    +0.042 A  
DOCKED: ATOM     12  H   UNL     1     141.051  72.573 224.529 +0.09 -0.01    +0.167 HD 
DOCKED: BRANCH   4  13
DOCKED: ATOM     13  C   UNL     1     139.822  67.704 226.236 -0.44 -0.04    +0.248 C  
DOCKED: ATOM     14  N   UNL     1     141.015  67.622 227.020 -0.28 +0.10    -0.366 N  
DOCKED: ATOM     15  H   UNL     1     141.805  68.291 226.893 +0.02 -0.04    +0.159 HD 
DOCKED: ATOM     16  H   UNL     1     141.074  66.935 227.804 -0.37 -0.07    +0.159 HD 
DOCKED: ATOM     17  O   UNL     1     138.829  66.999 226.563 -0.68 -0.01    -0.270 OA 
DOCKED: ENDBRANCH   4  13
DOCKED: ENDBRANCH   1   3
DOCKED: BRANCH   1  18
DOCKED: ATOM     18  N   UNL     1     141.658  73.890 221.152 -0.15 +0.05    -0.306 N  
DOCKED: ATOM     19  C   UNL     1     142.664  72.874 220.853 -0.20 -0.02    +0.139 C  
DOCKED: ATOM     20  C   UNL     1     141.986  75.090 220.467 -0.28 -0.02    +0.048 A  
DOCKED: ATOM     21  C   UNL     1     143.760  73.602 219.997 -0.34 -0.01    +0.029 C  
DOCKED: ATOM     22  C   UNL     1     141.214  76.255 220.383 -0.24 -0.01    +0.026 A  
DOCKED: ATOM     23  C   UNL     1     143.178  74.974 219.798 -0.35 +0.01    -0.015 A  
DOCKED: ATOM     24  C   UNL     1     145.106  73.636 220.700 -0.56 -0.01    +0.030 C  
DOCKED: ATOM     25  C   UNL     1     144.065  72.866 218.683 -0.16 -0.01    +0.098 C  
DOCKED: ATOM     26  C   UNL     1     141.709  77.334 219.637 -0.26 -0.00    +0.002 A  
DOCKED: ATOM     27  C   UNL     1     143.690  76.042 219.050 -0.32 -0.00    +0.006 A  
DOCKED: ATOM     28  C   UNL     1     145.754  72.338 220.261 -0.33 +0.01    +0.086 C  
DOCKED: ATOM     29  N   UNL     1     145.275  72.045 218.896 -0.35 -0.13    -0.298 NA 
DOCKED: ATOM     30  C   UNL     1     142.947  77.231 218.977 -0.35 -0.00    +0.000 A  
DOCKED: BRANCH  29  31
DOCKED: ATOM     31  C   UNL     1     145.027  70.598 218.684 -0.22 +0.02    +0.071 C  
DOCKED: ATOM     32  C   UNL     1     146.315  69.790 218.737 -0.29 +0.03    +0.036 C  
DOCKED: ATOM     33  C   UNL     1     144.207  69.985 219.814 -0.14 +0.01    +0.100 C  
DOCKED: ATOM     34  C   UNL     1     145.920  68.451 219.342 -0.42 +0.02    +0.082 C  
DOCKED: ATOM     35  N   UNL     1     144.579  68.575 219.919 -0.41 -0.05    -0.315 NA 
DOCKED: ATOM     36  H   UNL     1     143.915  68.023 219.327 +0.05 -0.02    +0.122 HD 
DOCKED: ENDBRANCH  29  31
DOCKED: ENDBRANCH   1  18
DOCKED: TORSDOF 4
DOCKED: TER
DOCKED: ENDMDL
________________________________________________________________________________


    FINAL DOCKED STATE:
    ________________________


Run:   11 / 20
Time taken for this run:   0.047s

DOCKED: MODEL        11
DOCKED: USER    Run = 11
DOCKED: USER
DOCKED: USER    Estimated Free Energy of Binding    =  -8.72 kcal/mol  [=(1)+(2)+(3)-(4)]
DOCKED: USER
DOCKED: USER    (1) Final Intermolecular Energy     =  -9.91 kcal/mol
DOCKED: USER        vdW + Hbond + desolv Energy     =  -9.72 kcal/mol
DOCKED: USER        Electrostatic Energy            =  -0.20 kcal/mol
DOCKED: USER        Moving Ligand-Fixed Receptor    =  -9.91 kcal/mol
DOCKED: USER        Moving Ligand-Moving Receptor   =  +0.00 kcal/mol
DOCKED: USER    (2) Final Total Internal Energy     =  -1.10 kcal/mol
DOCKED: USER    (3) Torsional Free Energy           =  +1.19 kcal/mol
DOCKED: USER    (4) Unbound System's Energy         =  -1.10 kcal/mol
DOCKED: USER
DOCKED: USER
DOCKED: REMARK SMILES NC(=O)c1ccc2cc(C(=O)N3C[C@]4(CCN([C@H]5CCNC5)C4)c4ccccc43)[nH]c2c1
DOCKED: REMARK SMILES IDX 10 1 11 2 9 3 4 4 5 5 32 6 6 7 31 8 7 9 30 10 8 11 2 13 1 14
DOCKED: REMARK SMILES IDX 3 17 12 18 13 19 29 20 14 21 28 22 24 23 15 24 23 25 27 26
DOCKED: REMARK SMILES IDX 25 27 16 28 17 29 26 30 18 31 19 32 22 33 20 34 21 35
DOCKED: REMARK H PARENT 30 12 1 15 1 16 21 36
DOCKED: USER                              x       y       z     vdW  Elec       q    Type
DOCKED: USER                           _______ _______ _______ _____ _____    ______ ____
DOCKED: ROOT
DOCKED: ATOM      1  C   UNL     1     139.555  76.835 222.162 -0.22 -0.06    +0.274 C  
DOCKED: ATOM      2  O   UNL     1     138.560  76.100 222.401 -0.24 +0.06    -0.267 OA 
DOCKED: ENDROOT
DOCKED: BRANCH   1   3
DOCKED: ATOM      3  C   UNL     1     140.684  76.291 221.386 -0.29 -0.03    +0.106 A  
DOCKED: ATOM      4  C   UNL     1     144.199  74.037 219.657 -0.35 -0.01    +0.041 A  
DOCKED: ATOM      5  C   UNL     1     143.977  74.946 218.587 -0.12 -0.01    +0.014 A  
DOCKED: ATOM      6  C   UNL     1     143.368  74.100 220.802 -0.28 -0.01    +0.040 A  
DOCKED: ATOM      7  C   UNL     1     142.939  75.893 218.646 -0.28 -0.01    +0.011 A  
DOCKED: ATOM      8  C   UNL     1     142.349  75.050 220.827 -0.22 -0.02    +0.047 A  
DOCKED: ATOM      9  C   UNL     1     142.143  75.914 219.787 -0.28 -0.00    +0.000 A  
DOCKED: ATOM     10  N   UNL     1     141.462  75.267 221.813 -0.10 +0.09    -0.350 N  
DOCKED: ATOM     11  C   UNL     1     141.075  76.717 220.118 -0.20 -0.02    +0.042 A  
DOCKED: ATOM     12  H   UNL     1     141.391  74.752 222.719 +0.08 +0.04    +0.167 HD 
DOCKED: BRANCH   4  13
DOCKED: ATOM     13  C   UNL     1     145.306  73.053 219.570 -0.28 +0.03    +0.248 C  
DOCKED: ATOM     14  N   UNL     1     145.708  72.277 220.701 -0.04 +0.02    -0.366 N  
DOCKED: ATOM     15  H   UNL     1     145.153  72.262 221.584 -0.40 -0.07    +0.159 HD 
DOCKED: ATOM     16  H   UNL     1     146.528  71.635 220.625 -0.42 +0.03    +0.159 HD 
DOCKED: ATOM     17  O   UNL     1     145.902  72.882 218.471 -0.76 -0.22    -0.270 OA 
DOCKED: ENDBRANCH   4  13
DOCKED: ENDBRANCH   1   3
DOCKED: BRANCH   1  18
DOCKED: ATOM     18  N   UNL     1     139.544  78.199 222.601 -0.16 +0.06    -0.306 N  
DOCKED: ATOM     19  C   UNL     1     138.328  78.938 222.933 -0.22 -0.02    +0.139 C  
DOCKED: ATOM     20  C   UNL     1     140.673  79.028 222.835 -0.42 -0.01    +0.048 A  
DOCKED: ATOM     21  C   UNL     1     138.798  80.393 223.285 -0.35 -0.00    +0.029 C  
DOCKED: ATOM     22  C   UNL     1     142.021  78.659 222.766 -0.41 -0.01    +0.026 A  
DOCKED: ATOM     23  C   UNL     1     140.297  80.288 223.223 -0.43 +0.00    -0.015 A  
DOCKED: ATOM     24  C   UNL     1     138.245  81.423 222.314 -0.19 -0.00    +0.030 C  
DOCKED: ATOM     25  C   UNL     1     138.269  80.870 224.646 -0.28 -0.01    +0.098 C  
DOCKED: ATOM     26  C   UNL     1     142.996  79.626 223.054 -0.57 -0.00    +0.002 A  
DOCKED: ATOM     27  C   UNL     1     141.255  81.268 223.511 -0.50 -0.00    +0.006 A  
DOCKED: ATOM     28  C   UNL     1     136.916  81.800 222.936 -0.14 -0.01    +0.086 C  
DOCKED: ATOM     29  N   UNL     1     137.067  81.693 224.400 -0.15 +0.03    -0.298 NA 
DOCKED: ATOM     30  C   UNL     1     142.614  80.929 223.419 -0.63 -0.00    +0.000 A  
DOCKED: BRANCH  29  31
DOCKED: ATOM     31  C   UNL     1     135.855  81.142 225.053 -0.23 -0.01    +0.071 C  
DOCKED: ATOM     32  C   UNL     1     135.909  81.292 226.566 -0.33 -0.01    +0.036 C  
DOCKED: ATOM     33  C   UNL     1     134.599  81.928 224.689 -0.09 -0.01    +0.100 C  
DOCKED: ATOM     34  C   UNL     1     134.466  81.514 226.995 -0.20 -0.01    +0.082 C  
DOCKED: ATOM     35  N   UNL     1     133.665  81.815 225.807 -0.01 +0.03    -0.315 NA 
DOCKED: ATOM     36  H   UNL     1     133.037  80.998 225.619 +0.02 -0.01    +0.122 HD 
DOCKED: ENDBRANCH  29  31
DOCKED: ENDBRANCH   1  18
DOCKED: TORSDOF 4
DOCKED: TER
DOCKED: ENDMDL
________________________________________________________________________________


    FINAL DOCKED STATE:
    ________________________


Run:   12 / 20
Time taken for this run:   0.047s

DOCKED: MODEL        12
DOCKED: USER    Run = 12
DOCKED: USER
DOCKED: USER    Estimated Free Energy of Binding    =  -8.42 kcal/mol  [=(1)+(2)+(3)-(4)]
DOCKED: USER
DOCKED: USER    (1) Final Intermolecular Energy     =  -9.61 kcal/mol
DOCKED: USER        vdW + Hbond + desolv Energy     =  -9.43 kcal/mol
DOCKED: USER        Electrostatic Energy            =  -0.18 kcal/mol
DOCKED: USER        Moving Ligand-Fixed Receptor    =  -9.61 kcal/mol
DOCKED: USER        Moving Ligand-Moving Receptor   =  +0.00 kcal/mol
DOCKED: USER    (2) Final Total Internal Energy     =  -1.23 kcal/mol
DOCKED: USER    (3) Torsional Free Energy           =  +1.19 kcal/mol
DOCKED: USER    (4) Unbound System's Energy         =  -1.23 kcal/mol
DOCKED: USER
DOCKED: USER
DOCKED: REMARK SMILES NC(=O)c1ccc2cc(C(=O)N3C[C@]4(CCN([C@H]5CCNC5)C4)c4ccccc43)[nH]c2c1
DOCKED: REMARK SMILES IDX 10 1 11 2 9 3 4 4 5 5 32 6 6 7 31 8 7 9 30 10 8 11 2 13 1 14
DOCKED: REMARK SMILES IDX 3 17 12 18 13 19 29 20 14 21 28 22 24 23 15 24 23 25 27 26
DOCKED: REMARK SMILES IDX 25 27 16 28 17 29 26 30 18 31 19 32 22 33 20 34 21 35
DOCKED: REMARK H PARENT 30 12 1 15 1 16 21 36
DOCKED: USER                              x       y       z     vdW  Elec       q    Type
DOCKED: USER                           _______ _______ _______ _____ _____    ______ ____
DOCKED: ROOT
DOCKED: ATOM      1  C   UNL     1     140.380  78.547 219.948 -0.07 -0.10    +0.274 C  
DOCKED: ATOM      2  O   UNL     1     139.928  78.867 218.816 -0.03 +0.09    -0.267 OA 
DOCKED: ENDROOT
DOCKED: BRANCH   1   3
DOCKED: ATOM      3  C   UNL     1     141.162  77.306 220.088 -0.19 -0.05    +0.106 A  
DOCKED: ATOM      4  C   UNL     1     144.246  74.011 220.321 -0.43 -0.01    +0.041 A  
DOCKED: ATOM      5  C   UNL     1     143.108  73.273 220.746 -0.29 -0.00    +0.014 A  
DOCKED: ATOM      6  C   UNL     1     144.099  75.379 219.986 -0.34 -0.02    +0.040 A  
DOCKED: ATOM      7  C   UNL     1     141.847  73.886 220.852 -0.28 -0.00    +0.011 A  
DOCKED: ATOM      8  C   UNL     1     142.835  75.954 220.103 -0.28 -0.03    +0.047 A  
DOCKED: ATOM      9  C   UNL     1     141.751  75.233 220.520 -0.29 -0.00    +0.000 A  
DOCKED: ATOM     10  N   UNL     1     142.491  77.226 219.836 -0.15 +0.25    -0.350 N  
DOCKED: ATOM     11  C   UNL     1     140.665  76.080 220.526 -0.21 -0.01    +0.042 A  
DOCKED: ATOM     12  H   UNL     1     143.121  77.990 219.504 -0.37 -0.17    +0.167 HD 
DOCKED: BRANCH   4  13
DOCKED: ATOM     13  C   UNL     1     145.563  73.336 220.212 -0.40 -0.00    +0.248 C  
DOCKED: ATOM     14  N   UNL     1     146.141  72.640 221.319 -0.18 +0.06    -0.366 N  
DOCKED: ATOM     15  H   UNL     1     145.604  72.454 222.194 -0.34 -0.08    +0.159 HD 
DOCKED: ATOM     16  H   UNL     1     147.095  72.225 221.231 -0.20 +0.03    +0.159 HD 
DOCKED: ATOM     17  O   UNL     1     146.188  73.361 219.116 -0.75 -0.15    -0.270 OA 
DOCKED: ENDBRANCH   4  13
DOCKED: ENDBRANCH   1   3
DOCKED: BRANCH   1  18
DOCKED: ATOM     18  N   UNL     1     140.170  79.423 221.062 -0.05 +0.09    -0.306 N  
DOCKED: ATOM     19  C   UNL     1     138.868  79.970 221.434 -0.11 -0.03    +0.139 C  
DOCKED: ATOM     20  C   UNL     1     141.145  79.856 222.000 -0.36 -0.02    +0.048 A  
DOCKED: ATOM     21  C   UNL     1     139.140  80.921 222.653 -0.28 -0.00    +0.029 C  
DOCKED: ATOM     22  C   UNL     1     142.483  79.451 222.077 -0.41 -0.01    +0.026 A  
DOCKED: ATOM     23  C   UNL     1     140.605  80.714 222.924 -0.42 +0.00    -0.015 A  
DOCKED: ATOM     24  C   UNL     1     138.804  82.369 222.336 -0.10 -0.00    +0.030 C  
DOCKED: ATOM     25  C   UNL     1     138.240  80.605 223.858 -0.34 -0.01    +0.098 C  
DOCKED: ATOM     26  C   UNL     1     143.286  79.984 223.096 -0.59 -0.00    +0.002 A  
DOCKED: ATOM     27  C   UNL     1     141.391  81.259 223.946 -0.44 -0.00    +0.006 A  
DOCKED: ATOM     28  C   UNL     1     137.337  82.468 222.702 -0.14 -0.01    +0.086 C  
DOCKED: ATOM     29  N   UNL     1     137.100  81.544 223.829 -0.12 +0.03    -0.298 NA 
DOCKED: ATOM     30  C   UNL     1     142.744  80.891 224.024 -0.65 -0.00    +0.000 A  
DOCKED: BRANCH  29  31
DOCKED: ATOM     31  C   UNL     1     135.793  80.851 223.723 -0.15 -0.01    +0.071 C  
DOCKED: ATOM     32  C   UNL     1     135.948  79.424 223.222 -0.15 -0.00    +0.036 C  
DOCKED: ATOM     33  C   UNL     1     135.137  80.652 225.086 -0.15 -0.01    +0.100 C  
DOCKED: ATOM     34  C   UNL     1     134.849  78.635 223.921 -0.11 -0.01    +0.082 C  
DOCKED: ATOM     35  N   UNL     1     134.306  79.453 225.009 -0.06 +0.04    -0.315 NA 
DOCKED: ATOM     36  H   UNL     1     133.338  79.749 224.742 +0.02 -0.01    +0.122 HD 
DOCKED: ENDBRANCH  29  31
DOCKED: ENDBRANCH   1  18
DOCKED: TORSDOF 4
DOCKED: TER
DOCKED: ENDMDL
________________________________________________________________________________


    FINAL DOCKED STATE:
    ________________________


Run:   13 / 20
Time taken for this run:   0.047s

DOCKED: MODEL        13
DOCKED: USER    Run = 13
DOCKED: USER
DOCKED: USER    Estimated Free Energy of Binding    =  -8.27 kcal/mol  [=(1)+(2)+(3)-(4)]
DOCKED: USER
DOCKED: USER    (1) Final Intermolecular Energy     =  -9.46 kcal/mol
DOCKED: USER        vdW + Hbond + desolv Energy     =  -9.27 kcal/mol
DOCKED: USER        Electrostatic Energy            =  -0.19 kcal/mol
DOCKED: USER        Moving Ligand-Fixed Receptor    =  -9.46 kcal/mol
DOCKED: USER        Moving Ligand-Moving Receptor   =  +0.00 kcal/mol
DOCKED: USER    (2) Final Total Internal Energy     =  -1.33 kcal/mol
DOCKED: USER    (3) Torsional Free Energy           =  +1.19 kcal/mol
DOCKED: USER    (4) Unbound System's Energy         =  -1.33 kcal/mol
DOCKED: USER
DOCKED: USER
DOCKED: REMARK SMILES NC(=O)c1ccc2cc(C(=O)N3C[C@]4(CCN([C@H]5CCNC5)C4)c4ccccc43)[nH]c2c1
DOCKED: REMARK SMILES IDX 10 1 11 2 9 3 4 4 5 5 32 6 6 7 31 8 7 9 30 10 8 11 2 13 1 14
DOCKED: REMARK SMILES IDX 3 17 12 18 13 19 29 20 14 21 28 22 24 23 15 24 23 25 27 26
DOCKED: REMARK SMILES IDX 25 27 16 28 17 29 26 30 18 31 19 32 22 33 20 34 21 35
DOCKED: REMARK H PARENT 30 12 1 15 1 16 21 36
DOCKED: USER                              x       y       z     vdW  Elec       q    Type
DOCKED: USER                           _______ _______ _______ _____ _____    ______ ____
DOCKED: ROOT
DOCKED: ATOM      1  C   UNL     1     140.448  78.520 219.927 -0.08 -0.10    +0.274 C  
DOCKED: ATOM      2  O   UNL     1     140.049  78.871 218.785 -0.03 +0.10    -0.267 OA 
DOCKED: ENDROOT
DOCKED: BRANCH   1   3
DOCKED: ATOM      3  C   UNL     1     141.197  77.259 220.073 -0.19 -0.05    +0.106 A  
DOCKED: ATOM      4  C   UNL     1     144.194  73.886 220.335 -0.42 -0.01    +0.041 A  
DOCKED: ATOM      5  C   UNL     1     143.032  73.176 220.743 -0.28 -0.00    +0.014 A  
DOCKED: ATOM      6  C   UNL     1     144.085  75.259 220.003 -0.38 -0.02    +0.040 A  
DOCKED: ATOM      7  C   UNL     1     141.786  73.821 220.835 -0.28 -0.00    +0.011 A  
DOCKED: ATOM      8  C   UNL     1     142.835  75.865 220.105 -0.29 -0.03    +0.047 A  
DOCKED: ATOM      9  C   UNL     1     141.727  75.171 220.506 -0.28 -0.00    +0.000 A  
DOCKED: ATOM     10  N   UNL     1     142.527  77.146 219.839 -0.16 +0.25    -0.350 N  
DOCKED: ATOM     11  C   UNL     1     140.663  76.044 220.501 -0.20 -0.01    +0.042 A  
DOCKED: ATOM     12  H   UNL     1     143.180  77.895 219.517 -0.40 -0.17    +0.167 HD 
DOCKED: BRANCH   4  13
DOCKED: ATOM     13  C   UNL     1     145.494  73.179 220.241 -0.39 +0.00    +0.248 C  
DOCKED: ATOM     14  N   UNL     1     146.134  72.632 221.397 -0.13 +0.07    -0.366 N  
DOCKED: ATOM     15  H   UNL     1     145.651  72.578 222.320 -0.25 -0.07    +0.159 HD 
DOCKED: ATOM     16  H   UNL     1     147.076  72.191 221.309 -0.26 +0.02    +0.159 HD 
DOCKED: ATOM     17  O   UNL     1     146.049  73.040 219.116 -0.79 -0.18    -0.270 OA 
DOCKED: ENDBRANCH   4  13
DOCKED: ENDBRANCH   1   3
DOCKED: BRANCH   1  18
DOCKED: ATOM     18  N   UNL     1     140.214  79.380 221.049 -0.05 +0.09    -0.306 N  
DOCKED: ATOM     19  C   UNL     1     138.894  79.871 221.438 -0.12 -0.03    +0.139 C  
DOCKED: ATOM     20  C   UNL     1     141.179  79.845 221.981 -0.37 -0.02    +0.048 A  
DOCKED: ATOM     21  C   UNL     1     139.139  80.823 222.661 -0.29 -0.00    +0.029 C  
DOCKED: ATOM     22  C   UNL     1     142.533  79.495 222.043 -0.39 -0.01    +0.026 A  
DOCKED: ATOM     23  C   UNL     1     140.614  80.674 222.916 -0.42 +0.00    -0.015 A  
DOCKED: ATOM     24  C   UNL     1     138.742  82.258 222.356 -0.12 -0.00    +0.030 C  
DOCKED: ATOM     25  C   UNL     1     138.265  80.464 223.872 -0.34 -0.01    +0.098 C  
DOCKED: ATOM     26  C   UNL     1     143.324  80.053 223.058 -0.60 -0.00    +0.002 A  
DOCKED: ATOM     27  C   UNL     1     141.387  81.244 223.935 -0.44 -0.00    +0.006 A  
DOCKED: ATOM     28  C   UNL     1     137.276  82.295 222.737 -0.15 -0.01    +0.086 C  
DOCKED: ATOM     29  N   UNL     1     137.087  81.355 223.860 -0.13 +0.03    -0.298 NA 
DOCKED: ATOM     30  C   UNL     1     142.754  80.930 223.998 -0.65 -0.00    +0.000 A  
DOCKED: BRANCH  29  31
DOCKED: ATOM     31  C   UNL     1     135.808  80.611 223.761 -0.16 -0.01    +0.071 C  
DOCKED: ATOM     32  C   UNL     1     134.987  81.052 222.560 -0.06 -0.00    +0.036 C  
DOCKED: ATOM     33  C   UNL     1     136.027  79.127 223.484 -0.12 -0.01    +0.100 C  
DOCKED: ATOM     34  C   UNL     1     134.260  79.799 222.093 -0.03 -0.01    +0.082 C  
DOCKED: ATOM     35  N   UNL     1     134.864  78.636 222.748 -0.04 +0.04    -0.315 NA 
DOCKED: ATOM     36  H   UNL     1     134.179  78.260 223.444 +0.02 -0.01    +0.122 HD 
DOCKED: ENDBRANCH  29  31
DOCKED: ENDBRANCH   1  18
DOCKED: TORSDOF 4
DOCKED: TER
DOCKED: ENDMDL
________________________________________________________________________________


    FINAL DOCKED STATE:
    ________________________


Run:   14 / 20
Time taken for this run:   0.047s

DOCKED: MODEL        14
DOCKED: USER    Run = 14
DOCKED: USER
DOCKED: USER    Estimated Free Energy of Binding    =  -8.24 kcal/mol  [=(1)+(2)+(3)-(4)]
DOCKED: USER
DOCKED: USER    (1) Final Intermolecular Energy     =  -9.44 kcal/mol
DOCKED: USER        vdW + Hbond + desolv Energy     =  -9.25 kcal/mol
DOCKED: USER        Electrostatic Energy            =  -0.19 kcal/mol
DOCKED: USER        Moving Ligand-Fixed Receptor    =  -9.44 kcal/mol
DOCKED: USER        Moving Ligand-Moving Receptor   =  +0.00 kcal/mol
DOCKED: USER    (2) Final Total Internal Energy     =  -1.33 kcal/mol
DOCKED: USER    (3) Torsional Free Energy           =  +1.19 kcal/mol
DOCKED: USER    (4) Unbound System's Energy         =  -1.33 kcal/mol
DOCKED: USER
DOCKED: USER
DOCKED: REMARK SMILES NC(=O)c1ccc2cc(C(=O)N3C[C@]4(CCN([C@H]5CCNC5)C4)c4ccccc43)[nH]c2c1
DOCKED: REMARK SMILES IDX 10 1 11 2 9 3 4 4 5 5 32 6 6 7 31 8 7 9 30 10 8 11 2 13 1 14
DOCKED: REMARK SMILES IDX 3 17 12 18 13 19 29 20 14 21 28 22 24 23 15 24 23 25 27 26
DOCKED: REMARK SMILES IDX 25 27 16 28 17 29 26 30 18 31 19 32 22 33 20 34 21 35
DOCKED: REMARK H PARENT 30 12 1 15 1 16 21 36
DOCKED: USER                              x       y       z     vdW  Elec       q    Type
DOCKED: USER                           _______ _______ _______ _____ _____    ______ ____
DOCKED: ROOT
DOCKED: ATOM      1  C   UNL     1     140.458  78.546 219.924 -0.08 -0.10    +0.274 C  
DOCKED: ATOM      2  O   UNL     1     140.080  78.909 218.778 -0.03 +0.10    -0.267 OA 
DOCKED: ENDROOT
DOCKED: BRANCH   1   3
DOCKED: ATOM      3  C   UNL     1     141.198  77.280 220.071 -0.19 -0.05    +0.106 A  
DOCKED: ATOM      4  C   UNL     1     144.174  73.889 220.342 -0.42 -0.01    +0.041 A  
DOCKED: ATOM      5  C   UNL     1     143.006  73.185 220.744 -0.28 -0.00    +0.014 A  
DOCKED: ATOM      6  C   UNL     1     144.075  75.263 220.011 -0.39 -0.02    +0.040 A  
DOCKED: ATOM      7  C   UNL     1     141.763  73.838 220.832 -0.28 -0.00    +0.011 A  
DOCKED: ATOM      8  C   UNL     1     142.827  75.877 220.109 -0.28 -0.03    +0.047 A  
DOCKED: ATOM      9  C   UNL     1     141.714  75.188 220.505 -0.28 -0.00    +0.000 A  
DOCKED: ATOM     10  N   UNL     1     142.529  77.159 219.842 -0.16 +0.25    -0.350 N  
DOCKED: ATOM     11  C   UNL     1     140.655  76.068 220.496 -0.20 -0.01    +0.042 A  
DOCKED: ATOM     12  H   UNL     1     143.188  77.905 219.524 -0.40 -0.17    +0.167 HD 
DOCKED: BRANCH   4  13
DOCKED: ATOM     13  C   UNL     1     145.470  73.174 220.253 -0.39 -0.00    +0.248 C  
DOCKED: ATOM     14  N   UNL     1     146.114  72.644 221.414 -0.16 +0.07    -0.366 N  
DOCKED: ATOM     15  H   UNL     1     145.637  72.609 222.341 -0.22 -0.07    +0.159 HD 
DOCKED: ATOM     16  H   UNL     1     147.054  72.197 221.328 -0.27 +0.01    +0.159 HD 
DOCKED: ATOM     17  O   UNL     1     146.017  73.013 219.127 -0.80 -0.18    -0.270 OA 
DOCKED: ENDBRANCH   4  13
DOCKED: ENDBRANCH   1   3
DOCKED: BRANCH   1  18
DOCKED: ATOM     18  N   UNL     1     140.208  79.397 221.049 -0.05 +0.09    -0.306 N  
DOCKED: ATOM     19  C   UNL     1     138.881  79.875 221.430 -0.12 -0.03    +0.139 C  
DOCKED: ATOM     20  C   UNL     1     141.162  79.863 221.992 -0.37 -0.02    +0.048 A  
DOCKED: ATOM     21  C   UNL     1     139.109  80.822 222.661 -0.29 -0.00    +0.029 C  
DOCKED: ATOM     22  C   UNL     1     142.518  79.523 222.062 -0.40 -0.01    +0.026 A  
DOCKED: ATOM     23  C   UNL     1     140.583  80.683 222.927 -0.42 +0.00    -0.015 A  
DOCKED: ATOM     24  C   UNL     1     138.704  82.256 222.362 -0.12 -0.00    +0.030 C  
DOCKED: ATOM     25  C   UNL     1     138.228  80.448 223.863 -0.34 -0.01    +0.098 C  
DOCKED: ATOM     26  C   UNL     1     143.297  80.081 223.086 -0.62 -0.00    +0.002 A  
DOCKED: ATOM     27  C   UNL     1     141.344  81.252 223.955 -0.41 -0.00    +0.006 A  
DOCKED: ATOM     28  C   UNL     1     137.235  82.279 222.731 -0.14 -0.01    +0.086 C  
DOCKED: ATOM     29  N   UNL     1     137.044  81.331 223.847 -0.12 +0.03    -0.298 NA 
DOCKED: ATOM     30  C   UNL     1     142.713  80.948 224.027 -0.64 -0.00    +0.000 A  
DOCKED: BRANCH  29  31
DOCKED: ATOM     31  C   UNL     1     135.772  80.578 223.734 -0.15 -0.01    +0.071 C  
DOCKED: ATOM     32  C   UNL     1     134.988  80.973 222.491 -0.05 -0.00    +0.036 C  
DOCKED: ATOM     33  C   UNL     1     136.005  79.086 223.516 -0.11 -0.01    +0.100 C  
DOCKED: ATOM     34  C   UNL     1     134.281  79.700 222.046 -0.03 -0.01    +0.082 C  
DOCKED: ATOM     35  N   UNL     1     134.868  78.564 222.760 -0.04 +0.04    -0.315 NA 
DOCKED: ATOM     36  H   UNL     1     134.162  78.210 223.447 +0.02 -0.01    +0.122 HD 
DOCKED: ENDBRANCH  29  31
DOCKED: ENDBRANCH   1  18
DOCKED: TORSDOF 4
DOCKED: TER
DOCKED: ENDMDL
________________________________________________________________________________


    FINAL DOCKED STATE:
    ________________________


Run:   15 / 20
Time taken for this run:   0.047s

DOCKED: MODEL        15
DOCKED: USER    Run = 15
DOCKED: USER
DOCKED: USER    Estimated Free Energy of Binding    =  -8.61 kcal/mol  [=(1)+(2)+(3)-(4)]
DOCKED: USER
DOCKED: USER    (1) Final Intermolecular Energy     =  -9.80 kcal/mol
DOCKED: USER        vdW + Hbond + desolv Energy     =  -9.47 kcal/mol
DOCKED: USER        Electrostatic Energy            =  -0.33 kcal/mol
DOCKED: USER        Moving Ligand-Fixed Receptor    =  -9.80 kcal/mol
DOCKED: USER        Moving Ligand-Moving Receptor   =  +0.00 kcal/mol
DOCKED: USER    (2) Final Total Internal Energy     =  -1.03 kcal/mol
DOCKED: USER    (3) Torsional Free Energy           =  +1.19 kcal/mol
DOCKED: USER    (4) Unbound System's Energy         =  -1.03 kcal/mol
DOCKED: USER
DOCKED: USER
DOCKED: REMARK SMILES NC(=O)c1ccc2cc(C(=O)N3C[C@]4(CCN([C@H]5CCNC5)C4)c4ccccc43)[nH]c2c1
DOCKED: REMARK SMILES IDX 10 1 11 2 9 3 4 4 5 5 32 6 6 7 31 8 7 9 30 10 8 11 2 13 1 14
DOCKED: REMARK SMILES IDX 3 17 12 18 13 19 29 20 14 21 28 22 24 23 15 24 23 25 27 26
DOCKED: REMARK SMILES IDX 25 27 16 28 17 29 26 30 18 31 19 32 22 33 20 34 21 35
DOCKED: REMARK H PARENT 30 12 1 15 1 16 21 36
DOCKED: USER                              x       y       z     vdW  Elec       q    Type
DOCKED: USER                           _______ _______ _______ _____ _____    ______ ____
DOCKED: ROOT
DOCKED: ATOM      1  C   UNL     1     138.235  74.619 221.698 -0.12 -0.07    +0.274 C  
DOCKED: ATOM      2  O   UNL     1     136.996  74.515 221.494 -0.07 +0.06    -0.267 OA 
DOCKED: ENDROOT
DOCKED: BRANCH   1   3
DOCKED: ATOM      3  C   UNL     1     138.788  75.912 222.136 -0.26 -0.02    +0.106 A  
DOCKED: ATOM      4  C   UNL     1     141.252  79.541 223.226 -0.51 -0.01    +0.041 A  
DOCKED: ATOM      5  C   UNL     1     139.960  80.064 223.506 -0.43 -0.00    +0.014 A  
DOCKED: ATOM      6  C   UNL     1     141.373  78.211 222.757 -0.47 -0.02    +0.040 A  
DOCKED: ATOM      7  C   UNL     1     138.806  79.285 223.309 -0.34 -0.00    +0.011 A  
DOCKED: ATOM      8  C   UNL     1     140.209  77.467 222.573 -0.35 -0.01    +0.047 A  
DOCKED: ATOM      9  C   UNL     1     138.972  77.986 222.840 -0.28 -0.00    +0.000 A  
DOCKED: ATOM     10  N   UNL     1     140.112  76.199 222.139 -0.20 +0.08    -0.350 N  
DOCKED: ATOM     11  C   UNL     1     138.041  77.011 222.561 -0.27 -0.01    +0.042 A  
DOCKED: ATOM     12  H   UNL     1     140.898  75.568 221.863 +0.02 -0.04    +0.167 HD 
DOCKED: BRANCH   4  13
DOCKED: ATOM     13  C   UNL     1     142.451  80.384 223.449 -0.47 -0.06    +0.248 C  
DOCKED: ATOM     14  N   UNL     1     143.689  80.116 222.785 -0.21 +0.14    -0.366 N  
DOCKED: ATOM     15  H   UNL     1     143.760  79.417 222.015 -0.50 -0.14    +0.159 HD 
DOCKED: ATOM     16  H   UNL     1     144.532  80.691 223.006 +0.06 -0.04    +0.159 HD 
DOCKED: ATOM     17  O   UNL     1     142.383  81.372 224.231 -0.45 +0.03    -0.270 OA 
DOCKED: ENDBRANCH   4  13
DOCKED: ENDBRANCH   1   3
DOCKED: BRANCH   1  18
DOCKED: ATOM     18  N   UNL     1     139.070  73.464 221.553 -0.11 +0.07    -0.306 N  
DOCKED: ATOM     19  C   UNL     1     140.271  73.426 220.723 -0.15 -0.02    +0.139 C  
DOCKED: ATOM     20  C   UNL     1     138.916  72.214 222.211 -0.21 -0.01    +0.048 A  
DOCKED: ATOM     21  C   UNL     1     140.805  71.953 220.816 -0.17 -0.00    +0.029 C  
DOCKED: ATOM     22  C   UNL     1     137.972  71.885 223.190 -0.11 -0.01    +0.026 A  
DOCKED: ATOM     23  C   UNL     1     139.880  71.320 221.819 -0.20 +0.00    -0.015 A  
DOCKED: ATOM     24  C   UNL     1     140.777  71.247 219.470 -0.07 -0.00    +0.030 C  
DOCKED: ATOM     25  C   UNL     1     142.286  71.887 221.218 -0.15 -0.01    +0.098 C  
DOCKED: ATOM     26  C   UNL     1     137.995  70.592 223.734 -0.26 -0.00    +0.002 A  
DOCKED: ATOM     27  C   UNL     1     139.917  70.024 222.348 -0.07 -0.00    +0.006 A  
DOCKED: ATOM     28  C   UNL     1     142.122  71.601 218.871 -0.06 -0.01    +0.086 C  
DOCKED: ATOM     29  N   UNL     1     143.083  71.727 219.985 -0.08 +0.03    -0.298 NA 
DOCKED: ATOM     30  C   UNL     1     138.961  69.662 223.310 -0.25 -0.00    +0.000 A  
DOCKED: BRANCH  29  31
DOCKED: ATOM     31  C   UNL     1     144.044  72.837 219.777 -0.28 -0.01    +0.071 C  
DOCKED: ATOM     32  C   UNL     1     144.867  73.115 221.025 -0.45 -0.01    +0.036 C  
DOCKED: ATOM     33  C   UNL     1     145.113  72.486 218.748 -0.23 +0.03    +0.100 C  
DOCKED: ATOM     34  C   UNL     1     146.230  73.558 220.512 -0.56 +0.00    +0.082 C  
DOCKED: ATOM     35  N   UNL     1     146.319  73.240 219.085 -0.64 -0.24    -0.315 NA 
DOCKED: ATOM     36  H   UNL     1     146.297  74.138 218.548 -0.53 -0.02    +0.122 HD 
DOCKED: ENDBRANCH  29  31
DOCKED: ENDBRANCH   1  18
DOCKED: TORSDOF 4
DOCKED: TER
DOCKED: ENDMDL
________________________________________________________________________________


    FINAL DOCKED STATE:
    ________________________


Run:   16 / 20
Time taken for this run:   0.047s

DOCKED: MODEL        16
DOCKED: USER    Run = 16
DOCKED: USER
DOCKED: USER    Estimated Free Energy of Binding    =  -8.60 kcal/mol  [=(1)+(2)+(3)-(4)]
DOCKED: USER
DOCKED: USER    (1) Final Intermolecular Energy     =  -9.79 kcal/mol
DOCKED: USER        vdW + Hbond + desolv Energy     =  -9.46 kcal/mol
DOCKED: USER        Electrostatic Energy            =  -0.33 kcal/mol
DOCKED: USER        Moving Ligand-Fixed Receptor    =  -9.79 kcal/mol
DOCKED: USER        Moving Ligand-Moving Receptor   =  +0.00 kcal/mol
DOCKED: USER    (2) Final Total Internal Energy     =  -1.03 kcal/mol
DOCKED: USER    (3) Torsional Free Energy           =  +1.19 kcal/mol
DOCKED: USER    (4) Unbound System's Energy         =  -1.03 kcal/mol
DOCKED: USER
DOCKED: USER
DOCKED: REMARK SMILES NC(=O)c1ccc2cc(C(=O)N3C[C@]4(CCN([C@H]5CCNC5)C4)c4ccccc43)[nH]c2c1
DOCKED: REMARK SMILES IDX 10 1 11 2 9 3 4 4 5 5 32 6 6 7 31 8 7 9 30 10 8 11 2 13 1 14
DOCKED: REMARK SMILES IDX 3 17 12 18 13 19 29 20 14 21 28 22 24 23 15 24 23 25 27 26
DOCKED: REMARK SMILES IDX 25 27 16 28 17 29 26 30 18 31 19 32 22 33 20 34 21 35
DOCKED: REMARK H PARENT 30 12 1 15 1 16 21 36
DOCKED: USER                              x       y       z     vdW  Elec       q    Type
DOCKED: USER                           _______ _______ _______ _____ _____    ______ ____
DOCKED: ROOT
DOCKED: ATOM      1  C   UNL     1     138.210  74.693 221.626 -0.13 -0.07    +0.274 C  
DOCKED: ATOM      2  O   UNL     1     136.973  74.609 221.401 -0.07 +0.06    -0.267 OA 
DOCKED: ENDROOT
DOCKED: BRANCH   1   3
DOCKED: ATOM      3  C   UNL     1     138.775  75.975 222.080 -0.26 -0.02    +0.106 A  
DOCKED: ATOM      4  C   UNL     1     141.271  79.571 223.205 -0.51 -0.01    +0.041 A  
DOCKED: ATOM      5  C   UNL     1     139.986  80.095 223.510 -0.44 -0.00    +0.014 A  
DOCKED: ATOM      6  C   UNL     1     141.380  78.248 222.711 -0.47 -0.02    +0.040 A  
DOCKED: ATOM      7  C   UNL     1     138.826  79.326 223.313 -0.34 -0.00    +0.011 A  
DOCKED: ATOM      8  C   UNL     1     140.209  77.514 222.528 -0.36 -0.01    +0.047 A  
DOCKED: ATOM      9  C   UNL     1     138.979  78.035 222.819 -0.29 -0.00    +0.000 A  
DOCKED: ATOM     10  N   UNL     1     140.101  76.254 222.072 -0.19 +0.08    -0.350 N  
DOCKED: ATOM     11  C   UNL     1     138.039  77.069 222.534 -0.27 -0.01    +0.042 A  
DOCKED: ATOM     12  H   UNL     1     140.880  75.625 221.776 +0.03 -0.04    +0.167 HD 
DOCKED: BRANCH   4  13
DOCKED: ATOM     13  C   UNL     1     142.478  80.403 223.429 -0.47 -0.06    +0.248 C  
DOCKED: ATOM     14  N   UNL     1     143.711  80.130 222.758 -0.20 +0.14    -0.366 N  
DOCKED: ATOM     15  H   UNL     1     143.774  79.435 221.983 -0.50 -0.15    +0.159 HD 
DOCKED: ATOM     16  H   UNL     1     144.559  80.697 222.979 +0.06 -0.04    +0.159 HD 
DOCKED: ATOM     17  O   UNL     1     142.420  81.386 224.218 -0.46 +0.03    -0.270 OA 
DOCKED: ENDBRANCH   4  13
DOCKED: ENDBRANCH   1   3
DOCKED: BRANCH   1  18
DOCKED: ATOM     18  N   UNL     1     139.029  73.525 221.488 -0.10 +0.07    -0.306 N  
DOCKED: ATOM     19  C   UNL     1     140.244  73.474 220.679 -0.14 -0.03    +0.139 C  
DOCKED: ATOM     20  C   UNL     1     138.845  72.275 222.135 -0.20 -0.01    +0.048 A  
DOCKED: ATOM     21  C   UNL     1     140.754  71.992 220.772 -0.17 -0.00    +0.029 C  
DOCKED: ATOM     22  C   UNL     1     137.879  71.954 223.095 -0.11 -0.01    +0.026 A  
DOCKED: ATOM     23  C   UNL     1     139.801  71.368 221.754 -0.20 +0.00    -0.015 A  
DOCKED: ATOM     24  C   UNL     1     140.738  71.296 219.421 -0.07 -0.01    +0.030 C  
DOCKED: ATOM     25  C   UNL     1     142.226  71.902 221.200 -0.16 -0.01    +0.098 C  
DOCKED: ATOM     26  C   UNL     1     137.872  70.658 223.632 -0.25 -0.00    +0.002 A  
DOCKED: ATOM     27  C   UNL     1     139.809  70.069 222.276 -0.12 -0.00    +0.006 A  
DOCKED: ATOM     28  C   UNL     1     142.099  71.632 218.848 -0.06 -0.01    +0.086 C  
DOCKED: ATOM     29  N   UNL     1     143.042  71.737 219.979 -0.08 +0.03    -0.298 NA 
DOCKED: ATOM     30  C   UNL     1     138.831  69.715 223.219 -0.24 -0.00    +0.000 A  
DOCKED: BRANCH  29  31
DOCKED: ATOM     31  C   UNL     1     144.023  72.833 219.795 -0.28 -0.01    +0.071 C  
DOCKED: ATOM     32  C   UNL     1     144.836  73.083 221.056 -0.44 -0.01    +0.036 C  
DOCKED: ATOM     33  C   UNL     1     145.099  72.476 218.775 -0.23 +0.03    +0.100 C  
DOCKED: ATOM     34  C   UNL     1     146.212  73.509 220.564 -0.57 +0.00    +0.082 C  
DOCKED: ATOM     35  N   UNL     1     146.313  73.206 219.134 -0.64 -0.24    -0.315 NA 
DOCKED: ATOM     36  H   UNL     1     146.312  74.111 218.607 -0.53 -0.01    +0.122 HD 
DOCKED: ENDBRANCH  29  31
DOCKED: ENDBRANCH   1  18
DOCKED: TORSDOF 4
DOCKED: TER
DOCKED: ENDMDL
________________________________________________________________________________


    FINAL DOCKED STATE:
    ________________________


Run:   17 / 20
Time taken for this run:   0.047s

DOCKED: MODEL        17
DOCKED: USER    Run = 17
DOCKED: USER
DOCKED: USER    Estimated Free Energy of Binding    =  -9.17 kcal/mol  [=(1)+(2)+(3)-(4)]
DOCKED: USER
DOCKED: USER    (1) Final Intermolecular Energy     = -10.36 kcal/mol
DOCKED: USER        vdW + Hbond + desolv Energy     = -10.20 kcal/mol
DOCKED: USER        Electrostatic Energy            =  -0.16 kcal/mol
DOCKED: USER        Moving Ligand-Fixed Receptor    = -10.36 kcal/mol
DOCKED: USER        Moving Ligand-Moving Receptor   =  +0.00 kcal/mol
DOCKED: USER    (2) Final Total Internal Energy     =  -1.10 kcal/mol
DOCKED: USER    (3) Torsional Free Energy           =  +1.19 kcal/mol
DOCKED: USER    (4) Unbound System's Energy         =  -1.10 kcal/mol
DOCKED: USER
DOCKED: USER
DOCKED: REMARK SMILES NC(=O)c1ccc2cc(C(=O)N3C[C@]4(CCN([C@H]5CCNC5)C4)c4ccccc43)[nH]c2c1
DOCKED: REMARK SMILES IDX 10 1 11 2 9 3 4 4 5 5 32 6 6 7 31 8 7 9 30 10 8 11 2 13 1 14
DOCKED: REMARK SMILES IDX 3 17 12 18 13 19 29 20 14 21 28 22 24 23 15 24 23 25 27 26
DOCKED: REMARK SMILES IDX 25 27 16 28 17 29 26 30 18 31 19 32 22 33 20 34 21 35
DOCKED: REMARK H PARENT 30 12 1 15 1 16 21 36
DOCKED: USER                              x       y       z     vdW  Elec       q    Type
DOCKED: USER                           _______ _______ _______ _____ _____    ______ ____
DOCKED: ROOT
DOCKED: ATOM      1  C   UNL     1     140.436  73.608 221.936 -0.14 -0.02    +0.274 C  
DOCKED: ATOM      2  O   UNL     1     139.587  74.528 222.078 -0.70 +0.04    -0.267 OA 
DOCKED: ENDROOT
DOCKED: BRANCH   1   3
DOCKED: ATOM      3  C   UNL     1     140.178  72.289 222.539 -0.29 -0.01    +0.106 A  
DOCKED: ATOM      4  C   UNL     1     139.714  68.605 225.116 -0.36 -0.01    +0.041 A  
DOCKED: ATOM      5  C   UNL     1     139.085  68.124 223.935 -0.25 -0.00    +0.014 A  
DOCKED: ATOM      6  C   UNL     1     140.239  69.920 225.134 -0.41 -0.01    +0.040 A  
DOCKED: ATOM      7  C   UNL     1     138.965  68.940 222.796 -0.21 -0.00    +0.011 A  
DOCKED: ATOM      8  C   UNL     1     140.102  70.701 223.988 -0.34 -0.01    +0.047 A  
DOCKED: ATOM      9  C   UNL     1     139.488  70.227 222.862 -0.23 -0.00    +0.000 A  
DOCKED: ATOM     10  N   UNL     1     140.528  71.963 223.807 -0.17 +0.04    -0.350 N  
DOCKED: ATOM     11  C   UNL     1     139.517  71.230 221.918 -0.19 -0.01    +0.042 A  
DOCKED: ATOM     12  H   UNL     1     141.025  72.564 224.502 +0.08 -0.01    +0.167 HD 
DOCKED: BRANCH   4  13
DOCKED: ATOM     13  C   UNL     1     139.832  67.719 226.300 -0.45 -0.04    +0.248 C  
DOCKED: ATOM     14  N   UNL     1     141.025  67.677 227.088 -0.29 +0.10    -0.366 N  
DOCKED: ATOM     15  H   UNL     1     141.798  68.365 226.954 +0.02 -0.04    +0.159 HD 
DOCKED: ATOM     16  H   UNL     1     141.100  67.002 227.881 -0.35 -0.07    +0.159 HD 
DOCKED: ATOM     17  O   UNL     1     138.856  66.993 226.635 -0.66 +0.00    -0.270 OA 
DOCKED: ENDBRANCH   4  13
DOCKED: ENDBRANCH   1   3
DOCKED: BRANCH   1  18
DOCKED: ATOM     18  N   UNL     1     141.607  73.848 221.146 -0.15 +0.05    -0.306 N  
DOCKED: ATOM     19  C   UNL     1     142.614  72.831 220.853 -0.20 -0.02    +0.139 C  
DOCKED: ATOM     20  C   UNL     1     141.955  75.055 220.485 -0.28 -0.02    +0.048 A  
DOCKED: ATOM     21  C   UNL     1     143.731  73.565 220.030 -0.34 -0.01    +0.029 C  
DOCKED: ATOM     22  C   UNL     1     141.191  76.225 220.402 -0.24 -0.01    +0.026 A  
DOCKED: ATOM     23  C   UNL     1     143.160  74.944 219.839 -0.35 +0.01    -0.015 A  
DOCKED: ATOM     24  C   UNL     1     145.063  73.582 220.761 -0.56 -0.01    +0.030 C  
DOCKED: ATOM     25  C   UNL     1     144.060  72.847 218.712 -0.16 -0.01    +0.098 C  
DOCKED: ATOM     26  C   UNL     1     141.706  77.313 219.683 -0.27 -0.00    +0.002 A  
DOCKED: ATOM     27  C   UNL     1     143.693  76.019 219.118 -0.34 -0.00    +0.006 A  
DOCKED: ATOM     28  C   UNL     1     145.713  72.288 220.317 -0.29 +0.01    +0.086 C  
DOCKED: ATOM     29  N   UNL     1     145.261  72.017 218.938 -0.34 -0.13    -0.298 NA 
DOCKED: ATOM     30  C   UNL     1     142.957  77.213 219.047 -0.34 -0.00    +0.000 A  
DOCKED: BRANCH  29  31
DOCKED: ATOM     31  C   UNL     1     145.011  70.575 218.700 -0.22 +0.02    +0.071 C  
DOCKED: ATOM     32  C   UNL     1     146.294  69.760 218.764 -0.30 +0.03    +0.036 C  
DOCKED: ATOM     33  C   UNL     1     144.168  69.948 219.806 -0.16 +0.01    +0.100 C  
DOCKED: ATOM     34  C   UNL     1     145.882  68.413 219.342 -0.42 +0.02    +0.082 C  
DOCKED: ATOM     35  N   UNL     1     144.532  68.536 219.896 -0.39 -0.04    -0.315 NA 
DOCKED: ATOM     36  H   UNL     1     143.876  67.996 219.284 +0.05 -0.02    +0.122 HD 
DOCKED: ENDBRANCH  29  31
DOCKED: ENDBRANCH   1  18
DOCKED: TORSDOF 4
DOCKED: TER
DOCKED: ENDMDL
________________________________________________________________________________


    FINAL DOCKED STATE:
    ________________________


Run:   18 / 20
Time taken for this run:   0.047s

DOCKED: MODEL        18
DOCKED: USER    Run = 18
DOCKED: USER
DOCKED: USER    Estimated Free Energy of Binding    =  -8.71 kcal/mol  [=(1)+(2)+(3)-(4)]
DOCKED: USER
DOCKED: USER    (1) Final Intermolecular Energy     =  -9.91 kcal/mol
DOCKED: USER        vdW + Hbond + desolv Energy     =  -9.71 kcal/mol
DOCKED: USER        Electrostatic Energy            =  -0.20 kcal/mol
DOCKED: USER        Moving Ligand-Fixed Receptor    =  -9.91 kcal/mol
DOCKED: USER        Moving Ligand-Moving Receptor   =  +0.00 kcal/mol
DOCKED: USER    (2) Final Total Internal Energy     =  -1.10 kcal/mol
DOCKED: USER    (3) Torsional Free Energy           =  +1.19 kcal/mol
DOCKED: USER    (4) Unbound System's Energy         =  -1.10 kcal/mol
DOCKED: USER
DOCKED: USER
DOCKED: REMARK SMILES NC(=O)c1ccc2cc(C(=O)N3C[C@]4(CCN([C@H]5CCNC5)C4)c4ccccc43)[nH]c2c1
DOCKED: REMARK SMILES IDX 10 1 11 2 9 3 4 4 5 5 32 6 6 7 31 8 7 9 30 10 8 11 2 13 1 14
DOCKED: REMARK SMILES IDX 3 17 12 18 13 19 29 20 14 21 28 22 24 23 15 24 23 25 27 26
DOCKED: REMARK SMILES IDX 25 27 16 28 17 29 26 30 18 31 19 32 22 33 20 34 21 35
DOCKED: REMARK H PARENT 30 12 1 15 1 16 21 36
DOCKED: USER                              x       y       z     vdW  Elec       q    Type
DOCKED: USER                           _______ _______ _______ _____ _____    ______ ____
DOCKED: ROOT
DOCKED: ATOM      1  C   UNL     1     139.523  76.855 222.122 -0.22 -0.06    +0.274 C  
DOCKED: ATOM      2  O   UNL     1     138.515  76.131 222.342 -0.23 +0.06    -0.267 OA 
DOCKED: ENDROOT
DOCKED: BRANCH   1   3
DOCKED: ATOM      3  C   UNL     1     140.653  76.303 221.355 -0.28 -0.03    +0.106 A  
DOCKED: ATOM      4  C   UNL     1     144.186  74.045 219.667 -0.35 -0.01    +0.041 A  
DOCKED: ATOM      5  C   UNL     1     143.942  74.917 218.571 -0.14 -0.01    +0.014 A  
DOCKED: ATOM      6  C   UNL     1     143.364  74.133 220.817 -0.28 -0.01    +0.040 A  
DOCKED: ATOM      7  C   UNL     1     142.890  75.850 218.609 -0.27 -0.01    +0.011 A  
DOCKED: ATOM      8  C   UNL     1     142.331  75.069 220.821 -0.23 -0.02    +0.047 A  
DOCKED: ATOM      9  C   UNL     1     142.104  75.895 219.755 -0.28 -0.00    +0.000 A  
DOCKED: ATOM     10  N   UNL     1     141.449  75.304 221.807 -0.12 +0.09    -0.350 N  
DOCKED: ATOM     11  C   UNL     1     141.027  76.694 220.070 -0.19 -0.02    +0.042 A  
DOCKED: ATOM     12  H   UNL     1     141.393  74.816 222.729 +0.08 +0.04    +0.167 HD 
DOCKED: BRANCH   4  13
DOCKED: ATOM     13  C   UNL     1     145.306  73.075 219.601 -0.29 +0.03    +0.248 C  
DOCKED: ATOM     14  N   UNL     1     145.668  72.272 220.727 -0.03 +0.03    -0.366 N  
DOCKED: ATOM     15  H   UNL     1     145.077  72.228 221.585 -0.37 -0.07    +0.159 HD 
DOCKED: ATOM     16  H   UNL     1     146.498  71.641 220.670 -0.43 +0.02    +0.159 HD 
DOCKED: ATOM     17  O   UNL     1     145.951  72.940 218.525 -0.78 -0.22    -0.270 OA 
DOCKED: ENDBRANCH   4  13
DOCKED: ENDBRANCH   1   3
DOCKED: BRANCH   1  18
DOCKED: ATOM     18  N   UNL     1     139.525  78.214 222.575 -0.15 +0.06    -0.306 N  
DOCKED: ATOM     19  C   UNL     1     138.316  78.963 222.911 -0.22 -0.02    +0.139 C  
DOCKED: ATOM     20  C   UNL     1     140.663  79.027 222.823 -0.41 -0.01    +0.048 A  
DOCKED: ATOM     21  C   UNL     1     138.802  80.409 223.279 -0.35 -0.00    +0.029 C  
DOCKED: ATOM     22  C   UNL     1     142.007  78.643 222.755 -0.41 -0.01    +0.026 A  
DOCKED: ATOM     23  C   UNL     1     140.300  80.288 223.222 -0.43 +0.00    -0.015 A  
DOCKED: ATOM     24  C   UNL     1     138.265  81.456 222.317 -0.19 -0.00    +0.030 C  
DOCKED: ATOM     25  C   UNL     1     138.274  80.878 224.643 -0.28 -0.01    +0.098 C  
DOCKED: ATOM     26  C   UNL     1     142.992  79.595 223.056 -0.56 -0.00    +0.002 A  
DOCKED: ATOM     27  C   UNL     1     141.268  81.254 223.524 -0.50 -0.00    +0.006 A  
DOCKED: ATOM     28  C   UNL     1     136.938  81.841 222.938 -0.14 -0.01    +0.086 C  
DOCKED: ATOM     29  N   UNL     1     137.082  81.718 224.402 -0.15 +0.03    -0.298 NA 
DOCKED: ATOM     30  C   UNL     1     142.624  80.900 223.434 -0.64 -0.00    +0.000 A  
DOCKED: BRANCH  29  31
DOCKED: ATOM     31  C   UNL     1     135.861  81.174 225.044 -0.23 -0.01    +0.071 C  
DOCKED: ATOM     32  C   UNL     1     135.916  81.297 226.559 -0.33 -0.01    +0.036 C  
DOCKED: ATOM     33  C   UNL     1     134.618  81.986 224.693 -0.09 -0.01    +0.100 C  
DOCKED: ATOM     34  C   UNL     1     134.476  81.533 226.992 -0.20 -0.01    +0.082 C  
DOCKED: ATOM     35  N   UNL     1     133.681  81.868 225.808 -0.01 +0.03    -0.315 NA 
DOCKED: ATOM     36  H   UNL     1     133.041  81.064 225.606 +0.02 -0.01    +0.122 HD 
DOCKED: ENDBRANCH  29  31
DOCKED: ENDBRANCH   1  18
DOCKED: TORSDOF 4
DOCKED: TER
DOCKED: ENDMDL
________________________________________________________________________________


    FINAL DOCKED STATE:
    ________________________


Run:   19 / 20
Time taken for this run:   0.047s

DOCKED: MODEL        19
DOCKED: USER    Run = 19
DOCKED: USER
DOCKED: USER    Estimated Free Energy of Binding    =  -9.18 kcal/mol  [=(1)+(2)+(3)-(4)]
DOCKED: USER
DOCKED: USER    (1) Final Intermolecular Energy     = -10.37 kcal/mol
DOCKED: USER        vdW + Hbond + desolv Energy     = -10.19 kcal/mol
DOCKED: USER        Electrostatic Energy            =  -0.18 kcal/mol
DOCKED: USER        Moving Ligand-Fixed Receptor    = -10.37 kcal/mol
DOCKED: USER        Moving Ligand-Moving Receptor   =  +0.00 kcal/mol
DOCKED: USER    (2) Final Total Internal Energy     =  -1.11 kcal/mol
DOCKED: USER    (3) Torsional Free Energy           =  +1.19 kcal/mol
DOCKED: USER    (4) Unbound System's Energy         =  -1.11 kcal/mol
DOCKED: USER
DOCKED: USER
DOCKED: REMARK SMILES NC(=O)c1ccc2cc(C(=O)N3C[C@]4(CCN([C@H]5CCNC5)C4)c4ccccc43)[nH]c2c1
DOCKED: REMARK SMILES IDX 10 1 11 2 9 3 4 4 5 5 32 6 6 7 31 8 7 9 30 10 8 11 2 13 1 14
DOCKED: REMARK SMILES IDX 3 17 12 18 13 19 29 20 14 21 28 22 24 23 15 24 23 25 27 26
DOCKED: REMARK SMILES IDX 25 27 16 28 17 29 26 30 18 31 19 32 22 33 20 34 21 35
DOCKED: REMARK H PARENT 30 12 1 15 1 16 21 36
DOCKED: USER                              x       y       z     vdW  Elec       q    Type
DOCKED: USER                           _______ _______ _______ _____ _____    ______ ____
DOCKED: ROOT
DOCKED: ATOM      1  C   UNL     1     140.598  73.688 221.962 -0.10 -0.01    +0.274 C  
DOCKED: ATOM      2  O   UNL     1     139.802  74.640 222.181 -0.75 +0.03    -0.267 OA 
DOCKED: ENDROOT
DOCKED: BRANCH   1   3
DOCKED: ATOM      3  C   UNL     1     140.309  72.361 222.534 -0.29 -0.01    +0.106 A  
DOCKED: ATOM      4  C   UNL     1     139.744  68.634 225.028 -0.32 -0.01    +0.041 A  
DOCKED: ATOM      5  C   UNL     1     139.132  68.186 223.826 -0.22 -0.00    +0.014 A  
DOCKED: ATOM      6  C   UNL     1     140.287  69.941 225.083 -0.41 -0.01    +0.040 A  
DOCKED: ATOM      7  C   UNL     1     139.045  69.026 222.702 -0.20 -0.00    +0.011 A  
DOCKED: ATOM      8  C   UNL     1     140.183  70.747 223.950 -0.34 -0.01    +0.047 A  
DOCKED: ATOM      9  C   UNL     1     139.584  70.304 222.803 -0.23 -0.00    +0.000 A  
DOCKED: ATOM     10  N   UNL     1     140.630  72.005 223.802 -0.14 +0.03    -0.350 N  
DOCKED: ATOM     11  C   UNL     1     139.646  71.324 221.880 -0.19 -0.01    +0.042 A  
DOCKED: ATOM     12  H   UNL     1     141.122  72.585 224.518 +0.10 -0.00    +0.167 HD 
DOCKED: BRANCH   4  13
DOCKED: ATOM     13  C   UNL     1     139.827  67.724 226.196 -0.44 -0.04    +0.248 C  
DOCKED: ATOM     14  N   UNL     1     141.011  67.632 226.992 -0.29 +0.10    -0.366 N  
DOCKED: ATOM     15  H   UNL     1     141.806  68.298 226.876 +0.02 -0.04    +0.159 HD 
DOCKED: ATOM     16  H   UNL     1     141.060  66.940 227.772 -0.37 -0.07    +0.159 HD 
DOCKED: ATOM     17  O   UNL     1     138.827  67.021 226.511 -0.72 -0.01    -0.270 OA 
DOCKED: ENDBRANCH   4  13
DOCKED: ENDBRANCH   1   3
DOCKED: BRANCH   1  18
DOCKED: ATOM     18  N   UNL     1     141.735  73.902 221.117 -0.15 +0.05    -0.306 N  
DOCKED: ATOM     19  C   UNL     1     142.734  72.878 220.820 -0.20 -0.02    +0.139 C  
DOCKED: ATOM     20  C   UNL     1     142.052  75.086 220.401 -0.27 -0.02    +0.048 A  
DOCKED: ATOM     21  C   UNL     1     143.814  73.585 219.927 -0.34 -0.01    +0.029 C  
DOCKED: ATOM     22  C   UNL     1     141.281  76.250 220.308 -0.24 -0.01    +0.026 A  
DOCKED: ATOM     23  C   UNL     1     143.230  74.954 219.711 -0.35 +0.01    -0.015 A  
DOCKED: ATOM     24  C   UNL     1     145.174  73.631 220.604 -0.57 -0.01    +0.030 C  
DOCKED: ATOM     25  C   UNL     1     144.092  72.821 218.624 -0.15 -0.00    +0.098 C  
DOCKED: ATOM     26  C   UNL     1     141.762  77.313 219.529 -0.26 -0.00    +0.002 A  
DOCKED: ATOM     27  C   UNL     1     143.729  76.005 218.931 -0.25 -0.00    +0.006 A  
DOCKED: ATOM     28  C   UNL     1     145.811  72.323 220.179 -0.34 +0.02    +0.086 C  
DOCKED: ATOM     29  N   UNL     1     145.305  72.003 218.830 -0.37 -0.14    -0.298 NA 
DOCKED: ATOM     30  C   UNL     1     142.987  77.193 218.848 -0.35 -0.00    +0.000 A  
DOCKED: BRANCH  29  31
DOCKED: ATOM     31  C   UNL     1     145.051  70.552 218.654 -0.22 +0.02    +0.071 C  
DOCKED: ATOM     32  C   UNL     1     146.334  69.739 218.734 -0.29 +0.03    +0.036 C  
DOCKED: ATOM     33  C   UNL     1     144.222  69.971 219.796 -0.15 +0.01    +0.100 C  
DOCKED: ATOM     34  C   UNL     1     145.929  68.417 219.371 -0.41 +0.02    +0.082 C  
DOCKED: ATOM     35  N   UNL     1     144.586  68.563 219.938 -0.42 -0.05    -0.315 NA 
DOCKED: ATOM     36  H   UNL     1     143.923  68.000 219.356 +0.05 -0.02    +0.122 HD 
DOCKED: ENDBRANCH  29  31
DOCKED: ENDBRANCH   1  18
DOCKED: TORSDOF 4
DOCKED: TER
DOCKED: ENDMDL
________________________________________________________________________________


    FINAL DOCKED STATE:
    ________________________


Run:   20 / 20
Time taken for this run:   0.047s

DOCKED: MODEL        20
DOCKED: USER    Run = 20
DOCKED: USER
DOCKED: USER    Estimated Free Energy of Binding    =  -8.62 kcal/mol  [=(1)+(2)+(3)-(4)]
DOCKED: USER
DOCKED: USER    (1) Final Intermolecular Energy     =  -9.81 kcal/mol
DOCKED: USER        vdW + Hbond + desolv Energy     =  -9.66 kcal/mol
DOCKED: USER        Electrostatic Energy            =  -0.15 kcal/mol
DOCKED: USER        Moving Ligand-Fixed Receptor    =  -9.81 kcal/mol
DOCKED: USER        Moving Ligand-Moving Receptor   =  +0.00 kcal/mol
DOCKED: USER    (2) Final Total Internal Energy     =  -1.20 kcal/mol
DOCKED: USER    (3) Torsional Free Energy           =  +1.19 kcal/mol
DOCKED: USER    (4) Unbound System's Energy         =  -1.20 kcal/mol
DOCKED: USER
DOCKED: USER
DOCKED: REMARK SMILES NC(=O)c1ccc2cc(C(=O)N3C[C@]4(CCN([C@H]5CCNC5)C4)c4ccccc43)[nH]c2c1
DOCKED: REMARK SMILES IDX 10 1 11 2 9 3 4 4 5 5 32 6 6 7 31 8 7 9 30 10 8 11 2 13 1 14
DOCKED: REMARK SMILES IDX 3 17 12 18 13 19 29 20 14 21 28 22 24 23 15 24 23 25 27 26
DOCKED: REMARK SMILES IDX 25 27 16 28 17 29 26 30 18 31 19 32 22 33 20 34 21 35
DOCKED: REMARK H PARENT 30 12 1 15 1 16 21 36
DOCKED: USER                              x       y       z     vdW  Elec       q    Type
DOCKED: USER                           _______ _______ _______ _____ _____    ______ ____
DOCKED: ROOT
DOCKED: ATOM      1  C   UNL     1     140.535  73.743 221.916 -0.11 -0.02    +0.274 C  
DOCKED: ATOM      2  O   UNL     1     139.700  74.671 222.086 -0.70 +0.04    -0.267 OA 
DOCKED: ENDROOT
DOCKED: BRANCH   1   3
DOCKED: ATOM      3  C   UNL     1     140.261  72.413 222.487 -0.28 -0.01    +0.106 A  
DOCKED: ATOM      4  C   UNL     1     139.731  68.681 224.980 -0.32 -0.01    +0.041 A  
DOCKED: ATOM      5  C   UNL     1     139.134  68.222 223.774 -0.22 -0.00    +0.014 A  
DOCKED: ATOM      6  C   UNL     1     140.254  69.995 225.037 -0.41 -0.01    +0.040 A  
DOCKED: ATOM      7  C   UNL     1     139.043  69.060 222.648 -0.20 -0.00    +0.011 A  
DOCKED: ATOM      8  C   UNL     1     140.148  70.798 223.903 -0.35 -0.01    +0.047 A  
DOCKED: ATOM      9  C   UNL     1     139.563  70.346 222.752 -0.23 -0.00    +0.000 A  
DOCKED: ATOM     10  N   UNL     1     140.577  72.063 223.757 -0.14 +0.03    -0.350 N  
DOCKED: ATOM     11  C   UNL     1     139.617  71.365 221.828 -0.19 -0.01    +0.042 A  
DOCKED: ATOM     12  H   UNL     1     141.056  72.650 224.476 +0.09 -0.00    +0.167 HD 
DOCKED: BRANCH   4  13
DOCKED: ATOM     13  C   UNL     1     139.818  67.773 226.150 -0.44 -0.04    +0.248 C  
DOCKED: ATOM     14  N   UNL     1     141.005  67.682 226.941 -0.30 +0.10    -0.366 N  
DOCKED: ATOM     15  H   UNL     1     141.799  68.348 226.820 +0.02 -0.04    +0.159 HD 
DOCKED: ATOM     16  H   UNL     1     141.057  66.992 227.722 -0.37 -0.07    +0.159 HD 
DOCKED: ATOM     17  O   UNL     1     138.819  67.071 226.469 -0.73 -0.01    -0.270 OA 
DOCKED: ENDBRANCH   4  13
DOCKED: ENDBRANCH   1   3
DOCKED: BRANCH   1  18
DOCKED: ATOM     18  N   UNL     1     141.704  73.986 221.124 -0.15 +0.05    -0.306 N  
DOCKED: ATOM     19  C   UNL     1     142.783  73.017 220.944 -0.11 -0.02    +0.139 C  
DOCKED: ATOM     20  C   UNL     1     141.987  75.147 220.357 -0.27 -0.02    +0.048 A  
DOCKED: ATOM     21  C   UNL     1     143.866  73.744 220.072 -0.36 -0.01    +0.029 C  
DOCKED: ATOM     22  C   UNL     1     141.149  76.250 220.152 -0.21 -0.01    +0.026 A  
DOCKED: ATOM     23  C   UNL     1     143.210  75.057 219.743 -0.35 +0.01    -0.015 A  
DOCKED: ATOM     24  C   UNL     1     145.178  73.920 220.819 -0.55 -0.01    +0.030 C  
DOCKED: ATOM     25  C   UNL     1     144.270  72.929 218.834 -0.19 -0.00    +0.098 C  
DOCKED: ATOM     26  C   UNL     1     141.607  77.298 219.340 -0.23 -0.00    +0.002 A  
DOCKED: ATOM     27  C   UNL     1     143.686  76.094 218.931 -0.30 -0.00    +0.006 A  
DOCKED: ATOM     28  C   UNL     1     145.921  72.636 220.510 -0.46 +0.01    +0.086 C  
DOCKED: ATOM     29  N   UNL     1     145.518  72.208 219.156 -0.52 -0.16    -0.298 NA 
DOCKED: ATOM     30  C   UNL     1     142.875  77.223 218.735 -0.35 -0.00    +0.000 A  
DOCKED: BRANCH  29  31
DOCKED: ATOM     31  C   UNL     1     145.369  70.736 219.053 -0.26 +0.03    +0.071 C  
DOCKED: ATOM     32  C   UNL     1     144.130  70.239 219.784 -0.21 +0.00    +0.036 C  
DOCKED: ATOM     33  C   UNL     1     145.109  70.283 217.620 -0.13 +0.03    +0.100 C  
DOCKED: ATOM     34  C   UNL     1     143.639  69.050 218.971 -0.18 -0.01    +0.082 C  
DOCKED: ATOM     35  N   UNL     1     144.326  69.051 217.677 -0.01 +0.03    -0.315 NA 
DOCKED: ATOM     36  H   UNL     1     144.994  68.245 217.661 +0.05 -0.02    +0.122 HD 
DOCKED: ENDBRANCH  29  31
DOCKED: ENDBRANCH   1  18
DOCKED: TORSDOF 4
DOCKED: TER
DOCKED: ENDMDL
________________________________________________________________________________


    CLUSTERING HISTOGRAM
    ____________________


________________________________________________________________________________
     |           |     |           |     |
Clus | Lowest    | Run | Mean      | Num | Histogram
-ter | Binding   |     | Binding   | in  |
Rank | Energy    |     | Energy    | Clus|    5    10   15   20   25   30   35
_____|___________|_____|___________|_____|____:____|____:____|____:____|____:___
   1 |     -9.21 |  10 |     -8.98 |   6 |######
   2 |     -8.72 |  11 |     -8.54 |  11 |###########
   3 |     -8.61 |  15 |     -8.60 |   2 |##
   4 |     -8.24 |  14 |     -8.24 |   1 |#
_____|___________|_____|___________|_____|______________________________________


    RMSD TABLE
    __________


_______________________________________________________________________
     |      |      |           |         |                 |
Rank | Sub- | Run  | Binding   | Cluster | Reference       | Grep
     | Rank |      | Energy    | RMSD    | RMSD            | Pattern
_____|______|______|___________|_________|_________________|___________
   1      1     10       -9.21      0.00    268.14           RANKING
   1      2      2       -9.20      0.11    268.12           RANKING
   1      3     19       -9.18      0.08    268.13           RANKING
   1      4     17       -9.17      0.07    268.14           RANKING
   1      5     20       -8.62      0.62    268.01           RANKING
   1      6      1       -8.49      1.07    268.30           RANKING
   2      1     11       -8.72      0.00    269.48           RANKING
   2      2     18       -8.71      0.05    269.48           RANKING
   2      3      6       -8.71      0.05    269.46           RANKING
   2      4      4       -8.70      0.03    269.50           RANKING
   2      5      9       -8.70      0.11    269.48           RANKING
   2      6      7       -8.63      0.17    269.43           RANKING
   2      7      3       -8.45      0.62    269.28           RANKING
   2      8     12       -8.42      1.79    269.27           RANKING
   2      9      8       -8.35      0.62    269.24           RANKING
   2     10     13       -8.27      1.99    269.09           RANKING
   2     11      5       -8.27      1.90    269.14           RANKING
   3      1     15       -8.61      0.00    268.55           RANKING
   3      2     16       -8.60      0.09    268.53           RANKING
   4      1     14       -8.24      0.00    269.08           RANKING

Run time 0.898 sec
Idle time 0.000 sec
