AutoDock-GPU version: v1.6

**********************************************************
**    AutoDock-GPU AUTODOCKTOOLS-COMPATIBLE DLG FILE    **
**********************************************************


    DOCKING PARAMETERS
    ________________________


Ligand file:                               /home/a/REINVENT4/ReinventStudies/scoringData/graph-dock-34dfml/graph-DockGPU/node-autodockgpu/inputs/BKKYOBILRJMROL-DTVRUWFINA-N.pdbqt
Grid fld file:                             /home/a/REINVENT4/ReinventStudies/mols/Rad51/maps/rad51_receptor.maps.fld

Random seed:                               42
Number of runs:                            20
Number of energy evaluations:              1132076
Number of generations:                     42000
Size of population:                        150
Rate of crossover:                         80.000000%
Tournament selection probability limit:    60.000000%
Rate of mutation:                          2.000000%
Maximal allowed delta movement:            +/- 6.000000A
Maximal allowed delta angle:               +/- 90.000000

Rate of local search:                      100.000000%
Maximal number of local search iterations: 300
Rho lower bound:                           0.010000
Spread of local search delta movement:     2.000000A
Spread of local search delta angle:        74.999999
Limit of consecutive successes/failures:   4

Handle symmetry during clustering:         YES
RMSD tolerance:                            2.000000A

Program call in command line was:          /home/a/REINVENT4/ReinventStudies/adgpu-v1.6_linux_x64_cuda12_128wi --filelist batch.txt --heuristics 1 --nrun 20 --psize 150 --lsit 300 --seed 42 --heurmax 12000000 


    GRID PARAMETERS
    ________________________


Receptor name:                             rad51_receptor
Number of grid points (x, y, z):           53, 53, 53
Grid center (x, y, z):                     139.950000, 75.640000, 221.970000A
Grid size (x, y, z):                       19.500000, 19.500000, 19.500000A
Grid spacing:                              0.375000A


    LIGAND PARAMETERS
    ________________________


Ligand name:                               /home/a/REINVENT4/ReinventStudies/scoringData/graph-dock-34dfml/graph-DockGPU/node-autodockgpu/inputs/BKKYOBILRJMROL-DTVRUWFINA-N
Number of atoms:                           35
Number of rotatable bonds:                 5
Number of atom types:                      6


    DUMMY DATA (only for ADT-compatibility)
    ________________________


DPF> outlev 1
DPF> ga_run 20
DPF> fld /home/a/REINVENT4/ReinventStudies/mols/Rad51/maps/rad51_receptor.maps.fld
DPF> move /home/a/REINVENT4/ReinventStudies/scoringData/graph-dock-34dfml/graph-DockGPU/node-autodockgpu/inputs/BKKYOBILRJMROL-DTVRUWFINA-N.pdbqt


    COUNTER STATES
    ________________________


Number of energy evaluations performed:    669971
Number of generations used:                45


    INPUT LIGAND PDBQT FILE:
    ________________________


INPUT-LIGAND-PDBQT: REMARK SMILES [N-]=C(O)c1ccc2cc(C(=O)N3C[C@]4(CCN([C@@H]5CCNC5)C4)c4ccccc43)[nH]c2c1
INPUT-LIGAND-PDBQT: REMARK SMILES IDX 4 1 5 2 6 3 7 4 8 5 9 6 30 7 31 8 32 9 2 11 1 12 3 13 10 15
INPUT-LIGAND-PDBQT: REMARK SMILES IDX 11 16 12 17 13 18 29 19 14 20 28 21 24 22 15 23 23 24 27 25
INPUT-LIGAND-PDBQT: REMARK SMILES IDX 25 26 16 27 17 28 26 29 18 30 19 31 22 32 20 33 21 34
INPUT-LIGAND-PDBQT: REMARK H PARENT 30 10 3 14 21 35
INPUT-LIGAND-PDBQT: ROOT
INPUT-LIGAND-PDBQT: ATOM      1  C   UNL     1      -0.755  -5.272   2.516  1.00  0.00    -0.006 A 
INPUT-LIGAND-PDBQT: ATOM      2  C   UNL     1      -1.430  -4.282   3.282  1.00  0.00     0.010 A 
INPUT-LIGAND-PDBQT: ATOM      3  C   UNL     1      -1.808  -3.057   2.704  1.00  0.00     0.011 A 
INPUT-LIGAND-PDBQT: ATOM      4  C   UNL     1      -1.496  -2.845   1.365  1.00  0.00     0.000 A 
INPUT-LIGAND-PDBQT: ATOM      5  C   UNL     1      -1.743  -1.764   0.549  1.00  0.00     0.042 A 
INPUT-LIGAND-PDBQT: ATOM      6  C   UNL     1      -1.205  -2.117  -0.689  1.00  0.00     0.106 A 
INPUT-LIGAND-PDBQT: ATOM      7  N   UNL     1      -0.670  -3.360  -0.643  1.00  0.00    -0.350 N 
INPUT-LIGAND-PDBQT: ATOM      8  C   UNL     1      -0.849  -3.789   0.617  1.00  0.00     0.047 A 
INPUT-LIGAND-PDBQT: ATOM      9  C   UNL     1      -0.464  -5.016   1.155  1.00  0.00     0.036 A 
INPUT-LIGAND-PDBQT: ATOM     10  H   UNL     1      -0.209  -3.880  -1.423  1.00  0.00     0.167 HD
INPUT-LIGAND-PDBQT: ENDROOT
INPUT-LIGAND-PDBQT: BRANCH   1  11
INPUT-LIGAND-PDBQT: ATOM     11  C   UNL     1      -0.356  -6.564   3.123  1.00  0.00    -0.000 C 
INPUT-LIGAND-PDBQT: ATOM     12  N   UNL     1      -0.583  -6.801   4.375  1.00  0.00    -0.771 NA
INPUT-LIGAND-PDBQT: BRANCH  11  13
INPUT-LIGAND-PDBQT: ATOM     13  O   UNL     1       0.262  -7.540   2.345  1.00  0.00    -0.532 OA
INPUT-LIGAND-PDBQT: ATOM     14  H   UNL     1       0.542  -8.429   2.744  1.00  0.00     0.290 HD
INPUT-LIGAND-PDBQT: ENDBRANCH  11  13
INPUT-LIGAND-PDBQT: ENDBRANCH   1  11
INPUT-LIGAND-PDBQT: BRANCH   6  15
INPUT-LIGAND-PDBQT: ATOM     15  C   UNL     1      -1.238  -1.296  -1.914  1.00  0.00     0.274 C 
INPUT-LIGAND-PDBQT: ATOM     16  O   UNL     1      -1.093  -1.867  -3.029  1.00  0.00    -0.267 OA
INPUT-LIGAND-PDBQT: BRANCH  15  17
INPUT-LIGAND-PDBQT: ATOM     17  N   UNL     1      -1.389   0.134  -1.860  1.00  0.00    -0.306 N 
INPUT-LIGAND-PDBQT: ATOM     18  C   UNL     1      -0.699   0.987  -0.887  1.00  0.00     0.139 C 
INPUT-LIGAND-PDBQT: ATOM     19  C   UNL     1      -1.801   0.947  -2.949  1.00  0.00     0.048 A 
INPUT-LIGAND-PDBQT: ATOM     20  C   UNL     1      -0.538   2.389  -1.570  1.00  0.00     0.029 C 
INPUT-LIGAND-PDBQT: ATOM     21  C   UNL     1      -2.596   0.557  -4.034  1.00  0.00     0.026 A 
INPUT-LIGAND-PDBQT: ATOM     22  C   UNL     1      -1.366   2.240  -2.815  1.00  0.00    -0.015 A 
INPUT-LIGAND-PDBQT: ATOM     23  C   UNL     1      -0.996   3.556  -0.683  1.00  0.00     0.030 C 
INPUT-LIGAND-PDBQT: ATOM     24  C   UNL     1       0.931   2.711  -1.908  1.00  0.00     0.098 C 
INPUT-LIGAND-PDBQT: ATOM     25  C   UNL     1      -2.917   1.515  -5.009  1.00  0.00     0.002 A 
INPUT-LIGAND-PDBQT: ATOM     26  C   UNL     1      -1.669   3.208  -3.780  1.00  0.00     0.006 A 
INPUT-LIGAND-PDBQT: ATOM     27  C   UNL     1       0.197   4.499  -0.637  1.00  0.00     0.086 C 
INPUT-LIGAND-PDBQT: ATOM     28  N   UNL     1       1.407   3.716  -0.941  1.00  0.00    -0.298 NA
INPUT-LIGAND-PDBQT: ATOM     29  C   UNL     1      -2.451   2.836  -4.884  1.00  0.00     0.000 A 
INPUT-LIGAND-PDBQT: BRANCH  28  30
INPUT-LIGAND-PDBQT: ATOM     30  C   UNL     1       1.985   3.090   0.281  1.00  0.00     0.071 C 
INPUT-LIGAND-PDBQT: ATOM     31  C   UNL     1       2.519   4.127   1.256  1.00  0.00     0.036 C 
INPUT-LIGAND-PDBQT: ATOM     32  C   UNL     1       3.232   2.254  -0.025  1.00  0.00     0.100 C 
INPUT-LIGAND-PDBQT: ATOM     33  C   UNL     1       3.657   3.429   1.974  1.00  0.00     0.082 C 
INPUT-LIGAND-PDBQT: ATOM     34  N   UNL     1       4.150   2.357   1.110  1.00  0.00    -0.315 NA
INPUT-LIGAND-PDBQT: ATOM     35  H   UNL     1       5.099   2.622   0.752  1.00  0.00     0.122 HD
INPUT-LIGAND-PDBQT: ENDBRANCH  28  30
INPUT-LIGAND-PDBQT: ENDBRANCH  15  17
INPUT-LIGAND-PDBQT: ENDBRANCH   6  15
INPUT-LIGAND-PDBQT: TORSDOF 5


    FINAL DOCKED STATE:
    ________________________


Run:   1 / 20
Time taken for this run:   0.034s

DOCKED: MODEL        1
DOCKED: USER    Run = 1
DOCKED: USER
DOCKED: USER    Estimated Free Energy of Binding    =  -8.09 kcal/mol  [=(1)+(2)+(3)-(4)]
DOCKED: USER
DOCKED: USER    (1) Final Intermolecular Energy     =  -9.58 kcal/mol
DOCKED: USER        vdW + Hbond + desolv Energy     =  -8.73 kcal/mol
DOCKED: USER        Electrostatic Energy            =  -0.85 kcal/mol
DOCKED: USER        Moving Ligand-Fixed Receptor    =  -9.58 kcal/mol
DOCKED: USER        Moving Ligand-Moving Receptor   =  +0.00 kcal/mol
DOCKED: USER    (2) Final Total Internal Energy     =  -1.08 kcal/mol
DOCKED: USER    (3) Torsional Free Energy           =  +1.49 kcal/mol
DOCKED: USER    (4) Unbound System's Energy         =  -1.08 kcal/mol
DOCKED: USER
DOCKED: USER
DOCKED: REMARK SMILES [N-]=C(O)c1ccc2cc(C(=O)N3C[C@]4(CCN([C@@H]5CCNC5)C4)c4ccccc43)[nH]c2c1
DOCKED: REMARK SMILES IDX 4 1 5 2 6 3 7 4 8 5 9 6 30 7 31 8 32 9 2 11 1 12 3 13 10 15
DOCKED: REMARK SMILES IDX 11 16 12 17 13 18 29 19 14 20 28 21 24 22 15 23 23 24 27 25
DOCKED: REMARK SMILES IDX 25 26 16 27 17 28 26 29 18 30 19 31 22 32 20 33 21 34
DOCKED: REMARK H PARENT 30 10 3 14 21 35
DOCKED: USER                              x       y       z     vdW  Elec       q    Type
DOCKED: USER                           _______ _______ _______ _____ _____    ______ ____
DOCKED: ROOT
DOCKED: ATOM      1  C   UNL     1     144.116  73.911 219.621 -0.35 +0.00    -0.006 A  
DOCKED: ATOM      2  C   UNL     1     143.443  74.124 218.387 -0.17 -0.00    +0.010 A  
DOCKED: ATOM      3  C   UNL     1     142.217  74.813 218.343 -0.12 -0.00    +0.011 A  
DOCKED: ATOM      4  C   UNL     1     141.685  75.272 219.544 -0.19 -0.00    +0.000 A  
DOCKED: ATOM      5  C   UNL     1     140.527  75.969 219.800 -0.12 -0.01    +0.042 A  
DOCKED: ATOM      6  C   UNL     1     140.517  76.155 221.183 -0.25 -0.03    +0.106 A  
DOCKED: ATOM      7  N   UNL     1     141.623  75.616 221.748 +0.02 +0.14    -0.350 N  
DOCKED: ATOM      8  C   UNL     1     142.323  75.075 220.737 -0.24 -0.02    +0.047 A  
DOCKED: ATOM      9  C   UNL     1     143.541  74.401 220.817 -0.24 -0.01    +0.036 A  
DOCKED: ATOM     10  H   UNL     1     141.880  75.614 222.760 -0.41 -0.06    +0.167 HD 
DOCKED: ENDROOT
DOCKED: BRANCH   1  11
DOCKED: ATOM     11  C   UNL     1     145.407  73.185 219.669 -0.46 -0.00    -0.000 C  
DOCKED: ATOM     12  N   UNL     1     145.933  72.705 218.588 -0.45 -0.73    -0.771 NA 
DOCKED: BRANCH  11  13
DOCKED: ATOM     13  O   UNL     1     146.071  73.021 220.883 -0.27 -0.00    -0.532 OA 
DOCKED: ATOM     14  H   UNL     1     146.031  72.142 221.387 -0.37 -0.13    +0.290 HD 
DOCKED: ENDBRANCH  11  13
DOCKED: ENDBRANCH   1  11
DOCKED: BRANCH   6  15
DOCKED: ATOM     15  C   UNL     1     139.486  76.876 221.953 -0.21 -0.06    +0.274 C  
DOCKED: ATOM     16  O   UNL     1     138.568  76.211 222.505 -0.25 +0.06    -0.267 OA 
DOCKED: BRANCH  15  17
DOCKED: ATOM     17  N   UNL     1     139.484  78.312 222.051 -0.11 +0.07    -0.306 N  
DOCKED: ATOM     18  C   UNL     1     138.263  79.115 222.175 -0.16 -0.02    +0.139 C  
DOCKED: ATOM     19  C   UNL     1     140.578  79.094 222.506 -0.36 -0.01    +0.048 A  
DOCKED: ATOM     20  C   UNL     1     138.672  80.417 222.947 -0.30 -0.00    +0.029 C  
DOCKED: ATOM     21  C   UNL     1     141.935  78.755 222.446 -0.44 -0.01    +0.026 A  
DOCKED: ATOM     22  C   UNL     1     140.169  80.308 222.997 -0.39 +0.00    -0.015 A  
DOCKED: ATOM     23  C   UNL     1     138.188  81.706 222.268 -0.18 -0.00    +0.030 C  
DOCKED: ATOM     24  C   UNL     1     138.066  80.472 224.364 -0.32 -0.01    +0.098 C  
DOCKED: ATOM     25  C   UNL     1     142.879  79.675 222.931 -0.61 -0.00    +0.002 A  
DOCKED: ATOM     26  C   UNL     1     141.094  81.235 223.492 -0.48 -0.00    +0.006 A  
DOCKED: ATOM     27  C   UNL     1     137.415  82.447 223.349 -0.10 -0.01    +0.086 C  
DOCKED: ATOM     28  N   UNL     1     136.971  81.459 224.348 -0.15 +0.03    -0.298 NA 
DOCKED: ATOM     29  C   UNL     1     142.459  80.910 223.456 -0.65 -0.00    +0.000 A  
DOCKED: BRANCH  28  30
DOCKED: ATOM     30  C   UNL     1     135.666  80.844 223.979 -0.16 -0.01    +0.071 C  
DOCKED: ATOM     31  C   UNL     1     134.790  81.797 223.181 -0.06 -0.00    +0.036 C  
DOCKED: ATOM     32  C   UNL     1     134.794  80.545 225.203 -0.14 -0.01    +0.100 C  
DOCKED: ATOM     33  C   UNL     1     133.370  81.397 223.529 -0.03 -0.01    +0.082 C  
DOCKED: ATOM     34  N   UNL     1     133.391  80.733 224.832 -0.02 +0.03    -0.315 NA 
DOCKED: ATOM     35  H   UNL     1     132.938  81.361 225.538 +0.02 -0.01    +0.122 HD 
DOCKED: ENDBRANCH  28  30
DOCKED: ENDBRANCH  15  17
DOCKED: ENDBRANCH   6  15
DOCKED: TORSDOF 5
DOCKED: TER
DOCKED: ENDMDL
________________________________________________________________________________


    FINAL DOCKED STATE:
    ________________________


Run:   2 / 20
Time taken for this run:   0.034s

DOCKED: MODEL        2
DOCKED: USER    Run = 2
DOCKED: USER
DOCKED: USER    Estimated Free Energy of Binding    =  -8.34 kcal/mol  [=(1)+(2)+(3)-(4)]
DOCKED: USER
DOCKED: USER    (1) Final Intermolecular Energy     =  -9.83 kcal/mol
DOCKED: USER        vdW + Hbond + desolv Energy     =  -8.72 kcal/mol
DOCKED: USER        Electrostatic Energy            =  -1.11 kcal/mol
DOCKED: USER        Moving Ligand-Fixed Receptor    =  -9.83 kcal/mol
DOCKED: USER        Moving Ligand-Moving Receptor   =  +0.00 kcal/mol
DOCKED: USER    (2) Final Total Internal Energy     =  -1.10 kcal/mol
DOCKED: USER    (3) Torsional Free Energy           =  +1.49 kcal/mol
DOCKED: USER    (4) Unbound System's Energy         =  -1.10 kcal/mol
DOCKED: USER
DOCKED: USER
DOCKED: REMARK SMILES [N-]=C(O)c1ccc2cc(C(=O)N3C[C@]4(CCN([C@@H]5CCNC5)C4)c4ccccc43)[nH]c2c1
DOCKED: REMARK SMILES IDX 4 1 5 2 6 3 7 4 8 5 9 6 30 7 31 8 32 9 2 11 1 12 3 13 10 15
DOCKED: REMARK SMILES IDX 11 16 12 17 13 18 29 19 14 20 28 21 24 22 15 23 23 24 27 25
DOCKED: REMARK SMILES IDX 25 26 16 27 17 28 26 29 18 30 19 31 22 32 20 33 21 34
DOCKED: REMARK H PARENT 30 10 3 14 21 35
DOCKED: USER                              x       y       z     vdW  Elec       q    Type
DOCKED: USER                           _______ _______ _______ _____ _____    ______ ____
DOCKED: ROOT
DOCKED: ATOM      1  C   UNL     1     144.432  73.913 219.321 -0.32 +0.00    -0.006 A  
DOCKED: ATOM      2  C   UNL     1     144.082  74.635 218.147 -0.14 -0.00    +0.010 A  
DOCKED: ATOM      3  C   UNL     1     143.006  75.540 218.152 -0.22 -0.01    +0.011 A  
DOCKED: ATOM      4  C   UNL     1     142.296  75.701 219.337 -0.26 -0.00    +0.000 A  
DOCKED: ATOM      5  C   UNL     1     141.220  76.508 219.633 -0.17 -0.02    +0.042 A  
DOCKED: ATOM      6  C   UNL     1     140.935  76.250 220.974 -0.25 -0.04    +0.106 A  
DOCKED: ATOM      7  N   UNL     1     141.803  75.345 221.484 -0.06 +0.13    -0.350 N  
DOCKED: ATOM      8  C   UNL     1     142.623  75.015 220.473 -0.29 -0.02    +0.047 A  
DOCKED: ATOM      9  C   UNL     1     143.686  74.113 220.507 -0.37 -0.01    +0.036 A  
DOCKED: ATOM     10  H   UNL     1     141.830  74.975 222.460 -0.05 -0.01    +0.167 HD 
DOCKED: ENDROOT
DOCKED: BRANCH   1  11
DOCKED: ATOM     11  C   UNL     1     145.566  72.958 219.319 -0.40 -0.00    -0.000 C  
DOCKED: ATOM     12  N   UNL     1     145.936  72.378 218.222 -0.33 -0.90    -0.771 NA 
DOCKED: BRANCH  11  13
DOCKED: ATOM     13  O   UNL     1     146.249  72.682 220.501 -0.25 -0.12    -0.532 OA 
DOCKED: ATOM     14  H   UNL     1     145.947  71.938 221.120 -0.37 -0.12    +0.290 HD 
DOCKED: ENDBRANCH  11  13
DOCKED: ENDBRANCH   1  11
DOCKED: BRANCH   6  15
DOCKED: ATOM     15  C   UNL     1     139.873  76.892 221.773 -0.21 -0.07    +0.274 C  
DOCKED: ATOM     16  O   UNL     1     139.001  76.161 222.317 -0.26 +0.06    -0.267 OA 
DOCKED: BRANCH  15  17
DOCKED: ATOM     17  N   UNL     1     139.790  78.322 221.907 -0.11 +0.08    -0.306 N  
DOCKED: ATOM     18  C   UNL     1     138.524  79.061 221.951 -0.16 -0.03    +0.139 C  
DOCKED: ATOM     19  C   UNL     1     140.803  79.143 222.469 -0.38 -0.01    +0.048 A  
DOCKED: ATOM     20  C   UNL     1     138.802  80.357 222.787 -0.29 -0.00    +0.029 C  
DOCKED: ATOM     21  C   UNL     1     142.176  78.873 222.511 -0.43 -0.01    +0.026 A  
DOCKED: ATOM     22  C   UNL     1     140.295  80.320 222.956 -0.40 +0.00    -0.015 A  
DOCKED: ATOM     23  C   UNL     1     138.309  81.641 222.104 -0.18 -0.00    +0.030 C  
DOCKED: ATOM     24  C   UNL     1     138.083  80.342 224.150 -0.31 -0.01    +0.098 C  
DOCKED: ATOM     25  C   UNL     1     143.030  79.822 223.095 -0.61 -0.00    +0.002 A  
DOCKED: ATOM     26  C   UNL     1     141.128  81.276 223.548 -0.47 -0.00    +0.006 A  
DOCKED: ATOM     27  C   UNL     1     137.415  82.311 223.137 -0.15 -0.01    +0.086 C  
DOCKED: ATOM     28  N   UNL     1     136.944  81.274 224.071 -0.14 +0.03    -0.298 NA 
DOCKED: ATOM     29  C   UNL     1     142.506  81.019 223.615 -0.64 -0.00    +0.000 A  
DOCKED: BRANCH  28  30
DOCKED: ATOM     30  C   UNL     1     135.706  80.607 223.581 -0.14 -0.01    +0.071 C  
DOCKED: ATOM     31  C   UNL     1     134.533  80.816 224.525 -0.12 -0.00    +0.036 C  
DOCKED: ATOM     32  C   UNL     1     135.836  79.080 223.553 -0.11 -0.01    +0.100 C  
DOCKED: ATOM     33  C   UNL     1     133.675  79.578 224.354 -0.09 -0.01    +0.082 C  
DOCKED: ATOM     34  N   UNL     1     134.531  78.497 223.866 -0.06 +0.04    -0.315 NA 
DOCKED: ATOM     35  H   UNL     1     134.652  77.791 224.632 +0.03 -0.01    +0.122 HD 
DOCKED: ENDBRANCH  28  30
DOCKED: ENDBRANCH  15  17
DOCKED: ENDBRANCH   6  15
DOCKED: TORSDOF 5
DOCKED: TER
DOCKED: ENDMDL
________________________________________________________________________________


    FINAL DOCKED STATE:
    ________________________


Run:   3 / 20
Time taken for this run:   0.034s

DOCKED: MODEL        3
DOCKED: USER    Run = 3
DOCKED: USER
DOCKED: USER    Estimated Free Energy of Binding    =  -7.81 kcal/mol  [=(1)+(2)+(3)-(4)]
DOCKED: USER
DOCKED: USER    (1) Final Intermolecular Energy     =  -9.30 kcal/mol
DOCKED: USER        vdW + Hbond + desolv Energy     =  -8.43 kcal/mol
DOCKED: USER        Electrostatic Energy            =  -0.87 kcal/mol
DOCKED: USER        Moving Ligand-Fixed Receptor    =  -9.30 kcal/mol
DOCKED: USER        Moving Ligand-Moving Receptor   =  +0.00 kcal/mol
DOCKED: USER    (2) Final Total Internal Energy     =  -1.41 kcal/mol
DOCKED: USER    (3) Torsional Free Energy           =  +1.49 kcal/mol
DOCKED: USER    (4) Unbound System's Energy         =  -1.41 kcal/mol
DOCKED: USER
DOCKED: USER
DOCKED: REMARK SMILES [N-]=C(O)c1ccc2cc(C(=O)N3C[C@]4(CCN([C@@H]5CCNC5)C4)c4ccccc43)[nH]c2c1
DOCKED: REMARK SMILES IDX 4 1 5 2 6 3 7 4 8 5 9 6 30 7 31 8 32 9 2 11 1 12 3 13 10 15
DOCKED: REMARK SMILES IDX 11 16 12 17 13 18 29 19 14 20 28 21 24 22 15 23 23 24 27 25
DOCKED: REMARK SMILES IDX 25 26 16 27 17 28 26 29 18 30 19 31 22 32 20 33 21 34
DOCKED: REMARK H PARENT 30 10 3 14 21 35
DOCKED: USER                              x       y       z     vdW  Elec       q    Type
DOCKED: USER                           _______ _______ _______ _____ _____    ______ ____
DOCKED: ROOT
DOCKED: ATOM      1  C   UNL     1     144.223  73.860 220.031 -0.41 +0.00    -0.006 A  
DOCKED: ATOM      2  C   UNL     1     144.071  75.039 219.249 -0.23 -0.01    +0.010 A  
DOCKED: ATOM      3  C   UNL     1     142.871  75.772 219.277 -0.32 -0.01    +0.011 A  
DOCKED: ATOM      4  C   UNL     1     141.841  75.306 220.087 -0.26 -0.00    +0.000 A  
DOCKED: ATOM      5  C   UNL     1     140.581  75.813 220.314 -0.17 -0.01    +0.042 A  
DOCKED: ATOM      6  C   UNL     1     139.994  74.928 221.218 -0.23 -0.02    +0.106 A  
DOCKED: ATOM      7  N   UNL     1     140.855  73.936 221.547 -0.15 +0.04    -0.350 N  
DOCKED: ATOM      8  C   UNL     1     141.975  74.176 220.845 -0.27 -0.01    +0.047 A  
DOCKED: ATOM      9  C   UNL     1     143.150  73.426 220.846 -0.26 -0.01    +0.036 A  
DOCKED: ATOM     10  H   UNL     1     140.686  73.143 222.206 +0.04 -0.00    +0.167 HD 
DOCKED: ENDROOT
DOCKED: BRANCH   1  11
DOCKED: ATOM     11  C   UNL     1     145.486  73.085 220.003 -0.52 -0.00    -0.000 C  
DOCKED: ATOM     12  N   UNL     1     145.950  72.623 218.887 -0.43 -0.69    -0.771 NA 
DOCKED: BRANCH  11  13
DOCKED: ATOM     13  O   UNL     1     146.190  72.854 221.183 -0.25 +0.04    -0.532 OA 
DOCKED: ATOM     14  H   UNL     1     146.096  71.980 221.686 -0.36 -0.22    +0.290 HD 
DOCKED: ENDBRANCH  11  13
DOCKED: ENDBRANCH   1  11
DOCKED: BRANCH   6  15
DOCKED: ATOM     15  C   UNL     1     138.642  75.049 221.796 -0.16 -0.07    +0.274 C  
DOCKED: ATOM     16  O   UNL     1     137.973  73.999 221.995 -0.14 +0.08    -0.267 OA 
DOCKED: BRANCH  15  17
DOCKED: ATOM     17  N   UNL     1     138.062  76.331 222.096 -0.14 +0.07    -0.306 N  
DOCKED: ATOM     18  C   UNL     1     138.741  77.365 222.884 -0.09 -0.02    +0.139 C  
DOCKED: ATOM     19  C   UNL     1     137.037  76.954 221.336 -0.10 -0.01    +0.048 A  
DOCKED: ATOM     20  C   UNL     1     138.171  78.739 222.388 -0.22 -0.00    +0.029 C  
DOCKED: ATOM     21  C   UNL     1     136.075  76.317 220.543 -0.04 -0.00    +0.026 A  
DOCKED: ATOM     22  C   UNL     1     137.042  78.316 221.492 -0.10 +0.00    -0.015 A  
DOCKED: ATOM     23  C   UNL     1     137.716  79.658 223.531 -0.22 -0.00    +0.030 C  
DOCKED: ATOM     24  C   UNL     1     139.220  79.565 221.619 -0.16 -0.02    +0.098 C  
DOCKED: ATOM     25  C   UNL     1     135.123  77.107 219.878 -0.01 -0.00    +0.002 A  
DOCKED: ATOM     26  C   UNL     1     136.106  79.122 220.831 -0.04 -0.00    +0.006 A  
DOCKED: ATOM     27  C   UNL     1     138.462  80.963 223.298 -0.29 -0.01    +0.086 C  
DOCKED: ATOM     28  N   UNL     1     139.660  80.665 222.496 -0.12 +0.05    -0.298 NA 
DOCKED: ATOM     29  C   UNL     1     135.142  78.506 220.019 -0.01 -0.00    +0.000 A  
DOCKED: BRANCH  28  30
DOCKED: ATOM     30  C   UNL     1     140.817  80.274 223.349 -0.46 -0.01    +0.071 C  
DOCKED: ATOM     31  C   UNL     1     141.824  81.403 223.497 -0.54 -0.00    +0.036 C  
DOCKED: ATOM     32  C   UNL     1     141.661  79.163 222.715 -0.48 -0.04    +0.100 C  
DOCKED: ATOM     33  C   UNL     1     143.158  80.707 223.681 -0.52 -0.02    +0.082 C  
DOCKED: ATOM     34  N   UNL     1     143.061  79.375 223.086 -0.23 +0.14    -0.315 NA 
DOCKED: ATOM     35  H   UNL     1     143.646  79.350 222.217 -0.53 -0.10    +0.122 HD 
DOCKED: ENDBRANCH  28  30
DOCKED: ENDBRANCH  15  17
DOCKED: ENDBRANCH   6  15
DOCKED: TORSDOF 5
DOCKED: TER
DOCKED: ENDMDL
________________________________________________________________________________


    FINAL DOCKED STATE:
    ________________________


Run:   4 / 20
Time taken for this run:   0.034s

DOCKED: MODEL        4
DOCKED: USER    Run = 4
DOCKED: USER
DOCKED: USER    Estimated Free Energy of Binding    =  -8.32 kcal/mol  [=(1)+(2)+(3)-(4)]
DOCKED: USER
DOCKED: USER    (1) Final Intermolecular Energy     =  -9.82 kcal/mol
DOCKED: USER        vdW + Hbond + desolv Energy     =  -8.72 kcal/mol
DOCKED: USER        Electrostatic Energy            =  -1.10 kcal/mol
DOCKED: USER        Moving Ligand-Fixed Receptor    =  -9.82 kcal/mol
DOCKED: USER        Moving Ligand-Moving Receptor   =  +0.00 kcal/mol
DOCKED: USER    (2) Final Total Internal Energy     =  -1.11 kcal/mol
DOCKED: USER    (3) Torsional Free Energy           =  +1.49 kcal/mol
DOCKED: USER    (4) Unbound System's Energy         =  -1.11 kcal/mol
DOCKED: USER
DOCKED: USER
DOCKED: REMARK SMILES [N-]=C(O)c1ccc2cc(C(=O)N3C[C@]4(CCN([C@@H]5CCNC5)C4)c4ccccc43)[nH]c2c1
DOCKED: REMARK SMILES IDX 4 1 5 2 6 3 7 4 8 5 9 6 30 7 31 8 32 9 2 11 1 12 3 13 10 15
DOCKED: REMARK SMILES IDX 11 16 12 17 13 18 29 19 14 20 28 21 24 22 15 23 23 24 27 25
DOCKED: REMARK SMILES IDX 25 26 16 27 17 28 26 29 18 30 19 31 22 32 20 33 21 34
DOCKED: REMARK H PARENT 30 10 3 14 21 35
DOCKED: USER                              x       y       z     vdW  Elec       q    Type
DOCKED: USER                           _______ _______ _______ _____ _____    ______ ____
DOCKED: ROOT
DOCKED: ATOM      1  C   UNL     1     144.428  73.897 219.328 -0.32 +0.00    -0.006 A  
DOCKED: ATOM      2  C   UNL     1     144.082  74.631 218.160 -0.14 -0.00    +0.010 A  
DOCKED: ATOM      3  C   UNL     1     143.012  75.543 218.173 -0.22 -0.01    +0.011 A  
DOCKED: ATOM      4  C   UNL     1     142.303  75.698 219.359 -0.26 -0.00    +0.000 A  
DOCKED: ATOM      5  C   UNL     1     141.231  76.509 219.662 -0.17 -0.02    +0.042 A  
DOCKED: ATOM      6  C   UNL     1     140.945  76.242 221.001 -0.26 -0.04    +0.106 A  
DOCKED: ATOM      7  N   UNL     1     141.808  75.327 221.503 -0.05 +0.13    -0.350 N  
DOCKED: ATOM      8  C   UNL     1     142.626  75.000 220.489 -0.29 -0.02    +0.047 A  
DOCKED: ATOM      9  C   UNL     1     143.683  74.092 220.515 -0.37 -0.01    +0.036 A  
DOCKED: ATOM     10  H   UNL     1     141.833  74.948 222.477 -0.03 -0.01    +0.167 HD 
DOCKED: ENDROOT
DOCKED: BRANCH   1  11
DOCKED: ATOM     11  C   UNL     1     145.556  72.935 219.317 -0.40 -0.00    -0.000 C  
DOCKED: ATOM     12  N   UNL     1     145.910  72.349 218.219 -0.33 -0.88    -0.771 NA 
DOCKED: BRANCH  11  13
DOCKED: ATOM     13  O   UNL     1     146.250  72.659 220.492 -0.25 -0.13    -0.532 OA 
DOCKED: ATOM     14  H   UNL     1     145.957  71.912 221.112 -0.37 -0.12    +0.290 HD 
DOCKED: ENDBRANCH  11  13
DOCKED: ENDBRANCH   1  11
DOCKED: BRANCH   6  15
DOCKED: ATOM     15  C   UNL     1     139.888  76.882 221.806 -0.22 -0.07    +0.274 C  
DOCKED: ATOM     16  O   UNL     1     139.018  76.152 222.354 -0.27 +0.06    -0.267 OA 
DOCKED: BRANCH  15  17
DOCKED: ATOM     17  N   UNL     1     139.806  78.313 221.942 -0.11 +0.08    -0.306 N  
DOCKED: ATOM     18  C   UNL     1     138.540  79.051 222.001 -0.16 -0.03    +0.139 C  
DOCKED: ATOM     19  C   UNL     1     140.824  79.134 222.493 -0.38 -0.01    +0.048 A  
DOCKED: ATOM     20  C   UNL     1     138.828  80.347 222.834 -0.30 -0.00    +0.029 C  
DOCKED: ATOM     21  C   UNL     1     142.198  78.864 222.519 -0.43 -0.01    +0.026 A  
DOCKED: ATOM     22  C   UNL     1     140.322  80.310 222.986 -0.40 +0.00    -0.015 A  
DOCKED: ATOM     23  C   UNL     1     138.326  81.632 222.157 -0.18 -0.00    +0.030 C  
DOCKED: ATOM     24  C   UNL     1     138.124  80.331 224.206 -0.31 -0.01    +0.098 C  
DOCKED: ATOM     25  C   UNL     1     143.058  79.814 223.093 -0.60 -0.00    +0.002 A  
DOCKED: ATOM     26  C   UNL     1     141.162  81.267 223.569 -0.48 -0.00    +0.006 A  
DOCKED: ATOM     27  C   UNL     1     137.444  82.300 223.201 -0.14 -0.01    +0.086 C  
DOCKED: ATOM     28  N   UNL     1     136.984  81.263 224.140 -0.15 +0.03    -0.298 NA 
DOCKED: ATOM     29  C   UNL     1     142.540  81.010 223.620 -0.64 -0.00    +0.000 A  
DOCKED: BRANCH  28  30
DOCKED: ATOM     30  C   UNL     1     135.740  80.595 223.664 -0.15 -0.01    +0.071 C  
DOCKED: ATOM     31  C   UNL     1     134.575  80.815 224.615 -0.13 -0.00    +0.036 C  
DOCKED: ATOM     32  C   UNL     1     135.866  79.068 223.646 -0.08 -0.01    +0.100 C  
DOCKED: ATOM     33  C   UNL     1     133.713  79.577 224.459 -0.10 -0.01    +0.082 C  
DOCKED: ATOM     34  N   UNL     1     134.562  78.491 223.972 -0.06 +0.04    -0.315 NA 
DOCKED: ATOM     35  H   UNL     1     134.687  77.790 224.742 +0.03 -0.01    +0.122 HD 
DOCKED: ENDBRANCH  28  30
DOCKED: ENDBRANCH  15  17
DOCKED: ENDBRANCH   6  15
DOCKED: TORSDOF 5
DOCKED: TER
DOCKED: ENDMDL
________________________________________________________________________________


    FINAL DOCKED STATE:
    ________________________


Run:   5 / 20
Time taken for this run:   0.034s

DOCKED: MODEL        5
DOCKED: USER    Run = 5
DOCKED: USER
DOCKED: USER    Estimated Free Energy of Binding    =  -8.33 kcal/mol  [=(1)+(2)+(3)-(4)]
DOCKED: USER
DOCKED: USER    (1) Final Intermolecular Energy     =  -9.82 kcal/mol
DOCKED: USER        vdW + Hbond + desolv Energy     =  -8.70 kcal/mol
DOCKED: USER        Electrostatic Energy            =  -1.12 kcal/mol
DOCKED: USER        Moving Ligand-Fixed Receptor    =  -9.82 kcal/mol
DOCKED: USER        Moving Ligand-Moving Receptor   =  +0.00 kcal/mol
DOCKED: USER    (2) Final Total Internal Energy     =  -1.11 kcal/mol
DOCKED: USER    (3) Torsional Free Energy           =  +1.49 kcal/mol
DOCKED: USER    (4) Unbound System's Energy         =  -1.11 kcal/mol
DOCKED: USER
DOCKED: USER
DOCKED: REMARK SMILES [N-]=C(O)c1ccc2cc(C(=O)N3C[C@]4(CCN([C@@H]5CCNC5)C4)c4ccccc43)[nH]c2c1
DOCKED: REMARK SMILES IDX 4 1 5 2 6 3 7 4 8 5 9 6 30 7 31 8 32 9 2 11 1 12 3 13 10 15
DOCKED: REMARK SMILES IDX 11 16 12 17 13 18 29 19 14 20 28 21 24 22 15 23 23 24 27 25
DOCKED: REMARK SMILES IDX 25 26 16 27 17 28 26 29 18 30 19 31 22 32 20 33 21 34
DOCKED: REMARK H PARENT 30 10 3 14 21 35
DOCKED: USER                              x       y       z     vdW  Elec       q    Type
DOCKED: USER                           _______ _______ _______ _____ _____    ______ ____
DOCKED: ROOT
DOCKED: ATOM      1  C   UNL     1     144.443  73.912 219.310 -0.32 +0.00    -0.006 A  
DOCKED: ATOM      2  C   UNL     1     144.085  74.622 218.131 -0.14 -0.00    +0.010 A  
DOCKED: ATOM      3  C   UNL     1     143.006  75.524 218.132 -0.22 -0.01    +0.011 A  
DOCKED: ATOM      4  C   UNL     1     142.299  75.693 219.318 -0.25 -0.00    +0.000 A  
DOCKED: ATOM      5  C   UNL     1     141.221  76.497 219.611 -0.17 -0.02    +0.042 A  
DOCKED: ATOM      6  C   UNL     1     140.943  76.251 220.956 -0.25 -0.04    +0.106 A  
DOCKED: ATOM      7  N   UNL     1     141.817  75.353 221.471 -0.06 +0.13    -0.350 N  
DOCKED: ATOM      8  C   UNL     1     142.634  75.017 220.459 -0.29 -0.02    +0.047 A  
DOCKED: ATOM      9  C   UNL     1     143.700  74.120 220.497 -0.37 -0.01    +0.036 A  
DOCKED: ATOM     10  H   UNL     1     141.849  74.992 222.450 -0.07 -0.01    +0.167 HD 
DOCKED: ENDROOT
DOCKED: BRANCH   1  11
DOCKED: ATOM     11  C   UNL     1     145.580  72.962 219.311 -0.40 -0.00    -0.000 C  
DOCKED: ATOM     12  N   UNL     1     145.945  72.370 218.219 -0.33 -0.91    -0.771 NA 
DOCKED: BRANCH  11  13
DOCKED: ATOM     13  O   UNL     1     146.273  72.703 220.492 -0.25 -0.13    -0.532 OA 
DOCKED: ATOM     14  H   UNL     1     146.020  71.922 221.087 -0.37 -0.11    +0.290 HD 
DOCKED: ENDBRANCH  11  13
DOCKED: ENDBRANCH   1  11
DOCKED: BRANCH   6  15
DOCKED: ATOM     15  C   UNL     1     139.882  76.895 221.753 -0.21 -0.07    +0.274 C  
DOCKED: ATOM     16  O   UNL     1     139.004  76.168 222.292 -0.26 +0.06    -0.267 OA 
DOCKED: BRANCH  15  17
DOCKED: ATOM     17  N   UNL     1     139.806  78.325 221.893 -0.10 +0.08    -0.306 N  
DOCKED: ATOM     18  C   UNL     1     138.544  79.069 221.954 -0.16 -0.03    +0.139 C  
DOCKED: ATOM     19  C   UNL     1     140.829  79.141 222.446 -0.38 -0.01    +0.048 A  
DOCKED: ATOM     20  C   UNL     1     138.838  80.362 222.791 -0.29 -0.00    +0.029 C  
DOCKED: ATOM     21  C   UNL     1     142.202  78.864 222.471 -0.42 -0.01    +0.026 A  
DOCKED: ATOM     22  C   UNL     1     140.332  80.318 222.942 -0.40 +0.00    -0.015 A  
DOCKED: ATOM     23  C   UNL     1     138.342  81.650 222.117 -0.18 -0.00    +0.030 C  
DOCKED: ATOM     24  C   UNL     1     138.134  80.345 224.162 -0.32 -0.01    +0.098 C  
DOCKED: ATOM     25  C   UNL     1     143.066  79.808 223.047 -0.60 -0.00    +0.002 A  
DOCKED: ATOM     26  C   UNL     1     141.177  81.269 223.527 -0.48 -0.00    +0.006 A  
DOCKED: ATOM     27  C   UNL     1     137.463  82.320 223.163 -0.14 -0.01    +0.086 C  
DOCKED: ATOM     28  N   UNL     1     136.999  81.282 224.099 -0.14 +0.03    -0.298 NA 
DOCKED: ATOM     29  C   UNL     1     142.554  81.006 223.578 -0.64 -0.00    +0.000 A  
DOCKED: BRANCH  28  30
DOCKED: ATOM     30  C   UNL     1     135.752  80.622 223.622 -0.15 -0.01    +0.071 C  
DOCKED: ATOM     31  C   UNL     1     134.585  80.853 224.569 -0.13 -0.00    +0.036 C  
DOCKED: ATOM     32  C   UNL     1     135.867  79.094 223.610 -0.09 -0.01    +0.100 C  
DOCKED: ATOM     33  C   UNL     1     133.715  79.621 224.414 -0.10 -0.01    +0.082 C  
DOCKED: ATOM     34  N   UNL     1     134.558  78.527 223.934 -0.06 +0.04    -0.315 NA 
DOCKED: ATOM     35  H   UNL     1     134.676  77.828 224.707 +0.03 -0.01    +0.122 HD 
DOCKED: ENDBRANCH  28  30
DOCKED: ENDBRANCH  15  17
DOCKED: ENDBRANCH   6  15
DOCKED: TORSDOF 5
DOCKED: TER
DOCKED: ENDMDL
________________________________________________________________________________


    FINAL DOCKED STATE:
    ________________________


Run:   6 / 20
Time taken for this run:   0.034s

DOCKED: MODEL        6
DOCKED: USER    Run = 6
DOCKED: USER
DOCKED: USER    Estimated Free Energy of Binding    =  -8.32 kcal/mol  [=(1)+(2)+(3)-(4)]
DOCKED: USER
DOCKED: USER    (1) Final Intermolecular Energy     =  -9.81 kcal/mol
DOCKED: USER        vdW + Hbond + desolv Energy     =  -8.73 kcal/mol
DOCKED: USER        Electrostatic Energy            =  -1.08 kcal/mol
DOCKED: USER        Moving Ligand-Fixed Receptor    =  -9.81 kcal/mol
DOCKED: USER        Moving Ligand-Moving Receptor   =  +0.00 kcal/mol
DOCKED: USER    (2) Final Total Internal Energy     =  -1.11 kcal/mol
DOCKED: USER    (3) Torsional Free Energy           =  +1.49 kcal/mol
DOCKED: USER    (4) Unbound System's Energy         =  -1.11 kcal/mol
DOCKED: USER
DOCKED: USER
DOCKED: REMARK SMILES [N-]=C(O)c1ccc2cc(C(=O)N3C[C@]4(CCN([C@@H]5CCNC5)C4)c4ccccc43)[nH]c2c1
DOCKED: REMARK SMILES IDX 4 1 5 2 6 3 7 4 8 5 9 6 30 7 31 8 32 9 2 11 1 12 3 13 10 15
DOCKED: REMARK SMILES IDX 11 16 12 17 13 18 29 19 14 20 28 21 24 22 15 23 23 24 27 25
DOCKED: REMARK SMILES IDX 25 26 16 27 17 28 26 29 18 30 19 31 22 32 20 33 21 34
DOCKED: REMARK H PARENT 30 10 3 14 21 35
DOCKED: USER                              x       y       z     vdW  Elec       q    Type
DOCKED: USER                           _______ _______ _______ _____ _____    ______ ____
DOCKED: ROOT
DOCKED: ATOM      1  C   UNL     1     144.421  73.957 219.352 -0.33 +0.00    -0.006 A  
DOCKED: ATOM      2  C   UNL     1     144.032  74.618 218.155 -0.16 -0.00    +0.010 A  
DOCKED: ATOM      3  C   UNL     1     142.937  75.501 218.142 -0.21 -0.00    +0.011 A  
DOCKED: ATOM      4  C   UNL     1     142.247  75.700 219.334 -0.25 -0.00    +0.000 A  
DOCKED: ATOM      5  C   UNL     1     141.160  76.496 219.616 -0.16 -0.02    +0.042 A  
DOCKED: ATOM      6  C   UNL     1     140.908  76.293 220.973 -0.25 -0.04    +0.106 A  
DOCKED: ATOM      7  N   UNL     1     141.806  75.430 221.504 -0.03 +0.14    -0.350 N  
DOCKED: ATOM      8  C   UNL     1     142.612  75.071 220.492 -0.28 -0.02    +0.047 A  
DOCKED: ATOM      9  C   UNL     1     143.695  74.194 220.543 -0.36 -0.01    +0.036 A  
DOCKED: ATOM     10  H   UNL     1     141.861  75.104 222.496 -0.12 -0.02    +0.167 HD 
DOCKED: ENDROOT
DOCKED: BRANCH   1  11
DOCKED: ATOM     11  C   UNL     1     145.575  73.026 219.368 -0.41 -0.00    -0.000 C  
DOCKED: ATOM     12  N   UNL     1     145.947  72.421 218.287 -0.35 -0.88    -0.771 NA 
DOCKED: BRANCH  11  13
DOCKED: ATOM     13  O   UNL     1     146.275  72.802 220.551 -0.26 -0.11    -0.532 OA 
DOCKED: ATOM     14  H   UNL     1     145.967  72.104 221.219 -0.37 -0.11    +0.290 HD 
DOCKED: ENDBRANCH  11  13
DOCKED: ENDBRANCH   1  11
DOCKED: BRANCH   6  15
DOCKED: ATOM     15  C   UNL     1     139.849  76.947 221.765 -0.21 -0.07    +0.274 C  
DOCKED: ATOM     16  O   UNL     1     138.960  76.228 222.297 -0.25 +0.06    -0.267 OA 
DOCKED: BRANCH  15  17
DOCKED: ATOM     17  N   UNL     1     139.788  78.378 221.907 -0.10 +0.08    -0.306 N  
DOCKED: ATOM     18  C   UNL     1     138.534  79.135 221.964 -0.16 -0.03    +0.139 C  
DOCKED: ATOM     19  C   UNL     1     140.817  79.181 222.466 -0.38 -0.01    +0.048 A  
DOCKED: ATOM     20  C   UNL     1     138.838  80.423 222.804 -0.29 -0.00    +0.029 C  
DOCKED: ATOM     21  C   UNL     1     142.187  78.890 222.496 -0.44 -0.01    +0.026 A  
DOCKED: ATOM     22  C   UNL     1     140.331  80.363 222.962 -0.40 +0.00    -0.015 A  
DOCKED: ATOM     23  C   UNL     1     138.359  81.718 222.131 -0.18 -0.00    +0.030 C  
DOCKED: ATOM     24  C   UNL     1     138.128  80.412 224.172 -0.33 -0.01    +0.098 C  
DOCKED: ATOM     25  C   UNL     1     143.059  79.824 223.078 -0.60 -0.00    +0.002 A  
DOCKED: ATOM     26  C   UNL     1     141.183  81.304 223.552 -0.46 -0.00    +0.006 A  
DOCKED: ATOM     27  C   UNL     1     137.482  82.396 223.173 -0.12 -0.01    +0.086 C  
DOCKED: ATOM     28  N   UNL     1     137.003  81.361 224.106 -0.14 +0.03    -0.298 NA 
DOCKED: ATOM     29  C   UNL     1     142.557  81.026 223.608 -0.64 -0.00    +0.000 A  
DOCKED: BRANCH  28  30
DOCKED: ATOM     30  C   UNL     1     135.751  80.715 223.622 -0.15 -0.01    +0.071 C  
DOCKED: ATOM     31  C   UNL     1     134.575  80.982 224.548 -0.12 -0.00    +0.036 C  
DOCKED: ATOM     32  C   UNL     1     135.839  79.185 223.637 -0.10 -0.01    +0.100 C  
DOCKED: ATOM     33  C   UNL     1     133.686  79.764 224.402 -0.09 -0.01    +0.082 C  
DOCKED: ATOM     34  N   UNL     1     134.516  78.647 223.952 -0.06 +0.04    -0.315 NA 
DOCKED: ATOM     35  H   UNL     1     134.610  77.959 224.738 +0.03 -0.01    +0.122 HD 
DOCKED: ENDBRANCH  28  30
DOCKED: ENDBRANCH  15  17
DOCKED: ENDBRANCH   6  15
DOCKED: TORSDOF 5
DOCKED: TER
DOCKED: ENDMDL
________________________________________________________________________________


    FINAL DOCKED STATE:
    ________________________


Run:   7 / 20
Time taken for this run:   0.034s

DOCKED: MODEL        7
DOCKED: USER    Run = 7
DOCKED: USER
DOCKED: USER    Estimated Free Energy of Binding    =  -8.34 kcal/mol  [=(1)+(2)+(3)-(4)]
DOCKED: USER
DOCKED: USER    (1) Final Intermolecular Energy     =  -9.83 kcal/mol
DOCKED: USER        vdW + Hbond + desolv Energy     =  -8.72 kcal/mol
DOCKED: USER        Electrostatic Energy            =  -1.11 kcal/mol
DOCKED: USER        Moving Ligand-Fixed Receptor    =  -9.83 kcal/mol
DOCKED: USER        Moving Ligand-Moving Receptor   =  +0.00 kcal/mol
DOCKED: USER    (2) Final Total Internal Energy     =  -1.10 kcal/mol
DOCKED: USER    (3) Torsional Free Energy           =  +1.49 kcal/mol
DOCKED: USER    (4) Unbound System's Energy         =  -1.10 kcal/mol
DOCKED: USER
DOCKED: USER
DOCKED: REMARK SMILES [N-]=C(O)c1ccc2cc(C(=O)N3C[C@]4(CCN([C@@H]5CCNC5)C4)c4ccccc43)[nH]c2c1
DOCKED: REMARK SMILES IDX 4 1 5 2 6 3 7 4 8 5 9 6 30 7 31 8 32 9 2 11 1 12 3 13 10 15
DOCKED: REMARK SMILES IDX 11 16 12 17 13 18 29 19 14 20 28 21 24 22 15 23 23 24 27 25
DOCKED: REMARK SMILES IDX 25 26 16 27 17 28 26 29 18 30 19 31 22 32 20 33 21 34
DOCKED: REMARK H PARENT 30 10 3 14 21 35
DOCKED: USER                              x       y       z     vdW  Elec       q    Type
DOCKED: USER                           _______ _______ _______ _____ _____    ______ ____
DOCKED: ROOT
DOCKED: ATOM      1  C   UNL     1     144.431  73.895 219.340 -0.33 +0.00    -0.006 A  
DOCKED: ATOM      2  C   UNL     1     144.077  74.619 218.169 -0.15 -0.00    +0.010 A  
DOCKED: ATOM      3  C   UNL     1     143.001  75.524 218.178 -0.22 -0.01    +0.011 A  
DOCKED: ATOM      4  C   UNL     1     142.294  75.683 219.366 -0.26 -0.00    +0.000 A  
DOCKED: ATOM      5  C   UNL     1     141.218  76.487 219.666 -0.17 -0.02    +0.042 A  
DOCKED: ATOM      6  C   UNL     1     140.937  76.227 221.008 -0.26 -0.04    +0.106 A  
DOCKED: ATOM      7  N   UNL     1     141.808  75.322 221.514 -0.05 +0.13    -0.350 N  
DOCKED: ATOM      8  C   UNL     1     142.625  74.994 220.499 -0.29 -0.02    +0.047 A  
DOCKED: ATOM      9  C   UNL     1     143.688  74.093 220.528 -0.37 -0.01    +0.036 A  
DOCKED: ATOM     10  H   UNL     1     141.838  74.950 222.489 -0.02 -0.01    +0.167 HD 
DOCKED: ENDROOT
DOCKED: BRANCH   1  11
DOCKED: ATOM     11  C   UNL     1     145.566  72.941 219.332 -0.40 -0.00    -0.000 C  
DOCKED: ATOM     12  N   UNL     1     145.934  72.366 218.233 -0.33 -0.90    -0.771 NA 
DOCKED: BRANCH  11  13
DOCKED: ATOM     13  O   UNL     1     146.251  72.662 220.512 -0.25 -0.12    -0.532 OA 
DOCKED: ATOM     14  H   UNL     1     145.953  71.913 221.127 -0.37 -0.13    +0.290 HD 
DOCKED: ENDBRANCH  11  13
DOCKED: ENDBRANCH   1  11
DOCKED: BRANCH   6  15
DOCKED: ATOM     15  C   UNL     1     139.878  76.866 221.811 -0.22 -0.07    +0.274 C  
DOCKED: ATOM     16  O   UNL     1     139.007  76.135 222.355 -0.27 +0.06    -0.267 OA 
DOCKED: BRANCH  15  17
DOCKED: ATOM     17  N   UNL     1     139.795  78.296 221.950 -0.11 +0.08    -0.306 N  
DOCKED: ATOM     18  C   UNL     1     138.529  79.034 222.010 -0.16 -0.03    +0.139 C  
DOCKED: ATOM     19  C   UNL     1     140.814  79.117 222.504 -0.39 -0.01    +0.048 A  
DOCKED: ATOM     20  C   UNL     1     138.816  80.329 222.847 -0.30 -0.00    +0.029 C  
DOCKED: ATOM     21  C   UNL     1     142.187  78.846 222.531 -0.42 -0.01    +0.026 A  
DOCKED: ATOM     22  C   UNL     1     140.311  80.292 222.999 -0.40 +0.00    -0.015 A  
DOCKED: ATOM     23  C   UNL     1     138.316  81.614 222.172 -0.18 -0.00    +0.030 C  
DOCKED: ATOM     24  C   UNL     1     138.111  80.309 224.217 -0.31 -0.01    +0.098 C  
DOCKED: ATOM     25  C   UNL     1     143.047  79.795 223.108 -0.60 -0.00    +0.002 A  
DOCKED: ATOM     26  C   UNL     1     141.150  81.247 223.586 -0.47 -0.00    +0.006 A  
DOCKED: ATOM     27  C   UNL     1     137.432  82.281 223.216 -0.14 -0.01    +0.086 C  
DOCKED: ATOM     28  N   UNL     1     136.971  81.241 224.152 -0.15 +0.03    -0.298 NA 
DOCKED: ATOM     29  C   UNL     1     142.528  80.990 223.638 -0.65 -0.00    +0.000 A  
DOCKED: BRANCH  28  30
DOCKED: ATOM     30  C   UNL     1     135.728  80.574 223.674 -0.15 -0.01    +0.071 C  
DOCKED: ATOM     31  C   UNL     1     134.566  80.775 224.634 -0.13 -0.00    +0.036 C  
DOCKED: ATOM     32  C   UNL     1     135.861  79.049 223.634 -0.08 -0.01    +0.100 C  
DOCKED: ATOM     33  C   UNL     1     133.709  79.537 224.465 -0.10 -0.01    +0.082 C  
DOCKED: ATOM     34  N   UNL     1     134.561  78.461 223.959 -0.06 +0.04    -0.315 NA 
DOCKED: ATOM     35  H   UNL     1     134.693  77.750 224.718 +0.03 -0.01    +0.122 HD 
DOCKED: ENDBRANCH  28  30
DOCKED: ENDBRANCH  15  17
DOCKED: ENDBRANCH   6  15
DOCKED: TORSDOF 5
DOCKED: TER
DOCKED: ENDMDL
________________________________________________________________________________


    FINAL DOCKED STATE:
    ________________________


Run:   8 / 20
Time taken for this run:   0.034s

DOCKED: MODEL        8
DOCKED: USER    Run = 8
DOCKED: USER
DOCKED: USER    Estimated Free Energy of Binding    =  -8.26 kcal/mol  [=(1)+(2)+(3)-(4)]
DOCKED: USER
DOCKED: USER    (1) Final Intermolecular Energy     =  -9.75 kcal/mol
DOCKED: USER        vdW + Hbond + desolv Energy     =  -8.84 kcal/mol
DOCKED: USER        Electrostatic Energy            =  -0.91 kcal/mol
DOCKED: USER        Moving Ligand-Fixed Receptor    =  -9.75 kcal/mol
DOCKED: USER        Moving Ligand-Moving Receptor   =  +0.00 kcal/mol
DOCKED: USER    (2) Final Total Internal Energy     =  -1.08 kcal/mol
DOCKED: USER    (3) Torsional Free Energy           =  +1.49 kcal/mol
DOCKED: USER    (4) Unbound System's Energy         =  -1.08 kcal/mol
DOCKED: USER
DOCKED: USER
DOCKED: REMARK SMILES [N-]=C(O)c1ccc2cc(C(=O)N3C[C@]4(CCN([C@@H]5CCNC5)C4)c4ccccc43)[nH]c2c1
DOCKED: REMARK SMILES IDX 4 1 5 2 6 3 7 4 8 5 9 6 30 7 31 8 32 9 2 11 1 12 3 13 10 15
DOCKED: REMARK SMILES IDX 11 16 12 17 13 18 29 19 14 20 28 21 24 22 15 23 23 24 27 25
DOCKED: REMARK SMILES IDX 25 26 16 27 17 28 26 29 18 30 19 31 22 32 20 33 21 34
DOCKED: REMARK H PARENT 30 10 3 14 21 35
DOCKED: USER                              x       y       z     vdW  Elec       q    Type
DOCKED: USER                           _______ _______ _______ _____ _____    ______ ____
DOCKED: ROOT
DOCKED: ATOM      1  C   UNL     1     144.340  74.061 218.861 -0.23 +0.00    -0.006 A  
DOCKED: ATOM      2  C   UNL     1     143.716  74.599 217.702 -0.17 -0.00    +0.010 A  
DOCKED: ATOM      3  C   UNL     1     142.560  75.393 217.809 -0.15 -0.00    +0.011 A  
DOCKED: ATOM      4  C   UNL     1     142.047  75.628 219.081 -0.20 -0.00    +0.000 A  
DOCKED: ATOM      5  C   UNL     1     140.951  76.359 219.483 -0.13 -0.02    +0.042 A  
DOCKED: ATOM      6  C   UNL     1     140.929  76.240 220.873 -0.24 -0.04    +0.106 A  
DOCKED: ATOM      7  N   UNL     1     141.970  75.490 221.307 +0.08 +0.16    -0.350 N  
DOCKED: ATOM      8  C   UNL     1     142.639  75.118 220.203 -0.30 -0.02    +0.047 A  
DOCKED: ATOM      9  C   UNL     1     143.788  74.332 220.135 -0.38 -0.01    +0.036 A  
DOCKED: ATOM     10  H   UNL     1     142.205  75.245 222.295 -0.44 -0.06    +0.167 HD 
DOCKED: ENDROOT
DOCKED: BRANCH   1  11
DOCKED: ATOM     11  C   UNL     1     145.559  73.225 218.751 -0.26 -0.00    -0.000 C  
DOCKED: ATOM     12  N   UNL     1     145.613  72.248 217.903 -0.34 -0.60    -0.771 NA 
DOCKED: BRANCH  11  13
DOCKED: ATOM     13  O   UNL     1     146.664  73.490 219.556 -0.45 -0.31    -0.532 OA 
DOCKED: ATOM     14  H   UNL     1     147.056  74.423 219.618 -0.39 -0.01    +0.290 HD 
DOCKED: ENDBRANCH  11  13
DOCKED: ENDBRANCH   1  11
DOCKED: BRANCH   6  15
DOCKED: ATOM     15  C   UNL     1     139.953  76.870 221.781 -0.22 -0.07    +0.274 C  
DOCKED: ATOM     16  O   UNL     1     139.162  76.129 222.427 -0.29 +0.05    -0.267 OA 
DOCKED: BRANCH  15  17
DOCKED: ATOM     17  N   UNL     1     139.857  78.300 221.912 -0.11 +0.08    -0.306 N  
DOCKED: ATOM     18  C   UNL     1     138.585  79.030 221.927 -0.16 -0.03    +0.139 C  
DOCKED: ATOM     19  C   UNL     1     140.851  79.128 222.495 -0.39 -0.01    +0.048 A  
DOCKED: ATOM     20  C   UNL     1     138.837  80.329 222.768 -0.29 -0.00    +0.029 C  
DOCKED: ATOM     21  C   UNL     1     142.225  78.867 222.568 -0.41 -0.01    +0.026 A  
DOCKED: ATOM     22  C   UNL     1     140.325  80.302 222.969 -0.40 +0.00    -0.015 A  
DOCKED: ATOM     23  C   UNL     1     138.350  81.609 222.072 -0.18 -0.00    +0.030 C  
DOCKED: ATOM     24  C   UNL     1     138.087  80.310 224.114 -0.31 -0.01    +0.098 C  
DOCKED: ATOM     25  C   UNL     1     143.059  79.823 223.169 -0.58 -0.00    +0.002 A  
DOCKED: ATOM     26  C   UNL     1     141.139  81.265 223.579 -0.47 -0.00    +0.006 A  
DOCKED: ATOM     27  C   UNL     1     137.429  82.274 223.084 -0.15 -0.01    +0.086 C  
DOCKED: ATOM     28  N   UNL     1     136.944  81.235 224.008 -0.13 +0.03    -0.298 NA 
DOCKED: ATOM     29  C   UNL     1     142.517  81.017 223.677 -0.65 -0.00    +0.000 A  
DOCKED: BRANCH  28  30
DOCKED: ATOM     30  C   UNL     1     135.721  80.559 223.492 -0.14 -0.01    +0.071 C  
DOCKED: ATOM     31  C   UNL     1     134.527  80.758 224.412 -0.12 -0.00    +0.036 C  
DOCKED: ATOM     32  C   UNL     1     135.864  79.034 223.465 -0.13 -0.01    +0.100 C  
DOCKED: ATOM     33  C   UNL     1     133.683  79.514 224.221 -0.09 -0.01    +0.082 C  
DOCKED: ATOM     34  N   UNL     1     134.557  78.440 223.749 -0.06 +0.04    -0.315 NA 
DOCKED: ATOM     35  H   UNL     1     134.668  77.734 224.517 +0.03 -0.01    +0.122 HD 
DOCKED: ENDBRANCH  28  30
DOCKED: ENDBRANCH  15  17
DOCKED: ENDBRANCH   6  15
DOCKED: TORSDOF 5
DOCKED: TER
DOCKED: ENDMDL
________________________________________________________________________________


    FINAL DOCKED STATE:
    ________________________


Run:   9 / 20
Time taken for this run:   0.034s

DOCKED: MODEL        9
DOCKED: USER    Run = 9
DOCKED: USER
DOCKED: USER    Estimated Free Energy of Binding    =  -8.29 kcal/mol  [=(1)+(2)+(3)-(4)]
DOCKED: USER
DOCKED: USER    (1) Final Intermolecular Energy     =  -9.78 kcal/mol
DOCKED: USER        vdW + Hbond + desolv Energy     =  -8.70 kcal/mol
DOCKED: USER        Electrostatic Energy            =  -1.09 kcal/mol
DOCKED: USER        Moving Ligand-Fixed Receptor    =  -9.78 kcal/mol
DOCKED: USER        Moving Ligand-Moving Receptor   =  +0.00 kcal/mol
DOCKED: USER    (2) Final Total Internal Energy     =  -1.11 kcal/mol
DOCKED: USER    (3) Torsional Free Energy           =  +1.49 kcal/mol
DOCKED: USER    (4) Unbound System's Energy         =  -1.11 kcal/mol
DOCKED: USER
DOCKED: USER
DOCKED: REMARK SMILES [N-]=C(O)c1ccc2cc(C(=O)N3C[C@]4(CCN([C@@H]5CCNC5)C4)c4ccccc43)[nH]c2c1
DOCKED: REMARK SMILES IDX 4 1 5 2 6 3 7 4 8 5 9 6 30 7 31 8 32 9 2 11 1 12 3 13 10 15
DOCKED: REMARK SMILES IDX 11 16 12 17 13 18 29 19 14 20 28 21 24 22 15 23 23 24 27 25
DOCKED: REMARK SMILES IDX 25 26 16 27 17 28 26 29 18 30 19 31 22 32 20 33 21 34
DOCKED: REMARK H PARENT 30 10 3 14 21 35
DOCKED: USER                              x       y       z     vdW  Elec       q    Type
DOCKED: USER                           _______ _______ _______ _____ _____    ______ ____
DOCKED: ROOT
DOCKED: ATOM      1  C   UNL     1     144.398  73.896 219.388 -0.33 +0.00    -0.006 A  
DOCKED: ATOM      2  C   UNL     1     143.984  74.539 218.189 -0.18 -0.00    +0.010 A  
DOCKED: ATOM      3  C   UNL     1     142.885  75.416 218.184 -0.20 -0.00    +0.011 A  
DOCKED: ATOM      4  C   UNL     1     142.216  75.629 219.385 -0.24 -0.00    +0.000 A  
DOCKED: ATOM      5  C   UNL     1     141.130  76.424 219.676 -0.16 -0.02    +0.042 A  
DOCKED: ATOM      6  C   UNL     1     140.903  76.239 221.040 -0.26 -0.04    +0.106 A  
DOCKED: ATOM      7  N   UNL     1     141.815  75.387 221.567 -0.02 +0.14    -0.350 N  
DOCKED: ATOM      8  C   UNL     1     142.604  75.019 220.545 -0.27 -0.02    +0.047 A  
DOCKED: ATOM      9  C   UNL     1     143.692  74.148 220.589 -0.35 -0.01    +0.036 A  
DOCKED: ATOM     10  H   UNL     1     141.890  75.076 222.561 -0.06 -0.02    +0.167 HD 
DOCKED: ENDROOT
DOCKED: BRANCH   1  11
DOCKED: ATOM     11  C   UNL     1     145.557  72.972 219.396 -0.41 -0.00    -0.000 C  
DOCKED: ATOM     12  N   UNL     1     145.936  72.383 218.308 -0.35 -0.88    -0.771 NA 
DOCKED: BRANCH  11  13
DOCKED: ATOM     13  O   UNL     1     146.254  72.736 220.579 -0.25 -0.10    -0.532 OA 
DOCKED: ATOM     14  H   UNL     1     145.931  72.047 221.249 -0.37 -0.13    +0.290 HD 
DOCKED: ENDBRANCH  11  13
DOCKED: ENDBRANCH   1  11
DOCKED: BRANCH   6  15
DOCKED: ATOM     15  C   UNL     1     139.856  76.899 221.842 -0.22 -0.07    +0.274 C  
DOCKED: ATOM     16  O   UNL     1     138.978  76.184 222.396 -0.27 +0.06    -0.267 OA 
DOCKED: BRANCH  15  17
DOCKED: ATOM     17  N   UNL     1     139.793  78.331 221.969 -0.11 +0.08    -0.306 N  
DOCKED: ATOM     18  C   UNL     1     138.538  79.087 222.020 -0.16 -0.03    +0.139 C  
DOCKED: ATOM     19  C   UNL     1     140.822  79.142 222.517 -0.39 -0.01    +0.048 A  
DOCKED: ATOM     20  C   UNL     1     138.841  80.385 222.846 -0.30 -0.00    +0.029 C  
DOCKED: ATOM     21  C   UNL     1     142.192  78.853 222.548 -0.42 -0.01    +0.026 A  
DOCKED: ATOM     22  C   UNL     1     140.335  80.328 223.001 -0.41 +0.00    -0.015 A  
DOCKED: ATOM     23  C   UNL     1     138.359  81.671 222.160 -0.18 -0.00    +0.030 C  
DOCKED: ATOM     24  C   UNL     1     138.134  80.386 224.215 -0.32 -0.01    +0.098 C  
DOCKED: ATOM     25  C   UNL     1     143.064  79.794 223.118 -0.59 -0.00    +0.002 A  
DOCKED: ATOM     26  C   UNL     1     141.186  81.276 223.580 -0.47 -0.00    +0.006 A  
DOCKED: ATOM     27  C   UNL     1     137.484  82.359 223.197 -0.12 -0.01    +0.086 C  
DOCKED: ATOM     28  N   UNL     1     137.007  81.334 224.141 -0.14 +0.03    -0.298 NA 
DOCKED: ATOM     29  C   UNL     1     142.561  81.001 223.637 -0.64 -0.00    +0.000 A  
DOCKED: BRANCH  28  30
DOCKED: ATOM     30  C   UNL     1     135.755  80.680 223.666 -0.15 -0.01    +0.071 C  
DOCKED: ATOM     31  C   UNL     1     134.582  80.952 224.594 -0.13 -0.00    +0.036 C  
DOCKED: ATOM     32  C   UNL     1     135.848  79.151 223.693 -0.09 -0.01    +0.100 C  
DOCKED: ATOM     33  C   UNL     1     133.695  79.730 224.460 -0.10 -0.01    +0.082 C  
DOCKED: ATOM     34  N   UNL     1     134.527  78.612 224.016 -0.06 +0.04    -0.315 NA 
DOCKED: ATOM     35  H   UNL     1     134.626  77.931 224.807 +0.03 -0.01    +0.122 HD 
DOCKED: ENDBRANCH  28  30
DOCKED: ENDBRANCH  15  17
DOCKED: ENDBRANCH   6  15
DOCKED: TORSDOF 5
DOCKED: TER
DOCKED: ENDMDL
________________________________________________________________________________


    FINAL DOCKED STATE:
    ________________________


Run:   10 / 20
Time taken for this run:   0.034s

DOCKED: MODEL        10
DOCKED: USER    Run = 10
DOCKED: USER
DOCKED: USER    Estimated Free Energy of Binding    =  -8.33 kcal/mol  [=(1)+(2)+(3)-(4)]
DOCKED: USER
DOCKED: USER    (1) Final Intermolecular Energy     =  -9.82 kcal/mol
DOCKED: USER        vdW + Hbond + desolv Energy     =  -8.71 kcal/mol
DOCKED: USER        Electrostatic Energy            =  -1.11 kcal/mol
DOCKED: USER        Moving Ligand-Fixed Receptor    =  -9.82 kcal/mol
DOCKED: USER        Moving Ligand-Moving Receptor   =  +0.00 kcal/mol
DOCKED: USER    (2) Final Total Internal Energy     =  -1.12 kcal/mol
DOCKED: USER    (3) Torsional Free Energy           =  +1.49 kcal/mol
DOCKED: USER    (4) Unbound System's Energy         =  -1.12 kcal/mol
DOCKED: USER
DOCKED: USER
DOCKED: REMARK SMILES [N-]=C(O)c1ccc2cc(C(=O)N3C[C@]4(CCN([C@@H]5CCNC5)C4)c4ccccc43)[nH]c2c1
DOCKED: REMARK SMILES IDX 4 1 5 2 6 3 7 4 8 5 9 6 30 7 31 8 32 9 2 11 1 12 3 13 10 15
DOCKED: REMARK SMILES IDX 11 16 12 17 13 18 29 19 14 20 28 21 24 22 15 23 23 24 27 25
DOCKED: REMARK SMILES IDX 25 26 16 27 17 28 26 29 18 30 19 31 22 32 20 33 21 34
DOCKED: REMARK H PARENT 30 10 3 14 21 35
DOCKED: USER                              x       y       z     vdW  Elec       q    Type
DOCKED: USER                           _______ _______ _______ _____ _____    ______ ____
DOCKED: ROOT
DOCKED: ATOM      1  C   UNL     1     144.427  73.917 219.313 -0.32 +0.00    -0.006 A  
DOCKED: ATOM      2  C   UNL     1     144.083  74.648 218.142 -0.14 -0.00    +0.010 A  
DOCKED: ATOM      3  C   UNL     1     143.011  75.558 218.150 -0.22 -0.01    +0.011 A  
DOCKED: ATOM      4  C   UNL     1     142.299  75.715 219.335 -0.26 -0.00    +0.000 A  
DOCKED: ATOM      5  C   UNL     1     141.225  76.525 219.633 -0.17 -0.02    +0.042 A  
DOCKED: ATOM      6  C   UNL     1     140.936  76.260 220.972 -0.25 -0.04    +0.106 A  
DOCKED: ATOM      7  N   UNL     1     141.800  75.348 221.478 -0.06 +0.13    -0.350 N  
DOCKED: ATOM      8  C   UNL     1     142.620  75.020 220.467 -0.29 -0.02    +0.047 A  
DOCKED: ATOM      9  C   UNL     1     143.679  74.114 220.498 -0.37 -0.01    +0.036 A  
DOCKED: ATOM     10  H   UNL     1     141.823  74.972 222.453 -0.06 -0.01    +0.167 HD 
DOCKED: ENDROOT
DOCKED: BRANCH   1  11
DOCKED: ATOM     11  C   UNL     1     145.556  72.957 219.307 -0.40 -0.00    -0.000 C  
DOCKED: ATOM     12  N   UNL     1     145.944  72.403 218.203 -0.34 -0.89    -0.771 NA 
DOCKED: BRANCH  11  13
DOCKED: ATOM     13  O   UNL     1     146.217  72.649 220.493 -0.24 -0.12    -0.532 OA 
DOCKED: ATOM     14  H   UNL     1     145.897  71.896 221.091 -0.37 -0.12    +0.290 HD 
DOCKED: ENDBRANCH  11  13
DOCKED: ENDBRANCH   1  11
DOCKED: BRANCH   6  15
DOCKED: ATOM     15  C   UNL     1     139.876  76.902 221.773 -0.21 -0.07    +0.274 C  
DOCKED: ATOM     16  O   UNL     1     138.998  76.172 222.309 -0.26 +0.06    -0.267 OA 
DOCKED: BRANCH  15  17
DOCKED: ATOM     17  N   UNL     1     139.801  78.331 221.918 -0.11 +0.08    -0.306 N  
DOCKED: ATOM     18  C   UNL     1     138.539  79.075 221.985 -0.16 -0.03    +0.139 C  
DOCKED: ATOM     19  C   UNL     1     140.825  79.145 222.472 -0.38 -0.01    +0.048 A  
DOCKED: ATOM     20  C   UNL     1     138.834  80.365 222.826 -0.30 -0.00    +0.029 C  
DOCKED: ATOM     21  C   UNL     1     142.198  78.868 222.493 -0.43 -0.01    +0.026 A  
DOCKED: ATOM     22  C   UNL     1     140.329  80.320 222.974 -0.40 +0.00    -0.015 A  
DOCKED: ATOM     23  C   UNL     1     138.337  81.655 222.159 -0.18 -0.00    +0.030 C  
DOCKED: ATOM     24  C   UNL     1     138.134  80.342 224.199 -0.32 -0.01    +0.098 C  
DOCKED: ATOM     25  C   UNL     1     143.063  79.810 223.071 -0.60 -0.00    +0.002 A  
DOCKED: ATOM     26  C   UNL     1     141.175  81.269 223.561 -0.48 -0.00    +0.006 A  
DOCKED: ATOM     27  C   UNL     1     137.460  82.321 223.208 -0.13 -0.01    +0.086 C  
DOCKED: ATOM     28  N   UNL     1     136.998  81.280 224.141 -0.15 +0.03    -0.298 NA 
DOCKED: ATOM     29  C   UNL     1     142.552  81.005 223.607 -0.64 -0.00    +0.000 A  
DOCKED: BRANCH  28  30
DOCKED: ATOM     30  C   UNL     1     135.750  80.621 223.664 -0.15 -0.01    +0.071 C  
DOCKED: ATOM     31  C   UNL     1     134.580  80.865 224.605 -0.13 -0.00    +0.036 C  
DOCKED: ATOM     32  C   UNL     1     135.859  79.093 223.665 -0.08 -0.01    +0.100 C  
DOCKED: ATOM     33  C   UNL     1     133.706  79.636 224.456 -0.10 -0.01    +0.082 C  
DOCKED: ATOM     34  N   UNL     1     134.545  78.534 223.988 -0.06 +0.04    -0.315 NA 
DOCKED: ATOM     35  H   UNL     1     134.657  77.841 224.767 +0.03 -0.01    +0.122 HD 
DOCKED: ENDBRANCH  28  30
DOCKED: ENDBRANCH  15  17
DOCKED: ENDBRANCH   6  15
DOCKED: TORSDOF 5
DOCKED: TER
DOCKED: ENDMDL
________________________________________________________________________________


    FINAL DOCKED STATE:
    ________________________


Run:   11 / 20
Time taken for this run:   0.034s

DOCKED: MODEL        11
DOCKED: USER    Run = 11
DOCKED: USER
DOCKED: USER    Estimated Free Energy of Binding    =  -8.00 kcal/mol  [=(1)+(2)+(3)-(4)]
DOCKED: USER
DOCKED: USER    (1) Final Intermolecular Energy     =  -9.49 kcal/mol
DOCKED: USER        vdW + Hbond + desolv Energy     =  -8.44 kcal/mol
DOCKED: USER        Electrostatic Energy            =  -1.05 kcal/mol
DOCKED: USER        Moving Ligand-Fixed Receptor    =  -9.49 kcal/mol
DOCKED: USER        Moving Ligand-Moving Receptor   =  +0.00 kcal/mol
DOCKED: USER    (2) Final Total Internal Energy     =  -1.08 kcal/mol
DOCKED: USER    (3) Torsional Free Energy           =  +1.49 kcal/mol
DOCKED: USER    (4) Unbound System's Energy         =  -1.08 kcal/mol
DOCKED: USER
DOCKED: USER
DOCKED: REMARK SMILES [N-]=C(O)c1ccc2cc(C(=O)N3C[C@]4(CCN([C@@H]5CCNC5)C4)c4ccccc43)[nH]c2c1
DOCKED: REMARK SMILES IDX 4 1 5 2 6 3 7 4 8 5 9 6 30 7 31 8 32 9 2 11 1 12 3 13 10 15
DOCKED: REMARK SMILES IDX 11 16 12 17 13 18 29 19 14 20 28 21 24 22 15 23 23 24 27 25
DOCKED: REMARK SMILES IDX 25 26 16 27 17 28 26 29 18 30 19 31 22 32 20 33 21 34
DOCKED: REMARK H PARENT 30 10 3 14 21 35
DOCKED: USER                              x       y       z     vdW  Elec       q    Type
DOCKED: USER                           _______ _______ _______ _____ _____    ______ ____
DOCKED: ROOT
DOCKED: ATOM      1  C   UNL     1     144.274  73.222 220.076 -0.39 +0.00    -0.006 A  
DOCKED: ATOM      2  C   UNL     1     143.441  72.086 220.272 -0.28 -0.00    +0.010 A  
DOCKED: ATOM      3  C   UNL     1     142.133  72.229 220.768 -0.23 -0.00    +0.011 A  
DOCKED: ATOM      4  C   UNL     1     141.685  73.512 221.065 -0.27 -0.00    +0.000 A  
DOCKED: ATOM      5  C   UNL     1     140.473  73.947 221.550 -0.29 -0.01    +0.042 A  
DOCKED: ATOM      6  C   UNL     1     140.600  75.333 221.647 -0.30 -0.02    +0.106 A  
DOCKED: ATOM      7  N   UNL     1     141.822  75.734 221.225 -0.07 +0.17    -0.350 N  
DOCKED: ATOM      8  C   UNL     1     142.476  74.612 220.879 -0.24 -0.02    +0.047 A  
DOCKED: ATOM      9  C   UNL     1     143.775  74.509 220.384 -0.39 -0.01    +0.036 A  
DOCKED: ATOM     10  H   UNL     1     142.187  76.712 221.180 -0.46 -0.13    +0.167 HD 
DOCKED: ENDROOT
DOCKED: BRANCH   1  11
DOCKED: ATOM     11  C   UNL     1     145.653  73.074 219.552 -0.44 -0.00    -0.000 C  
DOCKED: ATOM     12  N   UNL     1     145.900  72.274 218.565 -0.36 -0.85    -0.771 NA 
DOCKED: BRANCH  11  13
DOCKED: ATOM     13  O   UNL     1     146.696  73.803 220.116 -0.28 -0.12    -0.532 OA 
DOCKED: ATOM     14  H   UNL     1     146.967  74.706 219.743 -0.36 -0.08    +0.290 HD 
DOCKED: ENDBRANCH  11  13
DOCKED: ENDBRANCH   1  11
DOCKED: BRANCH   6  15
DOCKED: ATOM     15  C   UNL     1     139.552  76.270 222.096 -0.23 -0.06    +0.274 C  
DOCKED: ATOM     16  O   UNL     1     138.552  75.810 222.711 -0.27 +0.07    -0.267 OA 
DOCKED: BRANCH  15  17
DOCKED: ATOM     17  N   UNL     1     139.629  77.679 221.812 -0.11 +0.08    -0.306 N  
DOCKED: ATOM     18  C   UNL     1     138.513  78.459 221.266 -0.10 -0.03    +0.139 C  
DOCKED: ATOM     19  C   UNL     1     140.544  78.579 222.419 -0.37 -0.01    +0.048 A  
DOCKED: ATOM     20  C   UNL     1     138.718  79.929 221.771 -0.17 -0.01    +0.029 C  
DOCKED: ATOM     21  C   UNL     1     141.800  78.267 222.953 -0.38 -0.01    +0.026 A  
DOCKED: ATOM     22  C   UNL     1     140.083  79.870 222.395 -0.31 +0.00    -0.015 A  
DOCKED: ATOM     23  C   UNL     1     138.615  80.977 220.653 -0.09 -0.01    +0.030 C  
DOCKED: ATOM     24  C   UNL     1     137.648  80.350 222.798 -0.19 -0.01    +0.098 C  
DOCKED: ATOM     25  C   UNL     1     142.575  79.304 223.497 -0.52 -0.00    +0.002 A  
DOCKED: ATOM     26  C   UNL     1     140.837  80.917 222.938 -0.45 -0.00    +0.006 A  
DOCKED: ATOM     27  C   UNL     1     137.565  81.964 221.143 -0.08 -0.01    +0.086 C  
DOCKED: ATOM     28  N   UNL     1     136.715  81.271 222.127 -0.03 +0.04    -0.298 NA 
DOCKED: ATOM     29  C   UNL     1     142.093  80.625 223.493 -0.63 -0.00    +0.000 A  
DOCKED: BRANCH  28  30
DOCKED: ATOM     30  C   UNL     1     135.586  80.551 221.475 -0.04 -0.01    +0.071 C  
DOCKED: ATOM     31  C   UNL     1     135.457  79.120 221.974 -0.07 -0.01    +0.036 C  
DOCKED: ATOM     32  C   UNL     1     135.807  80.355 219.972 -0.01 -0.02    +0.100 C  
DOCKED: ATOM     33  C   UNL     1     134.875  78.356 220.802 -0.02 -0.01    +0.082 C  
DOCKED: ATOM     34  N   UNL     1     135.208  79.080 219.576 -0.00 +0.05    -0.315 NA 
DOCKED: ATOM     35  H   UNL     1     135.919  78.527 219.040 +0.00 -0.02    +0.122 HD 
DOCKED: ENDBRANCH  28  30
DOCKED: ENDBRANCH  15  17
DOCKED: ENDBRANCH   6  15
DOCKED: TORSDOF 5
DOCKED: TER
DOCKED: ENDMDL
________________________________________________________________________________


    FINAL DOCKED STATE:
    ________________________


Run:   12 / 20
Time taken for this run:   0.034s

DOCKED: MODEL        12
DOCKED: USER    Run = 12
DOCKED: USER
DOCKED: USER    Estimated Free Energy of Binding    =  -8.33 kcal/mol  [=(1)+(2)+(3)-(4)]
DOCKED: USER
DOCKED: USER    (1) Final Intermolecular Energy     =  -9.83 kcal/mol
DOCKED: USER        vdW + Hbond + desolv Energy     =  -8.72 kcal/mol
DOCKED: USER        Electrostatic Energy            =  -1.11 kcal/mol
DOCKED: USER        Moving Ligand-Fixed Receptor    =  -9.83 kcal/mol
DOCKED: USER        Moving Ligand-Moving Receptor   =  +0.00 kcal/mol
DOCKED: USER    (2) Final Total Internal Energy     =  -1.10 kcal/mol
DOCKED: USER    (3) Torsional Free Energy           =  +1.49 kcal/mol
DOCKED: USER    (4) Unbound System's Energy         =  -1.10 kcal/mol
DOCKED: USER
DOCKED: USER
DOCKED: REMARK SMILES [N-]=C(O)c1ccc2cc(C(=O)N3C[C@]4(CCN([C@@H]5CCNC5)C4)c4ccccc43)[nH]c2c1
DOCKED: REMARK SMILES IDX 4 1 5 2 6 3 7 4 8 5 9 6 30 7 31 8 32 9 2 11 1 12 3 13 10 15
DOCKED: REMARK SMILES IDX 11 16 12 17 13 18 29 19 14 20 28 21 24 22 15 23 23 24 27 25
DOCKED: REMARK SMILES IDX 25 26 16 27 17 28 26 29 18 30 19 31 22 32 20 33 21 34
DOCKED: REMARK H PARENT 30 10 3 14 21 35
DOCKED: USER                              x       y       z     vdW  Elec       q    Type
DOCKED: USER                           _______ _______ _______ _____ _____    ______ ____
DOCKED: ROOT
DOCKED: ATOM      1  C   UNL     1     144.424  73.898 219.315 -0.32 +0.00    -0.006 A  
DOCKED: ATOM      2  C   UNL     1     144.072  74.622 218.142 -0.15 -0.00    +0.010 A  
DOCKED: ATOM      3  C   UNL     1     142.998  75.530 218.151 -0.22 -0.01    +0.011 A  
DOCKED: ATOM      4  C   UNL     1     142.291  75.691 219.338 -0.25 -0.00    +0.000 A  
DOCKED: ATOM      5  C   UNL     1     141.217  76.498 219.637 -0.17 -0.02    +0.042 A  
DOCKED: ATOM      6  C   UNL     1     140.935  76.240 220.979 -0.25 -0.04    +0.106 A  
DOCKED: ATOM      7  N   UNL     1     141.803  75.333 221.486 -0.06 +0.13    -0.350 N  
DOCKED: ATOM      8  C   UNL     1     142.620  75.002 220.472 -0.30 -0.02    +0.047 A  
DOCKED: ATOM      9  C   UNL     1     143.681  74.099 220.502 -0.37 -0.01    +0.036 A  
DOCKED: ATOM     10  H   UNL     1     141.833  74.961 222.462 -0.05 -0.01    +0.167 HD 
DOCKED: ENDROOT
DOCKED: BRANCH   1  11
DOCKED: ATOM     11  C   UNL     1     145.556  72.942 219.308 -0.39 -0.00    -0.000 C  
DOCKED: ATOM     12  N   UNL     1     145.923  72.363 218.210 -0.33 -0.89    -0.771 NA 
DOCKED: BRANCH  11  13
DOCKED: ATOM     13  O   UNL     1     146.242  72.663 220.488 -0.25 -0.13    -0.532 OA 
DOCKED: ATOM     14  H   UNL     1     145.954  71.904 221.095 -0.37 -0.12    +0.290 HD 
DOCKED: ENDBRANCH  11  13
DOCKED: ENDBRANCH   1  11
DOCKED: BRANCH   6  15
DOCKED: ATOM     15  C   UNL     1     139.877  76.882 221.782 -0.21 -0.07    +0.274 C  
DOCKED: ATOM     16  O   UNL     1     139.004  76.153 222.326 -0.27 +0.06    -0.267 OA 
DOCKED: BRANCH  15  17
DOCKED: ATOM     17  N   UNL     1     139.798  78.312 221.920 -0.11 +0.08    -0.306 N  
DOCKED: ATOM     18  C   UNL     1     138.534  79.053 221.984 -0.16 -0.03    +0.139 C  
DOCKED: ATOM     19  C   UNL     1     140.820  79.131 222.469 -0.38 -0.01    +0.048 A  
DOCKED: ATOM     20  C   UNL     1     138.827  80.348 222.818 -0.29 -0.00    +0.029 C  
DOCKED: ATOM     21  C   UNL     1     142.194  78.858 222.490 -0.42 -0.01    +0.026 A  
DOCKED: ATOM     22  C   UNL     1     140.322  80.308 222.965 -0.40 +0.00    -0.015 A  
DOCKED: ATOM     23  C   UNL     1     138.326  81.634 222.144 -0.18 -0.00    +0.030 C  
DOCKED: ATOM     24  C   UNL     1     138.127  80.331 224.191 -0.31 -0.01    +0.098 C  
DOCKED: ATOM     25  C   UNL     1     143.057  79.806 223.064 -0.60 -0.00    +0.002 A  
DOCKED: ATOM     26  C   UNL     1     141.165  81.262 223.547 -0.48 -0.00    +0.006 A  
DOCKED: ATOM     27  C   UNL     1     137.448  82.303 223.191 -0.14 -0.01    +0.086 C  
DOCKED: ATOM     28  N   UNL     1     136.989  81.265 224.130 -0.14 +0.03    -0.298 NA 
DOCKED: ATOM     29  C   UNL     1     142.543  81.002 223.594 -0.64 -0.00    +0.000 A  
DOCKED: BRANCH  28  30
DOCKED: ATOM     30  C   UNL     1     135.742  80.601 223.657 -0.15 -0.01    +0.071 C  
DOCKED: ATOM     31  C   UNL     1     134.582  80.814 224.616 -0.13 -0.00    +0.036 C  
DOCKED: ATOM     32  C   UNL     1     135.868  79.074 223.629 -0.09 -0.01    +0.100 C  
DOCKED: ATOM     33  C   UNL     1     133.719  79.578 224.456 -0.10 -0.01    +0.082 C  
DOCKED: ATOM     34  N   UNL     1     134.565  78.494 223.958 -0.06 +0.04    -0.315 NA 
DOCKED: ATOM     35  H   UNL     1     134.695  77.789 224.723 +0.03 -0.01    +0.122 HD 
DOCKED: ENDBRANCH  28  30
DOCKED: ENDBRANCH  15  17
DOCKED: ENDBRANCH   6  15
DOCKED: TORSDOF 5
DOCKED: TER
DOCKED: ENDMDL
________________________________________________________________________________


    FINAL DOCKED STATE:
    ________________________


Run:   13 / 20
Time taken for this run:   0.034s

DOCKED: MODEL        13
DOCKED: USER    Run = 13
DOCKED: USER
DOCKED: USER    Estimated Free Energy of Binding    =  -7.85 kcal/mol  [=(1)+(2)+(3)-(4)]
DOCKED: USER
DOCKED: USER    (1) Final Intermolecular Energy     =  -9.34 kcal/mol
DOCKED: USER        vdW + Hbond + desolv Energy     =  -8.39 kcal/mol
DOCKED: USER        Electrostatic Energy            =  -0.95 kcal/mol
DOCKED: USER        Moving Ligand-Fixed Receptor    =  -9.34 kcal/mol
DOCKED: USER        Moving Ligand-Moving Receptor   =  +0.00 kcal/mol
DOCKED: USER    (2) Final Total Internal Energy     =  -1.46 kcal/mol
DOCKED: USER    (3) Torsional Free Energy           =  +1.49 kcal/mol
DOCKED: USER    (4) Unbound System's Energy         =  -1.46 kcal/mol
DOCKED: USER
DOCKED: USER
DOCKED: REMARK SMILES [N-]=C(O)c1ccc2cc(C(=O)N3C[C@]4(CCN([C@@H]5CCNC5)C4)c4ccccc43)[nH]c2c1
DOCKED: REMARK SMILES IDX 4 1 5 2 6 3 7 4 8 5 9 6 30 7 31 8 32 9 2 11 1 12 3 13 10 15
DOCKED: REMARK SMILES IDX 11 16 12 17 13 18 29 19 14 20 28 21 24 22 15 23 23 24 27 25
DOCKED: REMARK SMILES IDX 25 26 16 27 17 28 26 29 18 30 19 31 22 32 20 33 21 34
DOCKED: REMARK H PARENT 30 10 3 14 21 35
DOCKED: USER                              x       y       z     vdW  Elec       q    Type
DOCKED: USER                           _______ _______ _______ _____ _____    ______ ____
DOCKED: ROOT
DOCKED: ATOM      1  C   UNL     1     144.347  73.752 220.200 -0.44 +0.00    -0.006 A  
DOCKED: ATOM      2  C   UNL     1     144.330  75.085 219.705 -0.14 -0.01    +0.010 A  
DOCKED: ATOM      3  C   UNL     1     143.174  75.878 219.807 -0.37 -0.01    +0.011 A  
DOCKED: ATOM      4  C   UNL     1     142.049  75.315 220.400 -0.30 -0.00    +0.000 A  
DOCKED: ATOM      5  C   UNL     1     140.801  75.846 220.637 -0.23 -0.01    +0.042 A  
DOCKED: ATOM      6  C   UNL     1     140.086  74.823 221.260 -0.24 -0.02    +0.106 A  
DOCKED: ATOM      7  N   UNL     1     140.859  73.723 221.416 -0.14 +0.04    -0.350 N  
DOCKED: ATOM      8  C   UNL     1     142.051  74.035 220.882 -0.26 -0.01    +0.047 A  
DOCKED: ATOM      9  C   UNL     1     143.181  73.222 220.802 -0.27 -0.01    +0.036 A  
DOCKED: ATOM     10  H   UNL     1     140.588  72.816 221.857 +0.05 -0.02    +0.167 HD 
DOCKED: ENDROOT
DOCKED: BRANCH   1  11
DOCKED: ATOM     11  C   UNL     1     145.565  72.914 220.094 -0.53 -0.00    -0.000 C  
DOCKED: ATOM     12  N   UNL     1     145.939  72.439 218.950 -0.40 -0.72    -0.771 NA 
DOCKED: BRANCH  11  13
DOCKED: ATOM     13  O   UNL     1     146.324  72.639 221.228 -0.20 +0.04    -0.532 OA 
DOCKED: ATOM     14  H   UNL     1     146.035  71.930 221.893 -0.35 -0.27    +0.290 HD 
DOCKED: ENDBRANCH  11  13
DOCKED: ENDBRANCH   1  11
DOCKED: BRANCH   6  15
DOCKED: ATOM     15  C   UNL     1     138.693  74.907 221.739 -0.15 -0.07    +0.274 C  
DOCKED: ATOM     16  O   UNL     1     138.027  73.842 221.853 -0.13 +0.08    -0.267 OA 
DOCKED: BRANCH  15  17
DOCKED: ATOM     17  N   UNL     1     138.073  76.171 222.037 -0.14 +0.07    -0.306 N  
DOCKED: ATOM     18  C   UNL     1     138.720  77.229 222.819 -0.13 -0.02    +0.139 C  
DOCKED: ATOM     19  C   UNL     1     137.025  76.757 221.280 -0.10 -0.01    +0.048 A  
DOCKED: ATOM     20  C   UNL     1     138.103  78.581 222.321 -0.22 -0.00    +0.029 C  
DOCKED: ATOM     21  C   UNL     1     136.080  76.086 220.493 -0.04 -0.00    +0.026 A  
DOCKED: ATOM     22  C   UNL     1     136.985  78.119 221.431 -0.10 +0.00    -0.015 A  
DOCKED: ATOM     23  C   UNL     1     137.623  79.490 223.463 -0.20 -0.00    +0.030 C  
DOCKED: ATOM     24  C   UNL     1     139.122  79.439 221.545 -0.15 -0.02    +0.098 C  
DOCKED: ATOM     25  C   UNL     1     135.100  76.842 219.830 -0.01 -0.00    +0.002 A  
DOCKED: ATOM     26  C   UNL     1     136.021  78.892 220.772 -0.04 -0.00    +0.006 A  
DOCKED: ATOM     27  C   UNL     1     138.325  80.818 223.223 -0.28 -0.01    +0.086 C  
DOCKED: ATOM     28  N   UNL     1     139.529  80.556 222.416 -0.11 +0.05    -0.298 NA 
DOCKED: ATOM     29  C   UNL     1     135.074  78.242 219.966 -0.01 -0.00    +0.000 A  
DOCKED: BRANCH  28  30
DOCKED: ATOM     30  C   UNL     1     140.702  80.206 223.265 -0.44 -0.01    +0.071 C  
DOCKED: ATOM     31  C   UNL     1     141.698  81.350 223.363 -0.53 -0.01    +0.036 C  
DOCKED: ATOM     32  C   UNL     1     141.549  79.083 222.658 -0.46 -0.04    +0.100 C  
DOCKED: ATOM     33  C   UNL     1     143.042  80.674 223.551 -0.55 -0.02    +0.082 C  
DOCKED: ATOM     34  N   UNL     1     142.952  79.322 223.002 -0.27 +0.15    -0.315 NA 
DOCKED: ATOM     35  H   UNL     1     143.526  79.275 222.126 -0.51 -0.10    +0.122 HD 
DOCKED: ENDBRANCH  28  30
DOCKED: ENDBRANCH  15  17
DOCKED: ENDBRANCH   6  15
DOCKED: TORSDOF 5
DOCKED: TER
DOCKED: ENDMDL
________________________________________________________________________________


    FINAL DOCKED STATE:
    ________________________


Run:   14 / 20
Time taken for this run:   0.034s

DOCKED: MODEL        14
DOCKED: USER    Run = 14
DOCKED: USER
DOCKED: USER    Estimated Free Energy of Binding    =  -8.24 kcal/mol  [=(1)+(2)+(3)-(4)]
DOCKED: USER
DOCKED: USER    (1) Final Intermolecular Energy     =  -9.73 kcal/mol
DOCKED: USER        vdW + Hbond + desolv Energy     =  -8.85 kcal/mol
DOCKED: USER        Electrostatic Energy            =  -0.88 kcal/mol
DOCKED: USER        Moving Ligand-Fixed Receptor    =  -9.73 kcal/mol
DOCKED: USER        Moving Ligand-Moving Receptor   =  +0.00 kcal/mol
DOCKED: USER    (2) Final Total Internal Energy     =  -1.08 kcal/mol
DOCKED: USER    (3) Torsional Free Energy           =  +1.49 kcal/mol
DOCKED: USER    (4) Unbound System's Energy         =  -1.08 kcal/mol
DOCKED: USER
DOCKED: USER
DOCKED: REMARK SMILES [N-]=C(O)c1ccc2cc(C(=O)N3C[C@]4(CCN([C@@H]5CCNC5)C4)c4ccccc43)[nH]c2c1
DOCKED: REMARK SMILES IDX 4 1 5 2 6 3 7 4 8 5 9 6 30 7 31 8 32 9 2 11 1 12 3 13 10 15
DOCKED: REMARK SMILES IDX 11 16 12 17 13 18 29 19 14 20 28 21 24 22 15 23 23 24 27 25
DOCKED: REMARK SMILES IDX 25 26 16 27 17 28 26 29 18 30 19 31 22 32 20 33 21 34
DOCKED: REMARK H PARENT 30 10 3 14 21 35
DOCKED: USER                              x       y       z     vdW  Elec       q    Type
DOCKED: USER                           _______ _______ _______ _____ _____    ______ ____
DOCKED: ROOT
DOCKED: ATOM      1  C   UNL     1     144.328  74.014 219.051 -0.27 +0.00    -0.006 A  
DOCKED: ATOM      2  C   UNL     1     143.733  74.507 217.858 -0.18 -0.00    +0.010 A  
DOCKED: ATOM      3  C   UNL     1     142.564  75.287 217.905 -0.15 -0.00    +0.011 A  
DOCKED: ATOM      4  C   UNL     1     142.009  75.554 219.152 -0.20 -0.00    +0.000 A  
DOCKED: ATOM      5  C   UNL     1     140.892  76.281 219.498 -0.13 -0.02    +0.042 A  
DOCKED: ATOM      6  C   UNL     1     140.829  76.204 220.890 -0.24 -0.04    +0.106 A  
DOCKED: ATOM      7  N   UNL     1     141.865  75.482 221.378 +0.00 +0.15    -0.350 N  
DOCKED: ATOM      8  C   UNL     1     142.572  75.087 220.307 -0.29 -0.02    +0.047 A  
DOCKED: ATOM      9  C   UNL     1     143.733  74.315 220.299 -0.38 -0.01    +0.036 A  
DOCKED: ATOM     10  H   UNL     1     142.073  75.270 222.380 -0.37 -0.05    +0.167 HD 
DOCKED: ENDROOT
DOCKED: BRANCH   1  11
DOCKED: ATOM     11  C   UNL     1     145.561  73.192 219.003 -0.31 -0.00    -0.000 C  
DOCKED: ATOM     12  N   UNL     1     145.622  72.139 218.253 -0.35 -0.63    -0.771 NA 
DOCKED: BRANCH  11  13
DOCKED: ATOM     13  O   UNL     1     146.671  73.553 219.763 -0.40 -0.25    -0.532 OA 
DOCKED: ATOM     14  H   UNL     1     147.050  74.492 219.724 -0.39 -0.02    +0.290 HD 
DOCKED: ENDBRANCH  11  13
DOCKED: ENDBRANCH   1  11
DOCKED: BRANCH   6  15
DOCKED: ATOM     15  C   UNL     1     139.816  76.847 221.748 -0.21 -0.07    +0.274 C  
DOCKED: ATOM     16  O   UNL     1     138.966  76.120 222.330 -0.27 +0.06    -0.267 OA 
DOCKED: BRANCH  15  17
DOCKED: ATOM     17  N   UNL     1     139.754  78.277 221.900 -0.10 +0.08    -0.306 N  
DOCKED: ATOM     18  C   UNL     1     138.499  79.030 221.989 -0.16 -0.03    +0.139 C  
DOCKED: ATOM     19  C   UNL     1     140.793  79.080 222.442 -0.38 -0.01    +0.048 A  
DOCKED: ATOM     20  C   UNL     1     138.817  80.314 222.831 -0.30 -0.00    +0.029 C  
DOCKED: ATOM     21  C   UNL     1     142.163  78.792 222.442 -0.39 -0.01    +0.026 A  
DOCKED: ATOM     22  C   UNL     1     140.314  80.257 222.956 -0.40 +0.00    -0.015 A  
DOCKED: ATOM     23  C   UNL     1     138.321  81.611 222.176 -0.18 -0.00    +0.030 C  
DOCKED: ATOM     24  C   UNL     1     138.137  80.291 224.214 -0.31 -0.01    +0.098 C  
DOCKED: ATOM     25  C   UNL     1     143.045  79.725 223.011 -0.58 -0.00    +0.002 A  
DOCKED: ATOM     26  C   UNL     1     141.175  81.196 223.535 -0.49 -0.00    +0.006 A  
DOCKED: ATOM     27  C   UNL     1     137.465  82.280 223.242 -0.13 -0.01    +0.086 C  
DOCKED: ATOM     28  N   UNL     1     137.008  81.238 224.177 -0.15 +0.03    -0.298 NA 
DOCKED: ATOM     29  C   UNL     1     142.551  80.922 223.560 -0.65 -0.00    +0.000 A  
DOCKED: BRANCH  28  30
DOCKED: ATOM     30  C   UNL     1     135.748  80.591 223.716 -0.15 -0.01    +0.071 C  
DOCKED: ATOM     31  C   UNL     1     134.604  80.809 224.693 -0.14 -0.00    +0.036 C  
DOCKED: ATOM     32  C   UNL     1     135.857  79.064 223.673 -0.07 -0.01    +0.100 C  
DOCKED: ATOM     33  C   UNL     1     133.725  79.584 224.535 -0.10 -0.01    +0.082 C  
DOCKED: ATOM     34  N   UNL     1     134.553  78.495 224.016 -0.06 +0.04    -0.315 NA 
DOCKED: ATOM     35  H   UNL     1     134.685  77.782 224.772 +0.03 -0.01    +0.122 HD 
DOCKED: ENDBRANCH  28  30
DOCKED: ENDBRANCH  15  17
DOCKED: ENDBRANCH   6  15
DOCKED: TORSDOF 5
DOCKED: TER
DOCKED: ENDMDL
________________________________________________________________________________


    FINAL DOCKED STATE:
    ________________________


Run:   15 / 20
Time taken for this run:   0.034s

DOCKED: MODEL        15
DOCKED: USER    Run = 15
DOCKED: USER
DOCKED: USER    Estimated Free Energy of Binding    =  -7.97 kcal/mol  [=(1)+(2)+(3)-(4)]
DOCKED: USER
DOCKED: USER    (1) Final Intermolecular Energy     =  -9.46 kcal/mol
DOCKED: USER        vdW + Hbond + desolv Energy     =  -8.40 kcal/mol
DOCKED: USER        Electrostatic Energy            =  -1.06 kcal/mol
DOCKED: USER        Moving Ligand-Fixed Receptor    =  -9.46 kcal/mol
DOCKED: USER        Moving Ligand-Moving Receptor   =  +0.00 kcal/mol
DOCKED: USER    (2) Final Total Internal Energy     =  -1.27 kcal/mol
DOCKED: USER    (3) Torsional Free Energy           =  +1.49 kcal/mol
DOCKED: USER    (4) Unbound System's Energy         =  -1.27 kcal/mol
DOCKED: USER
DOCKED: USER
DOCKED: REMARK SMILES [N-]=C(O)c1ccc2cc(C(=O)N3C[C@]4(CCN([C@@H]5CCNC5)C4)c4ccccc43)[nH]c2c1
DOCKED: REMARK SMILES IDX 4 1 5 2 6 3 7 4 8 5 9 6 30 7 31 8 32 9 2 11 1 12 3 13 10 15
DOCKED: REMARK SMILES IDX 11 16 12 17 13 18 29 19 14 20 28 21 24 22 15 23 23 24 27 25
DOCKED: REMARK SMILES IDX 25 26 16 27 17 28 26 29 18 30 19 31 22 32 20 33 21 34
DOCKED: REMARK H PARENT 30 10 3 14 21 35
DOCKED: USER                              x       y       z     vdW  Elec       q    Type
DOCKED: USER                           _______ _______ _______ _____ _____    ______ ____
DOCKED: ROOT
DOCKED: ATOM      1  C   UNL     1     144.448  73.792 220.285 -0.47 +0.00    -0.006 A  
DOCKED: ATOM      2  C   UNL     1     143.231  73.167 220.674 -0.30 -0.00    +0.010 A  
DOCKED: ATOM      3  C   UNL     1     142.019  73.881 220.663 -0.27 -0.00    +0.011 A  
DOCKED: ATOM      4  C   UNL     1     142.052  75.213 220.266 -0.29 -0.00    +0.000 A  
DOCKED: ATOM      5  C   UNL     1     141.039  76.139 220.154 -0.19 -0.02    +0.042 A  
DOCKED: ATOM      6  C   UNL     1     141.663  77.305 219.710 -0.22 -0.06    +0.106 A  
DOCKED: ATOM      7  N   UNL     1     142.991  77.103 219.539 -0.16 +0.27    -0.350 N  
DOCKED: ATOM      8  C   UNL     1     143.215  75.825 219.888 -0.33 -0.03    +0.047 A  
DOCKED: ATOM      9  C   UNL     1     144.433  75.148 219.882 -0.14 -0.02    +0.036 A  
DOCKED: ATOM     10  H   UNL     1     143.699  77.796 219.209 -0.44 -0.18    +0.167 HD 
DOCKED: ENDROOT
DOCKED: BRANCH   1  11
DOCKED: ATOM     11  C   UNL     1     145.726  73.041 220.295 -0.58 -0.00    -0.000 C  
DOCKED: ATOM     12  N   UNL     1     146.271  72.654 219.187 -0.28 -0.87    -0.771 NA 
DOCKED: BRANCH  11  13
DOCKED: ATOM     13  O   UNL     1     146.357  72.753 221.503 -0.21 +0.08    -0.532 OA 
DOCKED: ATOM     14  H   UNL     1     146.127  71.917 222.028 -0.31 -0.27    +0.290 HD 
DOCKED: ENDBRANCH  11  13
DOCKED: ENDBRANCH   1  11
DOCKED: BRANCH   6  15
DOCKED: ATOM     15  C   UNL     1     140.995  78.586 219.411 -0.10 -0.12    +0.274 C  
DOCKED: ATOM     16  O   UNL     1     140.940  78.973 218.212 -0.06 +0.13    -0.267 OA 
DOCKED: BRANCH  15  17
DOCKED: ATOM     17  N   UNL     1     140.448  79.413 220.454 -0.05 +0.11    -0.306 N  
DOCKED: ATOM     18  C   UNL     1     139.015  79.504 220.750 -0.08 -0.03    +0.139 C  
DOCKED: ATOM     19  C   UNL     1     141.166  79.858 221.595 -0.33 -0.02    +0.048 A  
DOCKED: ATOM     20  C   UNL     1     138.904  79.861 222.272 -0.23 -0.01    +0.029 C  
DOCKED: ATOM     21  C   UNL     1     142.550  80.047 221.695 -0.30 -0.01    +0.026 A  
DOCKED: ATOM     22  C   UNL     1     140.331  80.151 222.642 -0.36 +0.00    -0.015 A  
DOCKED: ATOM     23  C   UNL     1     137.961  81.040 222.555 -0.20 -0.00    +0.030 C  
DOCKED: ATOM     24  C   UNL     1     138.333  78.698 223.107 -0.21 -0.01    +0.098 C  
DOCKED: ATOM     25  C   UNL     1     143.077  80.517 222.909 -0.62 -0.00    +0.002 A  
DOCKED: ATOM     26  C   UNL     1     140.838  80.613 223.863 -0.42 -0.00    +0.006 A  
DOCKED: ATOM     27  C   UNL     1     136.973  80.508 223.582 -0.22 -0.01    +0.086 C  
DOCKED: ATOM     28  N   UNL     1     136.946  79.039 223.468 -0.05 +0.04    -0.298 NA 
DOCKED: ATOM     29  C   UNL     1     142.223  80.795 223.991 -0.60 -0.00    +0.000 A  
DOCKED: BRANCH  28  30
DOCKED: ATOM     30  C   UNL     1     135.969  78.580 222.441 -0.12 -0.01    +0.071 C  
DOCKED: ATOM     31  C   UNL     1     134.706  78.011 223.067 -0.11 -0.00    +0.036 C  
DOCKED: ATOM     32  C   UNL     1     136.494  77.394 221.625 -0.09 -0.02    +0.100 C  
DOCKED: ATOM     33  C   UNL     1     134.218  76.975 222.075 -0.05 -0.01    +0.082 C  
DOCKED: ATOM     34  N   UNL     1     135.364  76.531 221.281 -0.01 +0.05    -0.315 NA 
DOCKED: ATOM     35  H   UNL     1     135.599  75.545 221.551 +0.02 -0.02    +0.122 HD 
DOCKED: ENDBRANCH  28  30
DOCKED: ENDBRANCH  15  17
DOCKED: ENDBRANCH   6  15
DOCKED: TORSDOF 5
DOCKED: TER
DOCKED: ENDMDL
________________________________________________________________________________


    FINAL DOCKED STATE:
    ________________________


Run:   16 / 20
Time taken for this run:   0.034s

DOCKED: MODEL        16
DOCKED: USER    Run = 16
DOCKED: USER
DOCKED: USER    Estimated Free Energy of Binding    =  -7.80 kcal/mol  [=(1)+(2)+(3)-(4)]
DOCKED: USER
DOCKED: USER    (1) Final Intermolecular Energy     =  -9.29 kcal/mol
DOCKED: USER        vdW + Hbond + desolv Energy     =  -8.18 kcal/mol
DOCKED: USER        Electrostatic Energy            =  -1.11 kcal/mol
DOCKED: USER        Moving Ligand-Fixed Receptor    =  -9.29 kcal/mol
DOCKED: USER        Moving Ligand-Moving Receptor   =  +0.00 kcal/mol
DOCKED: USER    (2) Final Total Internal Energy     =  -1.24 kcal/mol
DOCKED: USER    (3) Torsional Free Energy           =  +1.49 kcal/mol
DOCKED: USER    (4) Unbound System's Energy         =  -1.24 kcal/mol
DOCKED: USER
DOCKED: USER
DOCKED: REMARK SMILES [N-]=C(O)c1ccc2cc(C(=O)N3C[C@]4(CCN([C@@H]5CCNC5)C4)c4ccccc43)[nH]c2c1
DOCKED: REMARK SMILES IDX 4 1 5 2 6 3 7 4 8 5 9 6 30 7 31 8 32 9 2 11 1 12 3 13 10 15
DOCKED: REMARK SMILES IDX 11 16 12 17 13 18 29 19 14 20 28 21 24 22 15 23 23 24 27 25
DOCKED: REMARK SMILES IDX 25 26 16 27 17 28 26 29 18 30 19 31 22 32 20 33 21 34
DOCKED: REMARK H PARENT 30 10 3 14 21 35
DOCKED: USER                              x       y       z     vdW  Elec       q    Type
DOCKED: USER                           _______ _______ _______ _____ _____    ______ ____
DOCKED: ROOT
DOCKED: ATOM      1  C   UNL     1     144.955  73.530 219.338 -0.35 +0.00    -0.006 A  
DOCKED: ATOM      2  C   UNL     1     144.521  73.339 217.998 -0.18 -0.00    +0.010 A  
DOCKED: ATOM      3  C   UNL     1     143.689  74.282 217.368 -0.14 -0.00    +0.011 A  
DOCKED: ATOM      4  C   UNL     1     143.304  75.401 218.098 -0.23 -0.00    +0.000 A  
DOCKED: ATOM      5  C   UNL     1     142.514  76.472 217.745 -0.20 -0.02    +0.042 A  
DOCKED: ATOM      6  C   UNL     1     142.479  77.283 218.880 -0.28 -0.07    +0.106 A  
DOCKED: ATOM      7  N   UNL     1     143.224  76.748 219.875 -0.15 +0.28    -0.350 N  
DOCKED: ATOM      8  C   UNL     1     143.716  75.598 219.387 -0.35 -0.03    +0.047 A  
DOCKED: ATOM      9  C   UNL     1     144.544  74.687 220.041 -0.35 -0.02    +0.036 A  
DOCKED: ATOM     10  H   UNL     1     143.383  77.144 220.829 -0.41 -0.21    +0.167 HD 
DOCKED: ENDROOT
DOCKED: BRANCH   1  11
DOCKED: ATOM     11  C   UNL     1     145.832  72.538 220.004 -0.47 -0.00    -0.000 C  
DOCKED: ATOM     12  N   UNL     1     146.321  71.541 219.339 +0.05 -0.94    -0.771 NA 
DOCKED: BRANCH  11  13
DOCKED: ATOM     13  O   UNL     1     146.143  72.676 221.354 -0.19 +0.09    -0.532 OA 
DOCKED: ATOM     14  H   UNL     1     145.905  71.952 222.024 -0.34 -0.28    +0.290 HD 
DOCKED: ENDBRANCH  11  13
DOCKED: ENDBRANCH   1  11
DOCKED: BRANCH   6  15
DOCKED: ATOM     15  C   UNL     1     141.777  78.575 219.000 -0.16 -0.16    +0.274 C  
DOCKED: ATOM     16  O   UNL     1     142.039  79.485 218.167 -0.20 +0.20    -0.267 OA 
DOCKED: BRANCH  15  17
DOCKED: ATOM     17  N   UNL     1     140.841  78.830 220.062 -0.07 +0.13    -0.306 N  
DOCKED: ATOM     18  C   UNL     1     139.593  78.080 220.242 -0.08 -0.04    +0.139 C  
DOCKED: ATOM     19  C   UNL     1     141.165  79.453 221.296 -0.31 -0.02    +0.048 A  
DOCKED: ATOM     20  C   UNL     1     139.271  78.127 221.775 -0.23 -0.01    +0.029 C  
DOCKED: ATOM     21  C   UNL     1     142.207  80.358 221.531 -0.42 -0.01    +0.026 A  
DOCKED: ATOM     22  C   UNL     1     140.287  79.107 222.290 -0.33 +0.00    -0.015 A  
DOCKED: ATOM     23  C   UNL     1     137.826  78.547 222.082 -0.18 -0.01    +0.030 C  
DOCKED: ATOM     24  C   UNL     1     139.427  76.750 222.450 -0.26 -0.02    +0.098 C  
DOCKED: ATOM     25  C   UNL     1     142.358  80.887 222.823 -0.59 -0.00    +0.002 A  
DOCKED: ATOM     26  C   UNL     1     140.425  79.617 223.587 -0.48 -0.00    +0.006 A  
DOCKED: ATOM     27  C   UNL     1     137.280  77.437 222.968 -0.09 -0.01    +0.086 C  
DOCKED: ATOM     28  N   UNL     1     138.077  76.224 222.720 -0.18 +0.07    -0.298 NA 
DOCKED: ATOM     29  C   UNL     1     141.472  80.514 223.849 -0.55 -0.00    +0.000 A  
DOCKED: BRANCH  28  30
DOCKED: ATOM     30  C   UNL     1     137.543  75.433 221.576 -0.16 -0.02    +0.071 C  
DOCKED: ATOM     31  C   UNL     1     136.699  74.256 222.040 -0.14 -0.01    +0.036 C  
DOCKED: ATOM     32  C   UNL     1     138.652  74.745 220.773 -0.12 -0.02    +0.100 C  
DOCKED: ATOM     33  C   UNL     1     136.874  73.208 220.959 -0.06 -0.02    +0.082 C  
DOCKED: ATOM     34  N   UNL     1     138.140  73.468 220.275 -0.01 +0.06    -0.315 NA 
DOCKED: ATOM     35  H   UNL     1     138.821  72.711 220.528 +0.02 -0.02    +0.122 HD 
DOCKED: ENDBRANCH  28  30
DOCKED: ENDBRANCH  15  17
DOCKED: ENDBRANCH   6  15
DOCKED: TORSDOF 5
DOCKED: TER
DOCKED: ENDMDL
________________________________________________________________________________


    FINAL DOCKED STATE:
    ________________________


Run:   17 / 20
Time taken for this run:   0.034s

DOCKED: MODEL        17
DOCKED: USER    Run = 17
DOCKED: USER
DOCKED: USER    Estimated Free Energy of Binding    =  -7.96 kcal/mol  [=(1)+(2)+(3)-(4)]
DOCKED: USER
DOCKED: USER    (1) Final Intermolecular Energy     =  -9.46 kcal/mol
DOCKED: USER        vdW + Hbond + desolv Energy     =  -8.69 kcal/mol
DOCKED: USER        Electrostatic Energy            =  -0.77 kcal/mol
DOCKED: USER        Moving Ligand-Fixed Receptor    =  -9.46 kcal/mol
DOCKED: USER        Moving Ligand-Moving Receptor   =  +0.00 kcal/mol
DOCKED: USER    (2) Final Total Internal Energy     =  -1.24 kcal/mol
DOCKED: USER    (3) Torsional Free Energy           =  +1.49 kcal/mol
DOCKED: USER    (4) Unbound System's Energy         =  -1.24 kcal/mol
DOCKED: USER
DOCKED: USER
DOCKED: REMARK SMILES [N-]=C(O)c1ccc2cc(C(=O)N3C[C@]4(CCN([C@@H]5CCNC5)C4)c4ccccc43)[nH]c2c1
DOCKED: REMARK SMILES IDX 4 1 5 2 6 3 7 4 8 5 9 6 30 7 31 8 32 9 2 11 1 12 3 13 10 15
DOCKED: REMARK SMILES IDX 11 16 12 17 13 18 29 19 14 20 28 21 24 22 15 23 23 24 27 25
DOCKED: REMARK SMILES IDX 25 26 16 27 17 28 26 29 18 30 19 31 22 32 20 33 21 34
DOCKED: REMARK H PARENT 30 10 3 14 21 35
DOCKED: USER                              x       y       z     vdW  Elec       q    Type
DOCKED: USER                           _______ _______ _______ _____ _____    ______ ____
DOCKED: ROOT
DOCKED: ATOM      1  C   UNL     1     144.369  73.957 220.426 -0.48 +0.00    -0.006 A  
DOCKED: ATOM      2  C   UNL     1     143.200  73.259 220.838 -0.29 -0.00    +0.010 A  
DOCKED: ATOM      3  C   UNL     1     141.946  73.894 220.840 -0.28 -0.00    +0.011 A  
DOCKED: ATOM      4  C   UNL     1     141.887  75.223 220.433 -0.29 -0.00    +0.000 A  
DOCKED: ATOM      5  C   UNL     1     140.815  76.080 220.330 -0.20 -0.01    +0.042 A  
DOCKED: ATOM      6  C   UNL     1     141.357  77.280 219.868 -0.20 -0.05    +0.106 A  
DOCKED: ATOM      7  N   UNL     1     142.693  77.162 219.678 -0.16 +0.25    -0.350 N  
DOCKED: ATOM      8  C   UNL     1     143.003  75.904 220.033 -0.30 -0.03    +0.047 A  
DOCKED: ATOM      9  C   UNL     1     144.262  75.306 220.013 -0.27 -0.02    +0.036 A  
DOCKED: ATOM     10  H   UNL     1     143.350  77.896 219.332 -0.42 -0.17    +0.167 HD 
DOCKED: ENDROOT
DOCKED: BRANCH   1  11
DOCKED: ATOM     11  C   UNL     1     145.693  73.290 220.422 -0.62 +0.00    -0.000 C  
DOCKED: ATOM     12  N   UNL     1     146.265  72.968 219.306 -0.36 -0.63    -0.771 NA 
DOCKED: BRANCH  11  13
DOCKED: ATOM     13  O   UNL     1     146.338  73.010 221.624 -0.30 +0.08    -0.532 OA 
DOCKED: ATOM     14  H   UNL     1     146.289  72.088 222.044 -0.31 -0.21    +0.290 HD 
DOCKED: ENDBRANCH  11  13
DOCKED: ENDBRANCH   1  11
DOCKED: BRANCH   6  15
DOCKED: ATOM     15  C   UNL     1     140.605  78.513 219.570 -0.08 -0.11    +0.274 C  
DOCKED: ATOM     16  O   UNL     1     140.261  78.739 218.378 -0.03 +0.10    -0.267 OA 
DOCKED: BRANCH  15  17
DOCKED: ATOM     17  N   UNL     1     140.294  79.474 220.595 -0.05 +0.10    -0.306 N  
DOCKED: ATOM     18  C   UNL     1     138.927  79.824 220.992 -0.09 -0.03    +0.139 C  
DOCKED: ATOM     19  C   UNL     1     141.171  79.848 221.647 -0.34 -0.02    +0.048 A  
DOCKED: ATOM     20  C   UNL     1     139.007  80.273 222.492 -0.26 -0.00    +0.029 C  
DOCKED: ATOM     21  C   UNL     1     142.571  79.802 221.630 -0.14 -0.01    +0.026 A  
DOCKED: ATOM     22  C   UNL     1     140.489  80.333 222.733 -0.39 +0.00    -0.015 A  
DOCKED: ATOM     23  C   UNL     1     138.302  81.608 222.768 -0.22 -0.00    +0.030 C  
DOCKED: ATOM     24  C   UNL     1     138.324  79.269 223.441 -0.21 -0.01    +0.098 C  
DOCKED: ATOM     25  C   UNL     1     143.270  80.236 222.768 -0.59 -0.00    +0.002 A  
DOCKED: ATOM     26  C   UNL     1     141.168  80.763 223.880 -0.45 -0.00    +0.006 A  
DOCKED: ATOM     27  C   UNL     1     137.330  81.306 223.899 -0.26 -0.01    +0.086 C  
DOCKED: ATOM     28  N   UNL     1     137.049  79.860 223.883 -0.11 +0.03    -0.298 NA 
DOCKED: ATOM     29  C   UNL     1     142.570  80.711 223.891 -0.67 -0.00    +0.000 A  
DOCKED: BRANCH  28  30
DOCKED: ATOM     30  C   UNL     1     135.925  79.523 222.965 -0.13 -0.01    +0.071 C  
DOCKED: ATOM     31  C   UNL     1     136.279  78.383 222.023 -0.11 -0.01    +0.036 C  
DOCKED: ATOM     32  C   UNL     1     135.603  80.663 221.993 -0.05 -0.01    +0.100 C  
DOCKED: ATOM     33  C   UNL     1     135.466  78.651 220.772 -0.02 -0.01    +0.082 C  
DOCKED: ATOM     34  N   UNL     1     135.166  80.082 220.723 -0.00 +0.05    -0.315 NA 
DOCKED: ATOM     35  H   UNL     1     135.719  80.516 219.946 +0.00 -0.02    +0.122 HD 
DOCKED: ENDBRANCH  28  30
DOCKED: ENDBRANCH  15  17
DOCKED: ENDBRANCH   6  15
DOCKED: TORSDOF 5
DOCKED: TER
DOCKED: ENDMDL
________________________________________________________________________________


    FINAL DOCKED STATE:
    ________________________


Run:   18 / 20
Time taken for this run:   0.034s

DOCKED: MODEL        18
DOCKED: USER    Run = 18
DOCKED: USER
DOCKED: USER    Estimated Free Energy of Binding    =  -7.78 kcal/mol  [=(1)+(2)+(3)-(4)]
DOCKED: USER
DOCKED: USER    (1) Final Intermolecular Energy     =  -9.27 kcal/mol
DOCKED: USER        vdW + Hbond + desolv Energy     =  -8.13 kcal/mol
DOCKED: USER        Electrostatic Energy            =  -1.14 kcal/mol
DOCKED: USER        Moving Ligand-Fixed Receptor    =  -9.27 kcal/mol
DOCKED: USER        Moving Ligand-Moving Receptor   =  +0.00 kcal/mol
DOCKED: USER    (2) Final Total Internal Energy     =  -1.26 kcal/mol
DOCKED: USER    (3) Torsional Free Energy           =  +1.49 kcal/mol
DOCKED: USER    (4) Unbound System's Energy         =  -1.26 kcal/mol
DOCKED: USER
DOCKED: USER
DOCKED: REMARK SMILES [N-]=C(O)c1ccc2cc(C(=O)N3C[C@]4(CCN([C@@H]5CCNC5)C4)c4ccccc43)[nH]c2c1
DOCKED: REMARK SMILES IDX 4 1 5 2 6 3 7 4 8 5 9 6 30 7 31 8 32 9 2 11 1 12 3 13 10 15
DOCKED: REMARK SMILES IDX 11 16 12 17 13 18 29 19 14 20 28 21 24 22 15 23 23 24 27 25
DOCKED: REMARK SMILES IDX 25 26 16 27 17 28 26 29 18 30 19 31 22 32 20 33 21 34
DOCKED: REMARK H PARENT 30 10 3 14 21 35
DOCKED: USER                              x       y       z     vdW  Elec       q    Type
DOCKED: USER                           _______ _______ _______ _____ _____    ______ ____
DOCKED: ROOT
DOCKED: ATOM      1  C   UNL     1     144.902  73.769 219.348 -0.33 +0.00    -0.006 A  
DOCKED: ATOM      2  C   UNL     1     144.575  73.659 217.968 -0.18 -0.00    +0.010 A  
DOCKED: ATOM      3  C   UNL     1     143.792  74.638 217.332 -0.16 -0.00    +0.011 A  
DOCKED: ATOM      4  C   UNL     1     143.344  75.711 218.097 -0.25 -0.00    +0.000 A  
DOCKED: ATOM      5  C   UNL     1     142.580  76.801 217.747 -0.24 -0.02    +0.042 A  
DOCKED: ATOM      6  C   UNL     1     142.452  77.543 218.922 -0.28 -0.07    +0.106 A  
DOCKED: ATOM      7  N   UNL     1     143.119  76.949 219.940 -0.06 +0.29    -0.350 N  
DOCKED: ATOM      8  C   UNL     1     143.653  75.830 219.423 -0.37 -0.03    +0.047 A  
DOCKED: ATOM      9  C   UNL     1     144.431  74.881 220.085 -0.40 -0.02    +0.036 A  
DOCKED: ATOM     10  H   UNL     1     143.201  77.286 220.925 -0.41 -0.21    +0.167 HD 
DOCKED: ENDROOT
DOCKED: BRANCH   1  11
DOCKED: ATOM     11  C   UNL     1     145.728  72.738 220.019 -0.50 -0.00    -0.000 C  
DOCKED: ATOM     12  N   UNL     1     146.318  71.814 219.330 -0.00 -0.98    -0.771 NA 
DOCKED: BRANCH  11  13
DOCKED: ATOM     13  O   UNL     1     145.884  72.759 221.403 -0.19 +0.12    -0.532 OA 
DOCKED: ATOM     14  H   UNL     1     145.777  71.916 221.956 -0.36 -0.28    +0.290 HD 
DOCKED: ENDBRANCH  11  13
DOCKED: ENDBRANCH   1  11
DOCKED: BRANCH   6  15
DOCKED: ATOM     15  C   UNL     1     141.737  78.825 219.064 -0.16 -0.16    +0.274 C  
DOCKED: ATOM     16  O   UNL     1     141.903  79.711 218.182 -0.19 +0.19    -0.267 OA 
DOCKED: BRANCH  15  17
DOCKED: ATOM     17  N   UNL     1     140.896  79.098 220.199 -0.08 +0.13    -0.306 N  
DOCKED: ATOM     18  C   UNL     1     139.536  78.569 220.348 -0.08 -0.04    +0.139 C  
DOCKED: ATOM     19  C   UNL     1     141.366  79.480 221.484 -0.35 -0.02    +0.048 A  
DOCKED: ATOM     20  C   UNL     1     139.273  78.466 221.890 -0.24 -0.01    +0.029 C  
DOCKED: ATOM     21  C   UNL     1     142.565  80.142 221.776 -0.37 -0.01    +0.026 A  
DOCKED: ATOM     22  C   UNL     1     140.468  79.167 222.471 -0.36 +0.00    -0.015 A  
DOCKED: ATOM     23  C   UNL     1     137.941  79.095 222.325 -0.20 -0.00    +0.030 C  
DOCKED: ATOM     24  C   UNL     1     139.189  77.005 222.374 -0.28 -0.02    +0.098 C  
DOCKED: ATOM     25  C   UNL     1     142.850  80.456 223.115 -0.66 -0.00    +0.002 A  
DOCKED: ATOM     26  C   UNL     1     140.737  79.464 223.813 -0.52 -0.00    +0.006 A  
DOCKED: ATOM     27  C   UNL     1     137.224  77.992 223.091 -0.04 -0.01    +0.086 C  
DOCKED: ATOM     28  N   UNL     1     137.774  76.700 222.647 -0.17 +0.06    -0.298 NA 
DOCKED: ATOM     29  C   UNL     1     141.939  80.113 224.131 -0.47 -0.00    +0.000 A  
DOCKED: BRANCH  28  30
DOCKED: ATOM     30  C   UNL     1     137.069  76.180 221.442 -0.12 -0.01    +0.071 C  
DOCKED: ATOM     31  C   UNL     1     138.039  75.751 220.353 -0.07 -0.01    +0.036 C  
DOCKED: ATOM     32  C   UNL     1     136.242  77.261 220.738 -0.04 -0.02    +0.100 C  
DOCKED: ATOM     33  C   UNL     1     137.288  75.982 219.057 -0.01 -0.02    +0.082 C  
DOCKED: ATOM     34  N   UNL     1     136.267  77.000 219.298 +0.00 +0.06    -0.315 NA 
DOCKED: ATOM     35  H   UNL     1     136.545  77.881 218.802 +0.00 -0.02    +0.122 HD 
DOCKED: ENDBRANCH  28  30
DOCKED: ENDBRANCH  15  17
DOCKED: ENDBRANCH   6  15
DOCKED: TORSDOF 5
DOCKED: TER
DOCKED: ENDMDL
________________________________________________________________________________


    FINAL DOCKED STATE:
    ________________________


Run:   19 / 20
Time taken for this run:   0.034s

DOCKED: MODEL        19
DOCKED: USER    Run = 19
DOCKED: USER
DOCKED: USER    Estimated Free Energy of Binding    =  -7.83 kcal/mol  [=(1)+(2)+(3)-(4)]
DOCKED: USER
DOCKED: USER    (1) Final Intermolecular Energy     =  -9.33 kcal/mol
DOCKED: USER        vdW + Hbond + desolv Energy     =  -8.35 kcal/mol
DOCKED: USER        Electrostatic Energy            =  -0.97 kcal/mol
DOCKED: USER        Moving Ligand-Fixed Receptor    =  -9.33 kcal/mol
DOCKED: USER        Moving Ligand-Moving Receptor   =  +0.00 kcal/mol
DOCKED: USER    (2) Final Total Internal Energy     =  -1.26 kcal/mol
DOCKED: USER    (3) Torsional Free Energy           =  +1.49 kcal/mol
DOCKED: USER    (4) Unbound System's Energy         =  -1.26 kcal/mol
DOCKED: USER
DOCKED: USER
DOCKED: REMARK SMILES [N-]=C(O)c1ccc2cc(C(=O)N3C[C@]4(CCN([C@@H]5CCNC5)C4)c4ccccc43)[nH]c2c1
DOCKED: REMARK SMILES IDX 4 1 5 2 6 3 7 4 8 5 9 6 30 7 31 8 32 9 2 11 1 12 3 13 10 15
DOCKED: REMARK SMILES IDX 11 16 12 17 13 18 29 19 14 20 28 21 24 22 15 23 23 24 27 25
DOCKED: REMARK SMILES IDX 25 26 16 27 17 28 26 29 18 30 19 31 22 32 20 33 21 34
DOCKED: REMARK H PARENT 30 10 3 14 21 35
DOCKED: USER                              x       y       z     vdW  Elec       q    Type
DOCKED: USER                           _______ _______ _______ _____ _____    ______ ____
DOCKED: ROOT
DOCKED: ATOM      1  C   UNL     1     144.988  73.686 219.132 -0.27 +0.00    -0.006 A  
DOCKED: ATOM      2  C   UNL     1     144.872  73.728 217.715 -0.17 -0.00    +0.010 A  
DOCKED: ATOM      3  C   UNL     1     144.163  74.763 217.080 -0.15 -0.00    +0.011 A  
DOCKED: ATOM      4  C   UNL     1     143.578  75.738 217.881 -0.23 -0.00    +0.000 A  
DOCKED: ATOM      5  C   UNL     1     142.843  76.852 217.542 -0.26 -0.03    +0.042 A  
DOCKED: ATOM      6  C   UNL     1     142.522  77.455 218.758 -0.28 -0.07    +0.106 A  
DOCKED: ATOM      7  N   UNL     1     143.048  76.758 219.793 -0.18 +0.26    -0.350 N  
DOCKED: ATOM      8  C   UNL     1     143.684  75.711 219.244 -0.34 -0.03    +0.047 A  
DOCKED: ATOM      9  C   UNL     1     144.382  74.703 219.907 -0.36 -0.02    +0.036 A  
DOCKED: ATOM     10  H   UNL     1     142.974  76.984 220.811 -0.39 -0.18    +0.167 HD 
DOCKED: ENDROOT
DOCKED: BRANCH   1  11
DOCKED: ATOM     11  C   UNL     1     145.735  72.596 219.804 -0.45 -0.00    -0.000 C  
DOCKED: ATOM     12  N   UNL     1     146.068  71.528 219.153 -0.06 -0.82    -0.771 NA 
DOCKED: BRANCH  11  13
DOCKED: ATOM     13  O   UNL     1     146.093  72.717 221.144 -0.21 +0.05    -0.532 OA 
DOCKED: ATOM     14  H   UNL     1     146.291  71.900 221.710 -0.35 -0.22    +0.290 HD 
DOCKED: ENDBRANCH  11  13
DOCKED: ENDBRANCH   1  11
DOCKED: BRANCH   6  15
DOCKED: ATOM     15  C   UNL     1     141.757  78.705 218.931 -0.16 -0.16    +0.274 C  
DOCKED: ATOM     16  O   UNL     1     141.935  79.641 218.104 -0.19 +0.19    -0.267 OA 
DOCKED: BRANCH  15  17
DOCKED: ATOM     17  N   UNL     1     140.854  78.891 220.035 -0.07 +0.13    -0.306 N  
DOCKED: ATOM     18  C   UNL     1     139.637  78.097 220.231 -0.08 -0.04    +0.139 C  
DOCKED: ATOM     19  C   UNL     1     141.205  79.478 221.279 -0.31 -0.02    +0.048 A  
DOCKED: ATOM     20  C   UNL     1     139.370  78.077 221.775 -0.24 -0.01    +0.029 C  
DOCKED: ATOM     21  C   UNL     1     142.228  80.406 221.511 -0.41 -0.01    +0.026 A  
DOCKED: ATOM     22  C   UNL     1     140.375  79.068 222.290 -0.33 +0.00    -0.015 A  
DOCKED: ATOM     23  C   UNL     1     137.926  78.441 222.150 -0.19 -0.01    +0.030 C  
DOCKED: ATOM     24  C   UNL     1     139.591  76.682 222.391 -0.29 -0.02    +0.098 C  
DOCKED: ATOM     25  C   UNL     1     142.412  80.891 222.815 -0.58 -0.00    +0.002 A  
DOCKED: ATOM     26  C   UNL     1     140.546  79.535 223.599 -0.49 -0.00    +0.006 A  
DOCKED: ATOM     27  C   UNL     1     137.446  77.283 223.012 -0.09 -0.01    +0.086 C  
DOCKED: ATOM     28  N   UNL     1     138.268  76.105 222.689 -0.19 +0.07    -0.298 NA 
DOCKED: ATOM     29  C   UNL     1     141.575  80.453 223.858 -0.56 -0.00    +0.000 A  
DOCKED: BRANCH  28  30
DOCKED: ATOM     30  C   UNL     1     137.716  75.341 221.536 -0.16 -0.02    +0.071 C  
DOCKED: ATOM     31  C   UNL     1     136.844  74.179 221.986 -0.15 -0.01    +0.036 C  
DOCKED: ATOM     32  C   UNL     1     138.808  74.637 220.724 -0.12 -0.02    +0.100 C  
DOCKED: ATOM     33  C   UNL     1     136.995  73.140 220.892 -0.06 -0.02    +0.082 C  
DOCKED: ATOM     34  N   UNL     1     138.267  73.378 220.211 -0.01 +0.06    -0.315 NA 
DOCKED: ATOM     35  H   UNL     1     138.930  72.603 220.455 +0.02 -0.02    +0.122 HD 
DOCKED: ENDBRANCH  28  30
DOCKED: ENDBRANCH  15  17
DOCKED: ENDBRANCH   6  15
DOCKED: TORSDOF 5
DOCKED: TER
DOCKED: ENDMDL
________________________________________________________________________________


    FINAL DOCKED STATE:
    ________________________


Run:   20 / 20
Time taken for this run:   0.034s

DOCKED: MODEL        20
DOCKED: USER    Run = 20
DOCKED: USER
DOCKED: USER    Estimated Free Energy of Binding    =  -8.00 kcal/mol  [=(1)+(2)+(3)-(4)]
DOCKED: USER
DOCKED: USER    (1) Final Intermolecular Energy     =  -9.49 kcal/mol
DOCKED: USER        vdW + Hbond + desolv Energy     =  -8.34 kcal/mol
DOCKED: USER        Electrostatic Energy            =  -1.16 kcal/mol
DOCKED: USER        Moving Ligand-Fixed Receptor    =  -9.49 kcal/mol
DOCKED: USER        Moving Ligand-Moving Receptor   =  +0.00 kcal/mol
DOCKED: USER    (2) Final Total Internal Energy     =  -1.12 kcal/mol
DOCKED: USER    (3) Torsional Free Energy           =  +1.49 kcal/mol
DOCKED: USER    (4) Unbound System's Energy         =  -1.12 kcal/mol
DOCKED: USER
DOCKED: USER
DOCKED: REMARK SMILES [N-]=C(O)c1ccc2cc(C(=O)N3C[C@]4(CCN([C@@H]5CCNC5)C4)c4ccccc43)[nH]c2c1
DOCKED: REMARK SMILES IDX 4 1 5 2 6 3 7 4 8 5 9 6 30 7 31 8 32 9 2 11 1 12 3 13 10 15
DOCKED: REMARK SMILES IDX 11 16 12 17 13 18 29 19 14 20 28 21 24 22 15 23 23 24 27 25
DOCKED: REMARK SMILES IDX 25 26 16 27 17 28 26 29 18 30 19 31 22 32 20 33 21 34
DOCKED: REMARK H PARENT 30 10 3 14 21 35
DOCKED: USER                              x       y       z     vdW  Elec       q    Type
DOCKED: USER                           _______ _______ _______ _____ _____    ______ ____
DOCKED: ROOT
DOCKED: ATOM      1  C   UNL     1     144.475  73.629 220.249 -0.46 +0.00    -0.006 A  
DOCKED: ATOM      2  C   UNL     1     143.411  72.782 220.666 -0.31 -0.00    +0.010 A  
DOCKED: ATOM      3  C   UNL     1     142.118  73.296 220.867 -0.27 -0.00    +0.011 A  
DOCKED: ATOM      4  C   UNL     1     141.916  74.655 220.650 -0.29 -0.00    +0.000 A  
DOCKED: ATOM      5  C   UNL     1     140.776  75.419 220.760 -0.24 -0.01    +0.042 A  
DOCKED: ATOM      6  C   UNL     1     141.174  76.712 220.418 -0.21 -0.05    +0.106 A  
DOCKED: ATOM      7  N   UNL     1     142.489  76.739 220.095 -0.15 +0.23    -0.350 N  
DOCKED: ATOM      8  C   UNL     1     142.929  75.480 220.247 -0.24 -0.03    +0.047 A  
DOCKED: ATOM      9  C   UNL     1     144.222  75.004 220.033 -0.38 -0.02    +0.036 A  
DOCKED: ATOM     10  H   UNL     1     143.050  77.567 219.793 -0.34 -0.15    +0.167 HD 
DOCKED: ENDROOT
DOCKED: BRANCH   1  11
DOCKED: ATOM     11  C   UNL     1     145.839  73.090 220.036 -0.55 -0.00    -0.000 C  
DOCKED: ATOM     12  N   UNL     1     146.324  72.978 218.841 -0.31 -0.89    -0.771 NA 
DOCKED: BRANCH  11  13
DOCKED: ATOM     13  O   UNL     1     146.616  72.705 221.126 -0.13 -0.04    -0.532 OA 
DOCKED: ATOM     14  H   UNL     1     146.330  71.943 221.731 -0.34 -0.21    +0.290 HD 
DOCKED: ENDBRANCH  11  13
DOCKED: ENDBRANCH   1  11
DOCKED: BRANCH   6  15
DOCKED: ATOM     15  C   UNL     1     140.302  77.900 220.358 -0.09 -0.10    +0.274 C  
DOCKED: ATOM     16  O   UNL     1     139.073  77.737 220.127 -0.03 +0.07    -0.267 OA 
DOCKED: BRANCH  15  17
DOCKED: ATOM     17  N   UNL     1     140.828  79.230 220.514 -0.08 +0.12    -0.306 N  
DOCKED: ATOM     18  C   UNL     1     140.428  80.365 219.676 -0.12 -0.05    +0.139 C  
DOCKED: ATOM     19  C   UNL     1     141.396  79.741 221.711 -0.37 -0.02    +0.048 A  
DOCKED: ATOM     20  C   UNL     1     140.616  81.648 220.557 -0.25 -0.01    +0.029 C  
DOCKED: ATOM     21  C   UNL     1     142.015  79.004 222.728 -0.53 -0.01    +0.026 A  
DOCKED: ATOM     22  C   UNL     1     141.324  81.109 221.768 -0.40 +0.00    -0.015 A  
DOCKED: ATOM     23  C   UNL     1     141.402  82.763 219.852 -0.17 -0.01    +0.030 C  
DOCKED: ATOM     24  C   UNL     1     139.272  82.300 220.937 -0.14 -0.02    +0.098 C  
DOCKED: ATOM     25  C   UNL     1     142.538  79.694 223.834 -0.55 -0.00    +0.002 A  
DOCKED: ATOM     26  C   UNL     1     141.833  81.815 222.865 -0.43 -0.00    +0.006 A  
DOCKED: ATOM     27  C   UNL     1     140.503  83.988 219.943 -0.18 -0.02    +0.086 C  
DOCKED: ATOM     28  N   UNL     1     139.118  83.522 220.127 -0.05 +0.06    -0.298 NA 
DOCKED: ATOM     29  C   UNL     1     142.443  81.095 223.903 -0.65 -0.00    +0.000 A  
DOCKED: BRANCH  28  30
DOCKED: ATOM     30  C   UNL     1     138.445  83.252 218.826 -0.04 -0.01    +0.071 C  
DOCKED: ATOM     31  C   UNL     1     137.593  84.426 218.370 -0.02 -0.01    +0.036 C  
DOCKED: ATOM     32  C   UNL     1     137.419  82.119 218.923 -0.02 -0.02    +0.100 C  
DOCKED: ATOM     33  C   UNL     1     136.474  83.797 217.563 -0.00 -0.01    +0.082 C  
DOCKED: ATOM     34  N   UNL     1     136.314  82.413 218.009 -0.00 +0.06    -0.315 NA 
DOCKED: ATOM     35  H   UNL     1     135.411  82.331 218.535 +0.00 -0.02    +0.122 HD 
DOCKED: ENDBRANCH  28  30
DOCKED: ENDBRANCH  15  17
DOCKED: ENDBRANCH   6  15
DOCKED: TORSDOF 5
DOCKED: TER
DOCKED: ENDMDL
________________________________________________________________________________


    CLUSTERING HISTOGRAM
    ____________________


________________________________________________________________________________
     |           |     |           |     |
Clus | Lowest    | Run | Mean      | Num | Histogram
-ter | Binding   |     | Binding   | in  |
Rank | Energy    |     | Energy    | Clus|    5    10   15   20   25   30   35
_____|___________|_____|___________|_____|____:____|____:____|____:____|____:___
   1 |     -8.34 |   7 |     -8.29 |  11 |###########
   2 |     -8.00 |  11 |     -7.98 |   2 |##
   3 |     -8.00 |  20 |     -8.00 |   1 |#
   4 |     -7.97 |  15 |     -7.87 |   2 |##
   5 |     -7.85 |  13 |     -7.83 |   2 |##
   6 |     -7.83 |  19 |     -7.82 |   2 |##
_____|___________|_____|___________|_____|______________________________________


    RMSD TABLE
    __________


_______________________________________________________________________
     |      |      |           |         |                 |
Rank | Sub- | Run  | Binding   | Cluster | Reference       | Grep
     | Rank |      | Energy    | RMSD    | RMSD            | Pattern
_____|______|______|___________|_________|_________________|___________
   1      1      7       -8.34      0.00    271.73           RANKING
   1      2      2       -8.34      0.06    271.69           RANKING
   1      3     12       -8.33      0.03    271.71           RANKING
   1      4     10       -8.33      0.05    271.72           RANKING
   1      5      5       -8.33      0.06    271.71           RANKING
   1      6      4       -8.32      0.03    271.73           RANKING
   1      7      6       -8.32      0.12    271.74           RANKING
   1      8      9       -8.29      0.11    271.76           RANKING
   1      9      8       -8.26      0.64    271.58           RANKING
   1     10     14       -8.24      0.61    271.64           RANKING
   1     11      1       -8.09      1.03    271.78           RANKING
   2      1     11       -8.00      0.00    271.03           RANKING
   2      2     17       -7.96      1.86    271.47           RANKING
   3      1     20       -8.00      0.00    271.24           RANKING
   4      1     15       -7.97      0.00    271.30           RANKING
   4      2     18       -7.78      1.59    270.86           RANKING
   5      1     13       -7.85      0.00    271.13           RANKING
   5      2      3       -7.81      0.26    271.16           RANKING
   6      1     19       -7.83      0.00    270.83           RANKING
   6      2     16       -7.80      0.28    270.85           RANKING

Run time 0.629 sec
Idle time 0.000 sec
