AutoDock-GPU version: v1.6

**********************************************************
**    AutoDock-GPU AUTODOCKTOOLS-COMPATIBLE DLG FILE    **
**********************************************************


    DOCKING PARAMETERS
    ________________________


Ligand file:                               /home/a/REINVENT4/ReinventStudies/scoringData/graph-dock-34dfml/graph-DockGPU/node-autodockgpu/inputs/BKKYOBILRJMROL-PIPLVQITNA-N.pdbqt
Grid fld file:                             /home/a/REINVENT4/ReinventStudies/mols/Rad51/maps/rad51_receptor.maps.fld

Random seed:                               42
Number of runs:                            20
Number of energy evaluations:              1132076
Number of generations:                     42000
Size of population:                        150
Rate of crossover:                         80.000000%
Tournament selection probability limit:    60.000000%
Rate of mutation:                          2.000000%
Maximal allowed delta movement:            +/- 6.000000A
Maximal allowed delta angle:               +/- 90.000000

Rate of local search:                      100.000000%
Maximal number of local search iterations: 300
Rho lower bound:                           0.010000
Spread of local search delta movement:     2.000000A
Spread of local search delta angle:        74.999999
Limit of consecutive successes/failures:   4

Handle symmetry during clustering:         YES
RMSD tolerance:                            2.000000A

Program call in command line was:          /home/a/REINVENT4/ReinventStudies/adgpu-v1.6_linux_x64_cuda12_128wi --filelist batch.txt --heuristics 1 --nrun 20 --psize 150 --lsit 300 --seed 42 --heurmax 12000000 


    GRID PARAMETERS
    ________________________


Receptor name:                             rad51_receptor
Number of grid points (x, y, z):           53, 53, 53
Grid center (x, y, z):                     139.950000, 75.640000, 221.970000A
Grid size (x, y, z):                       19.500000, 19.500000, 19.500000A
Grid spacing:                              0.375000A


    LIGAND PARAMETERS
    ________________________


Ligand name:                               /home/a/REINVENT4/ReinventStudies/scoringData/graph-dock-34dfml/graph-DockGPU/node-autodockgpu/inputs/BKKYOBILRJMROL-PIPLVQITNA-N
Number of atoms:                           35
Number of rotatable bonds:                 5
Number of atom types:                      6


    DUMMY DATA (only for ADT-compatibility)
    ________________________


DPF> outlev 1
DPF> ga_run 20
DPF> fld /home/a/REINVENT4/ReinventStudies/mols/Rad51/maps/rad51_receptor.maps.fld
DPF> move /home/a/REINVENT4/ReinventStudies/scoringData/graph-dock-34dfml/graph-DockGPU/node-autodockgpu/inputs/BKKYOBILRJMROL-PIPLVQITNA-N.pdbqt


    COUNTER STATES
    ________________________


Number of energy evaluations performed:    643166
Number of generations used:                55


    INPUT LIGAND PDBQT FILE:
    ________________________


INPUT-LIGAND-PDBQT: REMARK SMILES [N-]=C(O)c1ccc2cc(C(=O)N3C[C@]4(CCN([C@H]5CCNC5)C4)c4ccccc43)[nH]c2c1
INPUT-LIGAND-PDBQT: REMARK SMILES IDX 4 1 5 2 6 3 7 4 8 5 9 6 30 7 31 8 32 9 2 11 1 12 3 13 10 15
INPUT-LIGAND-PDBQT: REMARK SMILES IDX 11 16 12 17 13 18 29 19 14 20 28 21 24 22 15 23 23 24 27 25
INPUT-LIGAND-PDBQT: REMARK SMILES IDX 25 26 16 27 17 28 26 29 18 30 19 31 22 32 20 33 21 34
INPUT-LIGAND-PDBQT: REMARK H PARENT 30 10 3 14 21 35
INPUT-LIGAND-PDBQT: ROOT
INPUT-LIGAND-PDBQT: ATOM      1  C   UNL     1      -5.952   4.194   2.270  1.00  0.00    -0.006 A 
INPUT-LIGAND-PDBQT: ATOM      2  C   UNL     1      -6.753   4.580   1.161  1.00  0.00     0.010 A 
INPUT-LIGAND-PDBQT: ATOM      3  C   UNL     1      -6.511   4.056  -0.121  1.00  0.00     0.011 A 
INPUT-LIGAND-PDBQT: ATOM      4  C   UNL     1      -5.467   3.150  -0.267  1.00  0.00     0.000 A 
INPUT-LIGAND-PDBQT: ATOM      5  C   UNL     1      -5.013   2.480  -1.382  1.00  0.00     0.042 A 
INPUT-LIGAND-PDBQT: ATOM      6  C   UNL     1      -3.946   1.708  -0.926  1.00  0.00     0.106 A 
INPUT-LIGAND-PDBQT: ATOM      7  N   UNL     1      -3.757   1.881   0.404  1.00  0.00    -0.350 N 
INPUT-LIGAND-PDBQT: ATOM      8  C   UNL     1      -4.689   2.767   0.791  1.00  0.00     0.047 A 
INPUT-LIGAND-PDBQT: ATOM      9  C   UNL     1      -4.900   3.265   2.075  1.00  0.00     0.036 A 
INPUT-LIGAND-PDBQT: ATOM     10  H   UNL     1      -3.049   1.412   1.013  1.00  0.00     0.167 HD
INPUT-LIGAND-PDBQT: ENDROOT
INPUT-LIGAND-PDBQT: BRANCH   1  11
INPUT-LIGAND-PDBQT: ATOM     11  C   UNL     1      -6.227   4.759   3.611  1.00  0.00    -0.000 C 
INPUT-LIGAND-PDBQT: ATOM     12  N   UNL     1      -5.500   4.425   4.629  1.00  0.00    -0.771 NA
INPUT-LIGAND-PDBQT: BRANCH  11  13
INPUT-LIGAND-PDBQT: ATOM     13  O   UNL     1      -7.273   5.662   3.787  1.00  0.00    -0.532 OA
INPUT-LIGAND-PDBQT: ATOM     14  H   UNL     1      -7.476   6.059   4.697  1.00  0.00     0.290 HD
INPUT-LIGAND-PDBQT: ENDBRANCH  11  13
INPUT-LIGAND-PDBQT: ENDBRANCH   1  11
INPUT-LIGAND-PDBQT: BRANCH   6  15
INPUT-LIGAND-PDBQT: ATOM     15  C   UNL     1      -3.148   0.792  -1.761  1.00  0.00     0.274 C 
INPUT-LIGAND-PDBQT: ATOM     16  O   UNL     1      -3.578   0.455  -2.896  1.00  0.00    -0.267 OA
INPUT-LIGAND-PDBQT: BRANCH  15  17
INPUT-LIGAND-PDBQT: ATOM     17  N   UNL     1      -1.917   0.237  -1.281  1.00  0.00    -0.306 N 
INPUT-LIGAND-PDBQT: ATOM     18  C   UNL     1      -1.532  -1.163  -1.450  1.00  0.00     0.139 C 
INPUT-LIGAND-PDBQT: ATOM     19  C   UNL     1      -0.827   0.950  -0.718  1.00  0.00     0.048 A 
INPUT-LIGAND-PDBQT: ATOM     20  C   UNL     1      -0.161  -1.321  -0.710  1.00  0.00     0.029 C 
INPUT-LIGAND-PDBQT: ATOM     21  C   UNL     1      -0.713   2.337  -0.567  1.00  0.00     0.026 A 
INPUT-LIGAND-PDBQT: ATOM     22  C   UNL     1       0.205   0.108  -0.390  1.00  0.00    -0.015 A 
INPUT-LIGAND-PDBQT: ATOM     23  C   UNL     1      -0.270  -2.156   0.564  1.00  0.00     0.030 C 
INPUT-LIGAND-PDBQT: ATOM     24  C   UNL     1       0.920  -2.033  -1.548  1.00  0.00     0.098 C 
INPUT-LIGAND-PDBQT: ATOM     25  C   UNL     1       0.471   2.856  -0.022  1.00  0.00     0.002 A 
INPUT-LIGAND-PDBQT: ATOM     26  C   UNL     1       1.396   0.610   0.151  1.00  0.00     0.006 A 
INPUT-LIGAND-PDBQT: ATOM     27  C   UNL     1       1.071  -2.851   0.667  1.00  0.00     0.086 C 
INPUT-LIGAND-PDBQT: ATOM     28  N   UNL     1       1.545  -3.073  -0.707  1.00  0.00    -0.298 NA
INPUT-LIGAND-PDBQT: ATOM     29  C   UNL     1       1.522   1.994   0.339  1.00  0.00     0.000 A 
INPUT-LIGAND-PDBQT: BRANCH  28  30
INPUT-LIGAND-PDBQT: ATOM     30  C   UNL     1       3.024  -3.073  -0.801  1.00  0.00     0.071 C 
INPUT-LIGAND-PDBQT: ATOM     31  C   UNL     1       3.650  -4.166   0.046  1.00  0.00     0.036 C 
INPUT-LIGAND-PDBQT: ATOM     32  C   UNL     1       3.503  -3.427  -2.206  1.00  0.00     0.100 C 
INPUT-LIGAND-PDBQT: ATOM     33  C   UNL     1       4.929  -4.528  -0.688  1.00  0.00     0.082 C 
INPUT-LIGAND-PDBQT: ATOM     34  N   UNL     1       4.793  -4.106  -2.085  1.00  0.00    -0.315 NA
INPUT-LIGAND-PDBQT: ATOM     35  H   UNL     1       5.550  -3.413  -2.296  1.00  0.00     0.122 HD
INPUT-LIGAND-PDBQT: ENDBRANCH  28  30
INPUT-LIGAND-PDBQT: ENDBRANCH  15  17
INPUT-LIGAND-PDBQT: ENDBRANCH   6  15
INPUT-LIGAND-PDBQT: TORSDOF 5


    FINAL DOCKED STATE:
    ________________________


Run:   1 / 20
Time taken for this run:   0.034s

DOCKED: MODEL        1
DOCKED: USER    Run = 1
DOCKED: USER
DOCKED: USER    Estimated Free Energy of Binding    =  -9.07 kcal/mol  [=(1)+(2)+(3)-(4)]
DOCKED: USER
DOCKED: USER    (1) Final Intermolecular Energy     = -10.56 kcal/mol
DOCKED: USER        vdW + Hbond + desolv Energy     =  -9.21 kcal/mol
DOCKED: USER        Electrostatic Energy            =  -1.35 kcal/mol
DOCKED: USER        Moving Ligand-Fixed Receptor    = -10.56 kcal/mol
DOCKED: USER        Moving Ligand-Moving Receptor   =  +0.00 kcal/mol
DOCKED: USER    (2) Final Total Internal Energy     =  -0.77 kcal/mol
DOCKED: USER    (3) Torsional Free Energy           =  +1.49 kcal/mol
DOCKED: USER    (4) Unbound System's Energy         =  -0.77 kcal/mol
DOCKED: USER
DOCKED: USER
DOCKED: REMARK SMILES [N-]=C(O)c1ccc2cc(C(=O)N3C[C@]4(CCN([C@H]5CCNC5)C4)c4ccccc43)[nH]c2c1
DOCKED: REMARK SMILES IDX 4 1 5 2 6 3 7 4 8 5 9 6 30 7 31 8 32 9 2 11 1 12 3 13 10 15
DOCKED: REMARK SMILES IDX 11 16 12 17 13 18 29 19 14 20 28 21 24 22 15 23 23 24 27 25
DOCKED: REMARK SMILES IDX 25 26 16 27 17 28 26 29 18 30 19 31 22 32 20 33 21 34
DOCKED: REMARK H PARENT 30 10 3 14 21 35
DOCKED: USER                              x       y       z     vdW  Elec       q    Type
DOCKED: USER                           _______ _______ _______ _____ _____    ______ ____
DOCKED: ROOT
DOCKED: ATOM      1  C   UNL     1     144.325  72.657 219.770 -0.32 +0.00    -0.006 A  
DOCKED: ATOM      2  C   UNL     1     143.551  71.475 219.928 -0.24 -0.00    +0.010 A  
DOCKED: ATOM      3  C   UNL     1     142.256  71.528 220.473 -0.20 -0.00    +0.011 A  
DOCKED: ATOM      4  C   UNL     1     141.759  72.770 220.850 -0.25 -0.00    +0.000 A  
DOCKED: ATOM      5  C   UNL     1     140.543  73.120 221.394 -0.25 -0.01    +0.042 A  
DOCKED: ATOM      6  C   UNL     1     140.608  74.502 221.559 -0.28 -0.01    +0.106 A  
DOCKED: ATOM      7  N   UNL     1     141.798  74.985 221.127 -0.15 +0.11    -0.350 N  
DOCKED: ATOM      8  C   UNL     1     142.491  73.917 220.703 -0.26 -0.01    +0.047 A  
DOCKED: ATOM      9  C   UNL     1     143.777  73.902 220.166 -0.36 -0.01    +0.036 A  
DOCKED: ATOM     10  H   UNL     1     142.111  75.982 221.107 -0.34 -0.10    +0.167 HD 
DOCKED: ENDROOT
DOCKED: BRANCH   1  11
DOCKED: ATOM     11  C   UNL     1     145.686  72.575 219.193 -0.27 -0.00    -0.000 C  
DOCKED: ATOM     12  N   UNL     1     145.949  71.739 218.240 -0.13 -0.96    -0.771 NA 
DOCKED: BRANCH  11  13
DOCKED: ATOM     13  O   UNL     1     146.698  73.406 219.670 -0.47 -0.33    -0.532 OA 
DOCKED: ATOM     14  H   UNL     1     146.764  74.374 219.378 -0.42 -0.06    +0.290 HD 
DOCKED: ENDBRANCH  11  13
DOCKED: ENDBRANCH   1  11
DOCKED: BRANCH   6  15
DOCKED: ATOM     15  C   UNL     1     139.521  75.343 222.092 -0.18 -0.05    +0.274 C  
DOCKED: ATOM     16  O   UNL     1     138.402  74.821 222.345 -0.22 +0.09    -0.267 OA 
DOCKED: BRANCH  15  17
DOCKED: ATOM     17  N   UNL     1     139.698  76.753 222.276 -0.20 +0.07    -0.306 N  
DOCKED: ATOM     18  C   UNL     1     140.940  77.465 221.979 -0.32 -0.06    +0.139 C  
DOCKED: ATOM     19  C   UNL     1     138.695  77.697 222.617 -0.28 -0.01    +0.048 A  
DOCKED: ATOM     20  C   UNL     1     140.690  78.952 222.401 -0.39 -0.01    +0.029 C  
DOCKED: ATOM     21  C   UNL     1     137.328  77.452 222.789 -0.21 -0.00    +0.026 A  
DOCKED: ATOM     22  C   UNL     1     139.208  78.967 222.686 -0.31 +0.00    -0.015 A  
DOCKED: ATOM     23  C   UNL     1     141.489  79.357 223.638 -0.59 -0.01    +0.030 C  
DOCKED: ATOM     24  C   UNL     1     141.095  79.981 221.326 -0.29 -0.03    +0.098 C  
DOCKED: ATOM     25  C   UNL     1     136.486  78.534 223.085 -0.17 -0.00    +0.002 A  
DOCKED: ATOM     26  C   UNL     1     138.380  80.060 222.976 -0.29 -0.00    +0.006 A  
DOCKED: ATOM     27  C   UNL     1     141.780  80.827 223.426 -0.55 -0.02    +0.086 C  
DOCKED: ATOM     28  N   UNL     1     141.897  81.036 221.975 -0.25 +0.08    -0.298 NA 
DOCKED: ATOM     29  C   UNL     1     137.011  79.835 223.181 -0.21 -0.00    +0.000 A  
DOCKED: BRANCH  28  30
DOCKED: ATOM     30  C   UNL     1     141.488  82.400 221.566 -0.30 -0.01    +0.071 C  
DOCKED: ATOM     31  C   UNL     1     141.454  82.557 220.057 -0.19 -0.01    +0.036 C  
DOCKED: ATOM     32  C   UNL     1     140.046  82.703 221.963 -0.10 -0.01    +0.100 C  
DOCKED: ATOM     33  C   UNL     1     140.375  83.596 219.809 -0.17 -0.02    +0.082 C  
DOCKED: ATOM     34  N   UNL     1     139.492  83.631 220.978 -0.09 +0.05    -0.315 NA 
DOCKED: ATOM     35  H   UNL     1     139.520  84.596 221.384 +0.03 -0.02    +0.122 HD 
DOCKED: ENDBRANCH  28  30
DOCKED: ENDBRANCH  15  17
DOCKED: ENDBRANCH   6  15
DOCKED: TORSDOF 5
DOCKED: TER
DOCKED: ENDMDL
________________________________________________________________________________


    FINAL DOCKED STATE:
    ________________________


Run:   2 / 20
Time taken for this run:   0.034s

DOCKED: MODEL        2
DOCKED: USER    Run = 2
DOCKED: USER
DOCKED: USER    Estimated Free Energy of Binding    =  -8.02 kcal/mol  [=(1)+(2)+(3)-(4)]
DOCKED: USER
DOCKED: USER    (1) Final Intermolecular Energy     =  -9.51 kcal/mol
DOCKED: USER        vdW + Hbond + desolv Energy     =  -9.39 kcal/mol
DOCKED: USER        Electrostatic Energy            =  -0.11 kcal/mol
DOCKED: USER        Moving Ligand-Fixed Receptor    =  -9.51 kcal/mol
DOCKED: USER        Moving Ligand-Moving Receptor   =  +0.00 kcal/mol
DOCKED: USER    (2) Final Total Internal Energy     =  -1.04 kcal/mol
DOCKED: USER    (3) Torsional Free Energy           =  +1.49 kcal/mol
DOCKED: USER    (4) Unbound System's Energy         =  -1.04 kcal/mol
DOCKED: USER
DOCKED: USER
DOCKED: REMARK SMILES [N-]=C(O)c1ccc2cc(C(=O)N3C[C@]4(CCN([C@H]5CCNC5)C4)c4ccccc43)[nH]c2c1
DOCKED: REMARK SMILES IDX 4 1 5 2 6 3 7 4 8 5 9 6 30 7 31 8 32 9 2 11 1 12 3 13 10 15
DOCKED: REMARK SMILES IDX 11 16 12 17 13 18 29 19 14 20 28 21 24 22 15 23 23 24 27 25
DOCKED: REMARK SMILES IDX 25 26 16 27 17 28 26 29 18 30 19 31 22 32 20 33 21 34
DOCKED: REMARK H PARENT 30 10 3 14 21 35
DOCKED: USER                              x       y       z     vdW  Elec       q    Type
DOCKED: USER                           _______ _______ _______ _____ _____    ______ ____
DOCKED: ROOT
DOCKED: ATOM      1  C   UNL     1     135.841  82.325 227.989 -0.43 +0.00    -0.006 A  
DOCKED: ATOM      2  C   UNL     1     136.041  83.655 227.530 -0.28 -0.00    +0.010 A  
DOCKED: ATOM      3  C   UNL     1     136.473  83.908 226.216 -0.28 -0.00    +0.011 A  
DOCKED: ATOM      4  C   UNL     1     136.696  82.818 225.384 -0.28 -0.00    +0.000 A  
DOCKED: ATOM      5  C   UNL     1     137.107  82.764 224.070 -0.09 -0.00    +0.042 A  
DOCKED: ATOM      6  C   UNL     1     137.151  81.405 223.763 -0.22 -0.01    +0.106 A  
DOCKED: ATOM      7  N   UNL     1     136.775  80.657 224.827 -0.14 +0.04    -0.350 N  
DOCKED: ATOM      8  C   UNL     1     136.506  81.532 225.810 -0.37 -0.01    +0.047 A  
DOCKED: ATOM      9  C   UNL     1     136.078  81.243 227.104 -0.35 -0.01    +0.036 A  
DOCKED: ATOM     10  H   UNL     1     136.691  79.616 224.876 +0.09 -0.01    +0.167 HD 
DOCKED: ENDROOT
DOCKED: BRANCH   1  11
DOCKED: ATOM     11  C   UNL     1     135.384  82.083 229.377 -0.51 +0.00    -0.000 C  
DOCKED: ATOM     12  N   UNL     1     134.253  82.558 229.791 +0.09 -0.06    -0.771 NA 
DOCKED: BRANCH  11  13
DOCKED: ATOM     13  O   UNL     1     136.171  81.337 230.251 -0.32 +0.25    -0.532 OA 
DOCKED: ATOM     14  H   UNL     1     135.812  80.501 230.697 -0.29 -0.27    +0.290 HD 
DOCKED: ENDBRANCH  11  13
DOCKED: ENDBRANCH   1  11
DOCKED: BRANCH   6  15
DOCKED: ATOM     15  C   UNL     1     137.517  80.847 222.449 -0.10 -0.04    +0.274 C  
DOCKED: ATOM     16  O   UNL     1     136.821  81.133 221.438 -0.03 +0.04    -0.267 OA 
DOCKED: BRANCH  15  17
DOCKED: ATOM     17  N   UNL     1     138.620  79.942 222.311 -0.08 +0.05    -0.306 N  
DOCKED: ATOM     18  C   UNL     1     138.589  78.738 221.483 -0.12 -0.03    +0.139 C  
DOCKED: ATOM     19  C   UNL     1     139.936  80.128 222.807 -0.34 -0.01    +0.048 A  
DOCKED: ATOM     20  C   UNL     1     139.973  78.036 221.699 -0.27 -0.01    +0.029 C  
DOCKED: ATOM     21  C   UNL     1     140.435  81.249 223.481 -0.33 -0.00    +0.026 A  
DOCKED: ATOM     22  C   UNL     1     140.750  79.075 222.471 -0.39 +0.00    -0.015 A  
DOCKED: ATOM     23  C   UNL     1     139.859  76.737 222.493 -0.28 -0.01    +0.030 C  
DOCKED: ATOM     24  C   UNL     1     140.675  77.629 220.388 -0.18 -0.04    +0.098 C  
DOCKED: ATOM     25  C   UNL     1     141.787  81.258 223.856 -0.59 -0.00    +0.002 A  
DOCKED: ATOM     26  C   UNL     1     142.103  79.070 222.834 -0.56 -0.00    +0.006 A  
DOCKED: ATOM     27  C   UNL     1     140.967  75.867 221.940 -0.30 -0.02    +0.086 C  
DOCKED: ATOM     28  N   UNL     1     141.133  76.232 220.525 -0.11 +0.12    -0.298 NA 
DOCKED: ATOM     29  C   UNL     1     142.618  80.170 223.536 -0.67 -0.00    +0.000 A  
DOCKED: BRANCH  28  30
DOCKED: ATOM     30  C   UNL     1     142.524  76.037 220.051 -0.28 -0.04    +0.071 C  
DOCKED: ATOM     31  C   UNL     1     143.079  74.683 220.454 -0.32 -0.01    +0.036 C  
DOCKED: ATOM     32  C   UNL     1     142.601  75.987 218.528 -0.22 -0.05    +0.100 C  
DOCKED: ATOM     33  C   UNL     1     144.065  74.335 219.352 -0.29 -0.03    +0.082 C  
DOCKED: ATOM     34  N   UNL     1     143.718  75.116 218.161 -0.09 +0.15    -0.315 NA 
DOCKED: ATOM     35  H   UNL     1     144.537  75.720 217.912 -0.49 -0.09    +0.122 HD 
DOCKED: ENDBRANCH  28  30
DOCKED: ENDBRANCH  15  17
DOCKED: ENDBRANCH   6  15
DOCKED: TORSDOF 5
DOCKED: TER
DOCKED: ENDMDL
________________________________________________________________________________


    FINAL DOCKED STATE:
    ________________________


Run:   3 / 20
Time taken for this run:   0.034s

DOCKED: MODEL        3
DOCKED: USER    Run = 3
DOCKED: USER
DOCKED: USER    Estimated Free Energy of Binding    =  -8.17 kcal/mol  [=(1)+(2)+(3)-(4)]
DOCKED: USER
DOCKED: USER    (1) Final Intermolecular Energy     =  -9.67 kcal/mol
DOCKED: USER        vdW + Hbond + desolv Energy     =  -9.39 kcal/mol
DOCKED: USER        Electrostatic Energy            =  -0.28 kcal/mol
DOCKED: USER        Moving Ligand-Fixed Receptor    =  -9.67 kcal/mol
DOCKED: USER        Moving Ligand-Moving Receptor   =  +0.00 kcal/mol
DOCKED: USER    (2) Final Total Internal Energy     =  -1.02 kcal/mol
DOCKED: USER    (3) Torsional Free Energy           =  +1.49 kcal/mol
DOCKED: USER    (4) Unbound System's Energy         =  -1.02 kcal/mol
DOCKED: USER
DOCKED: USER
DOCKED: REMARK SMILES [N-]=C(O)c1ccc2cc(C(=O)N3C[C@]4(CCN([C@H]5CCNC5)C4)c4ccccc43)[nH]c2c1
DOCKED: REMARK SMILES IDX 4 1 5 2 6 3 7 4 8 5 9 6 30 7 31 8 32 9 2 11 1 12 3 13 10 15
DOCKED: REMARK SMILES IDX 11 16 12 17 13 18 29 19 14 20 28 21 24 22 15 23 23 24 27 25
DOCKED: REMARK SMILES IDX 25 26 16 27 17 28 26 29 18 30 19 31 22 32 20 33 21 34
DOCKED: REMARK H PARENT 30 10 3 14 21 35
DOCKED: USER                              x       y       z     vdW  Elec       q    Type
DOCKED: USER                           _______ _______ _______ _____ _____    ______ ____
DOCKED: ROOT
DOCKED: ATOM      1  C   UNL     1     134.483  81.178 227.771 -0.26 +0.00    -0.006 A  
DOCKED: ATOM      2  C   UNL     1     135.645  81.799 228.304 -0.46 -0.00    +0.010 A  
DOCKED: ATOM      3  C   UNL     1     136.787  81.997 227.508 -0.39 -0.00    +0.011 A  
DOCKED: ATOM      4  C   UNL     1     136.741  81.569 226.186 -0.45 -0.00    +0.000 A  
DOCKED: ATOM      5  C   UNL     1     137.689  81.638 225.189 -0.35 -0.00    +0.042 A  
DOCKED: ATOM      6  C   UNL     1     137.084  81.055 224.078 -0.25 -0.01    +0.106 A  
DOCKED: ATOM      7  N   UNL     1     135.822  80.656 224.367 -0.08 +0.04    -0.350 N  
DOCKED: ATOM      8  C   UNL     1     135.629  80.972 225.658 -0.23 -0.01    +0.047 A  
DOCKED: ATOM      9  C   UNL     1     134.480  80.760 226.417 -0.19 -0.01    +0.036 A  
DOCKED: ATOM     10  H   UNL     1     135.130  80.213 223.722 +0.03 -0.02    +0.167 HD 
DOCKED: ENDROOT
DOCKED: BRANCH   1  11
DOCKED: ATOM     11  C   UNL     1     133.292  80.982 228.629 -0.25 +0.00    -0.000 C  
DOCKED: ATOM     12  N   UNL     1     132.441  81.941 228.806 +0.13 -0.09    -0.771 NA 
DOCKED: BRANCH  11  13
DOCKED: ATOM     13  O   UNL     1     133.076  79.755 229.253 -0.19 -0.02    -0.532 OA 
DOCKED: ATOM     14  H   UNL     1     133.714  78.979 229.119 -0.33 -0.15    +0.290 HD 
DOCKED: ENDBRANCH  11  13
DOCKED: ENDBRANCH   1  11
DOCKED: BRANCH   6  15
DOCKED: ATOM     15  C   UNL     1     137.707  80.920 222.749 -0.13 -0.04    +0.274 C  
DOCKED: ATOM     16  O   UNL     1     137.247  81.579 221.779 -0.05 +0.04    -0.267 OA 
DOCKED: BRANCH  15  17
DOCKED: ATOM     17  N   UNL     1     138.795  80.012 222.531 -0.10 +0.05    -0.306 N  
DOCKED: ATOM     18  C   UNL     1     138.719  78.842 221.658 -0.14 -0.03    +0.139 C  
DOCKED: ATOM     19  C   UNL     1     140.132  80.166 222.981 -0.37 -0.01    +0.048 A  
DOCKED: ATOM     20  C   UNL     1     140.102  78.121 221.790 -0.29 -0.01    +0.029 C  
DOCKED: ATOM     21  C   UNL     1     140.668  81.254 223.679 -0.31 -0.00    +0.026 A  
DOCKED: ATOM     22  C   UNL     1     140.920  79.120 222.571 -0.43 +0.00    -0.015 A  
DOCKED: ATOM     23  C   UNL     1     140.006  76.791 222.535 -0.27 -0.01    +0.030 C  
DOCKED: ATOM     24  C   UNL     1     140.747  77.760 220.437 -0.19 -0.04    +0.098 C  
DOCKED: ATOM     25  C   UNL     1     142.034  81.236 223.999 -0.59 -0.00    +0.002 A  
DOCKED: ATOM     26  C   UNL     1     142.286  79.089 222.878 -0.55 -0.00    +0.006 A  
DOCKED: ATOM     27  C   UNL     1     141.083  75.934 221.904 -0.29 -0.03    +0.086 C  
DOCKED: ATOM     28  N   UNL     1     141.196  76.355 220.500 -0.11 +0.12    -0.298 NA 
DOCKED: ATOM     29  C   UNL     1     142.841  80.154 223.602 -0.65 -0.00    +0.000 A  
DOCKED: BRANCH  28  30
DOCKED: ATOM     30  C   UNL     1     142.565  76.166 219.962 -0.28 -0.04    +0.071 C  
DOCKED: ATOM     31  C   UNL     1     143.081  74.758 220.196 -0.33 -0.01    +0.036 C  
DOCKED: ATOM     32  C   UNL     1     142.598  76.284 218.441 -0.23 -0.05    +0.100 C  
DOCKED: ATOM     33  C   UNL     1     144.021  74.502 219.032 -0.23 -0.03    +0.082 C  
DOCKED: ATOM     34  N   UNL     1     143.671  75.422 217.946 -0.10 +0.16    -0.315 NA 
DOCKED: ATOM     35  H   UNL     1     144.504  76.021 217.738 -0.48 -0.09    +0.122 HD 
DOCKED: ENDBRANCH  28  30
DOCKED: ENDBRANCH  15  17
DOCKED: ENDBRANCH   6  15
DOCKED: TORSDOF 5
DOCKED: TER
DOCKED: ENDMDL
________________________________________________________________________________


    FINAL DOCKED STATE:
    ________________________


Run:   4 / 20
Time taken for this run:   0.034s

DOCKED: MODEL        4
DOCKED: USER    Run = 4
DOCKED: USER
DOCKED: USER    Estimated Free Energy of Binding    =  -9.05 kcal/mol  [=(1)+(2)+(3)-(4)]
DOCKED: USER
DOCKED: USER    (1) Final Intermolecular Energy     = -10.54 kcal/mol
DOCKED: USER        vdW + Hbond + desolv Energy     =  -9.20 kcal/mol
DOCKED: USER        Electrostatic Energy            =  -1.34 kcal/mol
DOCKED: USER        Moving Ligand-Fixed Receptor    = -10.54 kcal/mol
DOCKED: USER        Moving Ligand-Moving Receptor   =  +0.00 kcal/mol
DOCKED: USER    (2) Final Total Internal Energy     =  -0.76 kcal/mol
DOCKED: USER    (3) Torsional Free Energy           =  +1.49 kcal/mol
DOCKED: USER    (4) Unbound System's Energy         =  -0.76 kcal/mol
DOCKED: USER
DOCKED: USER
DOCKED: REMARK SMILES [N-]=C(O)c1ccc2cc(C(=O)N3C[C@]4(CCN([C@H]5CCNC5)C4)c4ccccc43)[nH]c2c1
DOCKED: REMARK SMILES IDX 4 1 5 2 6 3 7 4 8 5 9 6 30 7 31 8 32 9 2 11 1 12 3 13 10 15
DOCKED: REMARK SMILES IDX 11 16 12 17 13 18 29 19 14 20 28 21 24 22 15 23 23 24 27 25
DOCKED: REMARK SMILES IDX 25 26 16 27 17 28 26 29 18 30 19 31 22 32 20 33 21 34
DOCKED: REMARK H PARENT 30 10 3 14 21 35
DOCKED: USER                              x       y       z     vdW  Elec       q    Type
DOCKED: USER                           _______ _______ _______ _____ _____    ______ ____
DOCKED: ROOT
DOCKED: ATOM      1  C   UNL     1     144.296  72.691 219.767 -0.32 +0.00    -0.006 A  
DOCKED: ATOM      2  C   UNL     1     143.496  71.521 219.865 -0.23 -0.00    +0.010 A  
DOCKED: ATOM      3  C   UNL     1     142.192  71.579 220.387 -0.19 -0.00    +0.011 A  
DOCKED: ATOM      4  C   UNL     1     141.712  72.816 220.801 -0.24 -0.00    +0.000 A  
DOCKED: ATOM      5  C   UNL     1     140.492  73.170 221.334 -0.24 -0.01    +0.042 A  
DOCKED: ATOM      6  C   UNL     1     140.581  74.544 221.551 -0.28 -0.01    +0.106 A  
DOCKED: ATOM      7  N   UNL     1     141.788  75.018 221.162 -0.15 +0.11    -0.350 N  
DOCKED: ATOM      8  C   UNL     1     142.469  73.952 220.710 -0.26 -0.01    +0.047 A  
DOCKED: ATOM      9  C   UNL     1     143.765  73.932 220.198 -0.36 -0.01    +0.036 A  
DOCKED: ATOM     10  H   UNL     1     142.121  76.009 221.185 -0.40 -0.11    +0.167 HD 
DOCKED: ENDROOT
DOCKED: BRANCH   1  11
DOCKED: ATOM     11  C   UNL     1     145.667  72.604 219.213 -0.30 -0.00    -0.000 C  
DOCKED: ATOM     12  N   UNL     1     145.950  71.747 218.285 -0.14 -0.96    -0.771 NA 
DOCKED: BRANCH  11  13
DOCKED: ATOM     13  O   UNL     1     146.666  73.452 219.685 -0.45 -0.30    -0.532 OA 
DOCKED: ATOM     14  H   UNL     1     146.718  74.419 219.386 -0.41 -0.08    +0.290 HD 
DOCKED: ENDBRANCH  11  13
DOCKED: ENDBRANCH   1  11
DOCKED: BRANCH   6  15
DOCKED: ATOM     15  C   UNL     1     139.500  75.385 222.095 -0.18 -0.05    +0.274 C  
DOCKED: ATOM     16  O   UNL     1     138.387  74.863 222.370 -0.20 +0.09    -0.267 OA 
DOCKED: BRANCH  15  17
DOCKED: ATOM     17  N   UNL     1     139.676  76.797 222.265 -0.20 +0.07    -0.306 N  
DOCKED: ATOM     18  C   UNL     1     140.915  77.508 221.956 -0.32 -0.06    +0.139 C  
DOCKED: ATOM     19  C   UNL     1     138.674  77.743 222.602 -0.27 -0.01    +0.048 A  
DOCKED: ATOM     20  C   UNL     1     140.666  78.999 222.366 -0.38 -0.01    +0.029 C  
DOCKED: ATOM     21  C   UNL     1     137.307  77.498 222.782 -0.21 -0.00    +0.026 A  
DOCKED: ATOM     22  C   UNL     1     139.185  79.015 222.656 -0.30 +0.00    -0.015 A  
DOCKED: ATOM     23  C   UNL     1     141.469  79.416 223.595 -0.58 -0.01    +0.030 C  
DOCKED: ATOM     24  C   UNL     1     141.064  80.018 221.279 -0.28 -0.03    +0.098 C  
DOCKED: ATOM     25  C   UNL     1     136.465  78.581 223.072 -0.17 -0.00    +0.002 A  
DOCKED: ATOM     26  C   UNL     1     138.357  80.109 222.940 -0.28 -0.00    +0.006 A  
DOCKED: ATOM     27  C   UNL     1     141.757  80.885 223.369 -0.54 -0.02    +0.086 C  
DOCKED: ATOM     28  N   UNL     1     141.868  81.080 221.915 -0.24 +0.08    -0.298 NA 
DOCKED: ATOM     29  C   UNL     1     136.989  79.884 223.154 -0.21 -0.00    +0.000 A  
DOCKED: BRANCH  28  30
DOCKED: ATOM     30  C   UNL     1     141.455  82.440 221.495 -0.30 -0.01    +0.071 C  
DOCKED: ATOM     31  C   UNL     1     141.416  82.584 219.985 -0.19 -0.01    +0.036 C  
DOCKED: ATOM     32  C   UNL     1     140.014  82.744 221.894 -0.11 -0.01    +0.100 C  
DOCKED: ATOM     33  C   UNL     1     140.334  83.619 219.731 -0.17 -0.02    +0.082 C  
DOCKED: ATOM     34  N   UNL     1     139.455  83.662 220.902 -0.09 +0.05    -0.315 NA 
DOCKED: ATOM     35  H   UNL     1     139.482  84.631 221.300 +0.03 -0.02    +0.122 HD 
DOCKED: ENDBRANCH  28  30
DOCKED: ENDBRANCH  15  17
DOCKED: ENDBRANCH   6  15
DOCKED: TORSDOF 5
DOCKED: TER
DOCKED: ENDMDL
________________________________________________________________________________


    FINAL DOCKED STATE:
    ________________________


Run:   5 / 20
Time taken for this run:   0.034s

DOCKED: MODEL        5
DOCKED: USER    Run = 5
DOCKED: USER
DOCKED: USER    Estimated Free Energy of Binding    =  -8.98 kcal/mol  [=(1)+(2)+(3)-(4)]
DOCKED: USER
DOCKED: USER    (1) Final Intermolecular Energy     = -10.47 kcal/mol
DOCKED: USER        vdW + Hbond + desolv Energy     =  -9.13 kcal/mol
DOCKED: USER        Electrostatic Energy            =  -1.34 kcal/mol
DOCKED: USER        Moving Ligand-Fixed Receptor    = -10.47 kcal/mol
DOCKED: USER        Moving Ligand-Moving Receptor   =  +0.00 kcal/mol
DOCKED: USER    (2) Final Total Internal Energy     =  -0.81 kcal/mol
DOCKED: USER    (3) Torsional Free Energy           =  +1.49 kcal/mol
DOCKED: USER    (4) Unbound System's Energy         =  -0.81 kcal/mol
DOCKED: USER
DOCKED: USER
DOCKED: REMARK SMILES [N-]=C(O)c1ccc2cc(C(=O)N3C[C@]4(CCN([C@H]5CCNC5)C4)c4ccccc43)[nH]c2c1
DOCKED: REMARK SMILES IDX 4 1 5 2 6 3 7 4 8 5 9 6 30 7 31 8 32 9 2 11 1 12 3 13 10 15
DOCKED: REMARK SMILES IDX 11 16 12 17 13 18 29 19 14 20 28 21 24 22 15 23 23 24 27 25
DOCKED: REMARK SMILES IDX 25 26 16 27 17 28 26 29 18 30 19 31 22 32 20 33 21 34
DOCKED: REMARK H PARENT 30 10 3 14 21 35
DOCKED: USER                              x       y       z     vdW  Elec       q    Type
DOCKED: USER                           _______ _______ _______ _____ _____    ______ ____
DOCKED: ROOT
DOCKED: ATOM      1  C   UNL     1     144.378  72.719 219.888 -0.35 +0.00    -0.006 A  
DOCKED: ATOM      2  C   UNL     1     143.674  71.526 220.207 -0.27 -0.00    +0.010 A  
DOCKED: ATOM      3  C   UNL     1     142.402  71.576 220.803 -0.21 -0.00    +0.011 A  
DOCKED: ATOM      4  C   UNL     1     141.856  72.827 221.067 -0.26 -0.00    +0.000 A  
DOCKED: ATOM      5  C   UNL     1     140.646  73.176 221.626 -0.28 -0.00    +0.042 A  
DOCKED: ATOM      6  C   UNL     1     140.645  74.569 221.638 -0.27 -0.01    +0.106 A  
DOCKED: ATOM      7  N   UNL     1     141.789  75.059 221.103 -0.15 +0.12    -0.350 N  
DOCKED: ATOM      8  C   UNL     1     142.520  73.984 220.764 -0.26 -0.01    +0.047 A  
DOCKED: ATOM      9  C   UNL     1     143.782  73.973 220.173 -0.36 -0.01    +0.036 A  
DOCKED: ATOM     10  H   UNL     1     142.049  76.061 220.962 -0.23 -0.10    +0.167 HD 
DOCKED: ENDROOT
DOCKED: BRANCH   1  11
DOCKED: ATOM     11  C   UNL     1     145.717  72.641 219.260 -0.30 -0.00    -0.000 C  
DOCKED: ATOM     12  N   UNL     1     145.950  71.795 218.308 -0.16 -0.96    -0.771 NA 
DOCKED: BRANCH  11  13
DOCKED: ATOM     13  O   UNL     1     146.740  73.483 219.690 -0.40 -0.31    -0.532 OA 
DOCKED: ATOM     14  H   UNL     1     146.754  74.464 219.434 -0.41 -0.08    +0.290 HD 
DOCKED: ENDBRANCH  11  13
DOCKED: ENDBRANCH   1  11
DOCKED: BRANCH   6  15
DOCKED: ATOM     15  C   UNL     1     139.538  75.410 222.128 -0.17 -0.05    +0.274 C  
DOCKED: ATOM     16  O   UNL     1     138.416  74.884 222.357 -0.22 +0.09    -0.267 OA 
DOCKED: BRANCH  15  17
DOCKED: ATOM     17  N   UNL     1     139.701  76.823 222.298 -0.20 +0.07    -0.306 N  
DOCKED: ATOM     18  C   UNL     1     140.938  77.544 222.000 -0.33 -0.06    +0.139 C  
DOCKED: ATOM     19  C   UNL     1     138.688  77.762 222.622 -0.28 -0.01    +0.048 A  
DOCKED: ATOM     20  C   UNL     1     140.672  79.033 222.404 -0.39 -0.01    +0.029 C  
DOCKED: ATOM     21  C   UNL     1     137.322  77.506 222.789 -0.21 -0.00    +0.026 A  
DOCKED: ATOM     22  C   UNL     1     139.188  79.038 222.679 -0.30 +0.00    -0.015 A  
DOCKED: ATOM     23  C   UNL     1     141.459  79.459 223.641 -0.58 -0.01    +0.030 C  
DOCKED: ATOM     24  C   UNL     1     141.074  80.053 221.319 -0.29 -0.03    +0.098 C  
DOCKED: ATOM     25  C   UNL     1     136.468  78.584 223.068 -0.17 -0.00    +0.002 A  
DOCKED: ATOM     26  C   UNL     1     138.348  80.126 222.952 -0.29 -0.00    +0.006 A  
DOCKED: ATOM     27  C   UNL     1     141.738  80.930 223.414 -0.54 -0.02    +0.086 C  
DOCKED: ATOM     28  N   UNL     1     141.862  81.123 221.962 -0.24 +0.08    -0.298 NA 
DOCKED: ATOM     29  C   UNL     1     136.981  79.890 223.153 -0.21 -0.00    +0.000 A  
DOCKED: BRANCH  28  30
DOCKED: ATOM     30  C   UNL     1     141.443  82.479 221.534 -0.30 -0.01    +0.071 C  
DOCKED: ATOM     31  C   UNL     1     141.436  82.625 220.024 -0.18 -0.01    +0.036 C  
DOCKED: ATOM     32  C   UNL     1     139.990  82.765 221.902 -0.10 -0.01    +0.100 C  
DOCKED: ATOM     33  C   UNL     1     140.348  83.647 219.747 -0.17 -0.02    +0.082 C  
DOCKED: ATOM     34  N   UNL     1     139.443  83.679 220.899 -0.09 +0.05    -0.315 NA 
DOCKED: ATOM     35  H   UNL     1     139.449  84.647 221.299 +0.03 -0.02    +0.122 HD 
DOCKED: ENDBRANCH  28  30
DOCKED: ENDBRANCH  15  17
DOCKED: ENDBRANCH   6  15
DOCKED: TORSDOF 5
DOCKED: TER
DOCKED: ENDMDL
________________________________________________________________________________


    FINAL DOCKED STATE:
    ________________________


Run:   6 / 20
Time taken for this run:   0.034s

DOCKED: MODEL        6
DOCKED: USER    Run = 6
DOCKED: USER
DOCKED: USER    Estimated Free Energy of Binding    =  -9.03 kcal/mol  [=(1)+(2)+(3)-(4)]
DOCKED: USER
DOCKED: USER    (1) Final Intermolecular Energy     = -10.52 kcal/mol
DOCKED: USER        vdW + Hbond + desolv Energy     =  -9.75 kcal/mol
DOCKED: USER        Electrostatic Energy            =  -0.78 kcal/mol
DOCKED: USER        Moving Ligand-Fixed Receptor    = -10.52 kcal/mol
DOCKED: USER        Moving Ligand-Moving Receptor   =  +0.00 kcal/mol
DOCKED: USER    (2) Final Total Internal Energy     =  -1.09 kcal/mol
DOCKED: USER    (3) Torsional Free Energy           =  +1.49 kcal/mol
DOCKED: USER    (4) Unbound System's Energy         =  -1.09 kcal/mol
DOCKED: USER
DOCKED: USER
DOCKED: REMARK SMILES [N-]=C(O)c1ccc2cc(C(=O)N3C[C@]4(CCN([C@H]5CCNC5)C4)c4ccccc43)[nH]c2c1
DOCKED: REMARK SMILES IDX 4 1 5 2 6 3 7 4 8 5 9 6 30 7 31 8 32 9 2 11 1 12 3 13 10 15
DOCKED: REMARK SMILES IDX 11 16 12 17 13 18 29 19 14 20 28 21 24 22 15 23 23 24 27 25
DOCKED: REMARK SMILES IDX 25 26 16 27 17 28 26 29 18 30 19 31 22 32 20 33 21 34
DOCKED: REMARK H PARENT 30 10 3 14 21 35
DOCKED: USER                              x       y       z     vdW  Elec       q    Type
DOCKED: USER                           _______ _______ _______ _____ _____    ______ ____
DOCKED: ROOT
DOCKED: ATOM      1  C   UNL     1     144.215  73.966 219.803 -0.39 +0.00    -0.006 A  
DOCKED: ATOM      2  C   UNL     1     144.069  75.000 218.838 -0.11 -0.01    +0.010 A  
DOCKED: ATOM      3  C   UNL     1     142.990  75.899 218.903 -0.31 -0.01    +0.011 A  
DOCKED: ATOM      4  C   UNL     1     142.076  75.745 219.938 -0.28 -0.00    +0.000 A  
DOCKED: ATOM      5  C   UNL     1     140.947  76.471 220.251 -0.20 -0.02    +0.042 A  
DOCKED: ATOM      6  C   UNL     1     140.433  75.859 221.393 -0.28 -0.03    +0.106 A  
DOCKED: ATOM      7  N   UNL     1     141.209  74.817 221.775 -0.11 +0.05    -0.350 N  
DOCKED: ATOM      8  C   UNL     1     142.204  74.757 220.875 -0.27 -0.02    +0.047 A  
DOCKED: ATOM      9  C   UNL     1     143.260  73.848 220.843 -0.26 -0.01    +0.036 A  
DOCKED: ATOM     10  H   UNL     1     141.078  74.197 222.605 +0.08 +0.05    +0.167 HD 
DOCKED: ENDROOT
DOCKED: BRANCH   1  11
DOCKED: ATOM     11  C   UNL     1     145.360  73.031 219.714 -0.46 -0.00    -0.000 C  
DOCKED: ATOM     12  N   UNL     1     145.710  72.523 218.576 -0.44 -0.61    -0.771 NA 
DOCKED: BRANCH  11  13
DOCKED: ATOM     13  O   UNL     1     146.075  72.693 220.861 -0.22 -0.00    -0.532 OA 
DOCKED: ATOM     14  H   UNL     1     145.801  71.906 221.438 -0.37 -0.20    +0.290 HD 
DOCKED: ENDBRANCH  11  13
DOCKED: ENDBRANCH   1  11
DOCKED: BRANCH   6  15
DOCKED: ATOM     15  C   UNL     1     139.229  76.302 222.119 -0.21 -0.06    +0.274 C  
DOCKED: ATOM     16  O   UNL     1     138.307  75.476 222.353 -0.23 +0.07    -0.267 OA 
DOCKED: BRANCH  15  17
DOCKED: ATOM     17  N   UNL     1     139.067  77.669 222.518 -0.15 +0.06    -0.306 N  
DOCKED: ATOM     18  C   UNL     1     137.771  78.310 222.730 -0.18 -0.02    +0.139 C  
DOCKED: ATOM     19  C   UNL     1     140.094  78.565 222.915 -0.36 -0.01    +0.048 A  
DOCKED: ATOM     20  C   UNL     1     138.084  79.804 223.078 -0.29 -0.00    +0.029 C  
DOCKED: ATOM     21  C   UNL     1     141.458  78.280 223.046 -0.52 -0.01    +0.026 A  
DOCKED: ATOM     22  C   UNL     1     139.583  79.790 223.258 -0.39 +0.00    -0.015 A  
DOCKED: ATOM     23  C   UNL     1     137.676  80.768 221.966 -0.13 -0.00    +0.030 C  
DOCKED: ATOM     24  C   UNL     1     137.345  80.320 224.329 -0.20 -0.01    +0.098 C  
DOCKED: ATOM     25  C   UNL     1     142.314  79.298 223.495 -0.59 -0.00    +0.002 A  
DOCKED: ATOM     26  C   UNL     1     140.422  80.816 223.713 -0.41 -0.00    +0.006 A  
DOCKED: ATOM     27  C   UNL     1     137.286  82.034 222.699 -0.14 -0.01    +0.086 C  
DOCKED: ATOM     28  N   UNL     1     136.736  81.624 224.000 -0.11 +0.03    -0.298 NA 
DOCKED: ATOM     29  C   UNL     1     141.797  80.564 223.825 -0.60 -0.00    +0.000 A  
DOCKED: BRANCH  28  30
DOCKED: ATOM     30  C   UNL     1     136.960  82.642 225.053 -0.20 -0.00    +0.071 C  
DOCKED: ATOM     31  C   UNL     1     135.981  83.797 224.948 -0.17 -0.00    +0.036 C  
DOCKED: ATOM     32  C   UNL     1     136.672  82.090 226.446 -0.41 -0.01    +0.100 C  
DOCKED: ATOM     33  C   UNL     1     135.812  84.282 226.377 -0.23 -0.00    +0.082 C  
DOCKED: ATOM     34  N   UNL     1     136.198  83.194 227.280 -0.18 +0.04    -0.315 NA 
DOCKED: ATOM     35  H   UNL     1     136.996  83.524 227.873 -0.41 -0.04    +0.122 HD 
DOCKED: ENDBRANCH  28  30
DOCKED: ENDBRANCH  15  17
DOCKED: ENDBRANCH   6  15
DOCKED: TORSDOF 5
DOCKED: TER
DOCKED: ENDMDL
________________________________________________________________________________


    FINAL DOCKED STATE:
    ________________________


Run:   7 / 20
Time taken for this run:   0.034s

DOCKED: MODEL        7
DOCKED: USER    Run = 7
DOCKED: USER
DOCKED: USER    Estimated Free Energy of Binding    =  -8.92 kcal/mol  [=(1)+(2)+(3)-(4)]
DOCKED: USER
DOCKED: USER    (1) Final Intermolecular Energy     = -10.41 kcal/mol
DOCKED: USER        vdW + Hbond + desolv Energy     =  -9.48 kcal/mol
DOCKED: USER        Electrostatic Energy            =  -0.93 kcal/mol
DOCKED: USER        Moving Ligand-Fixed Receptor    = -10.41 kcal/mol
DOCKED: USER        Moving Ligand-Moving Receptor   =  +0.00 kcal/mol
DOCKED: USER    (2) Final Total Internal Energy     =  -1.11 kcal/mol
DOCKED: USER    (3) Torsional Free Energy           =  +1.49 kcal/mol
DOCKED: USER    (4) Unbound System's Energy         =  -1.11 kcal/mol
DOCKED: USER
DOCKED: USER
DOCKED: REMARK SMILES [N-]=C(O)c1ccc2cc(C(=O)N3C[C@]4(CCN([C@H]5CCNC5)C4)c4ccccc43)[nH]c2c1
DOCKED: REMARK SMILES IDX 4 1 5 2 6 3 7 4 8 5 9 6 30 7 31 8 32 9 2 11 1 12 3 13 10 15
DOCKED: REMARK SMILES IDX 11 16 12 17 13 18 29 19 14 20 28 21 24 22 15 23 23 24 27 25
DOCKED: REMARK SMILES IDX 25 26 16 27 17 28 26 29 18 30 19 31 22 32 20 33 21 34
DOCKED: REMARK H PARENT 30 10 3 14 21 35
DOCKED: USER                              x       y       z     vdW  Elec       q    Type
DOCKED: USER                           _______ _______ _______ _____ _____    ______ ____
DOCKED: ROOT
DOCKED: ATOM      1  C   UNL     1     144.094  73.811 219.624 -0.35 +0.00    -0.006 A  
DOCKED: ATOM      2  C   UNL     1     144.062  74.979 218.814 -0.11 -0.01    +0.010 A  
DOCKED: ATOM      3  C   UNL     1     143.074  75.961 219.002 -0.33 -0.01    +0.011 A  
DOCKED: ATOM      4  C   UNL     1     142.134  75.755 220.006 -0.29 -0.00    +0.000 A  
DOCKED: ATOM      5  C   UNL     1     141.077  76.537 220.416 -0.23 -0.02    +0.042 A  
DOCKED: ATOM      6  C   UNL     1     140.490  75.825 221.461 -0.29 -0.03    +0.106 A  
DOCKED: ATOM      7  N   UNL     1     141.156  74.669 221.694 -0.14 +0.05    -0.350 N  
DOCKED: ATOM      8  C   UNL     1     142.154  74.638 220.795 -0.28 -0.01    +0.047 A  
DOCKED: ATOM      9  C   UNL     1     143.117  73.644 220.637 -0.29 -0.01    +0.036 A  
DOCKED: ATOM     10  H   UNL     1     140.954  73.955 222.430 +0.05 +0.03    +0.167 HD 
DOCKED: ENDROOT
DOCKED: BRANCH   1  11
DOCKED: ATOM     11  C   UNL     1     145.145  72.791 219.407 -0.38 -0.00    -0.000 C  
DOCKED: ATOM     12  N   UNL     1     146.112  73.007 218.573 -0.40 -0.75    -0.771 NA 
DOCKED: BRANCH  11  13
DOCKED: ATOM     13  O   UNL     1     145.103  71.586 220.104 -0.03 -0.03    -0.532 OA 
DOCKED: ATOM     14  H   UNL     1     145.340  71.541 221.089 -0.31 -0.19    +0.290 HD 
DOCKED: ENDBRANCH  11  13
DOCKED: ENDBRANCH   1  11
DOCKED: BRANCH   6  15
DOCKED: ATOM     15  C   UNL     1     139.324  76.278 222.241 -0.22 -0.06    +0.274 C  
DOCKED: ATOM     16  O   UNL     1     138.447  75.442 222.587 -0.22 +0.08    -0.267 OA 
DOCKED: BRANCH  15  17
DOCKED: ATOM     17  N   UNL     1     139.145  77.662 222.568 -0.16 +0.06    -0.306 N  
DOCKED: ATOM     18  C   UNL     1     137.840  78.301 222.729 -0.19 -0.02    +0.139 C  
DOCKED: ATOM     19  C   UNL     1     140.158  78.586 222.932 -0.37 -0.01    +0.048 A  
DOCKED: ATOM     20  C   UNL     1     138.136  79.813 223.005 -0.28 -0.00    +0.029 C  
DOCKED: ATOM     21  C   UNL     1     141.523  78.321 223.097 -0.51 -0.01    +0.026 A  
DOCKED: ATOM     22  C   UNL     1     139.632  79.823 223.206 -0.39 +0.00    -0.015 A  
DOCKED: ATOM     23  C   UNL     1     137.736  80.716 221.840 -0.13 -0.00    +0.030 C  
DOCKED: ATOM     24  C   UNL     1     137.375  80.385 224.217 -0.26 -0.01    +0.098 C  
DOCKED: ATOM     25  C   UNL     1     142.364  79.367 223.506 -0.59 -0.00    +0.002 A  
DOCKED: ATOM     26  C   UNL     1     140.457  80.877 223.620 -0.42 -0.00    +0.006 A  
DOCKED: ATOM     27  C   UNL     1     137.325  82.014 222.502 -0.14 -0.01    +0.086 C  
DOCKED: ATOM     28  N   UNL     1     136.760  81.666 223.814 -0.10 +0.03    -0.298 NA 
DOCKED: ATOM     29  C   UNL     1     141.832  80.643 223.764 -0.60 -0.00    +0.000 A  
DOCKED: BRANCH  28  30
DOCKED: ATOM     30  C   UNL     1     136.960  82.738 224.817 -0.16 -0.00    +0.071 C  
DOCKED: ATOM     31  C   UNL     1     135.797  83.713 224.851 -0.16 -0.00    +0.036 C  
DOCKED: ATOM     32  C   UNL     1     136.973  82.188 226.241 -0.39 -0.01    +0.100 C  
DOCKED: ATOM     33  C   UNL     1     135.757  84.205 226.287 -0.22 -0.00    +0.082 C  
DOCKED: ATOM     34  N   UNL     1     136.446  83.223 227.129 -0.19 +0.03    -0.315 NA 
DOCKED: ATOM     35  H   UNL     1     137.255  83.698 227.596 -0.41 -0.02    +0.122 HD 
DOCKED: ENDBRANCH  28  30
DOCKED: ENDBRANCH  15  17
DOCKED: ENDBRANCH   6  15
DOCKED: TORSDOF 5
DOCKED: TER
DOCKED: ENDMDL
________________________________________________________________________________


    FINAL DOCKED STATE:
    ________________________


Run:   8 / 20
Time taken for this run:   0.034s

DOCKED: MODEL        8
DOCKED: USER    Run = 8
DOCKED: USER
DOCKED: USER    Estimated Free Energy of Binding    =  -8.78 kcal/mol  [=(1)+(2)+(3)-(4)]
DOCKED: USER
DOCKED: USER    (1) Final Intermolecular Energy     = -10.27 kcal/mol
DOCKED: USER        vdW + Hbond + desolv Energy     =  -9.24 kcal/mol
DOCKED: USER        Electrostatic Energy            =  -1.04 kcal/mol
DOCKED: USER        Moving Ligand-Fixed Receptor    = -10.27 kcal/mol
DOCKED: USER        Moving Ligand-Moving Receptor   =  +0.00 kcal/mol
DOCKED: USER    (2) Final Total Internal Energy     =  -1.11 kcal/mol
DOCKED: USER    (3) Torsional Free Energy           =  +1.49 kcal/mol
DOCKED: USER    (4) Unbound System's Energy         =  -1.11 kcal/mol
DOCKED: USER
DOCKED: USER
DOCKED: REMARK SMILES [N-]=C(O)c1ccc2cc(C(=O)N3C[C@]4(CCN([C@H]5CCNC5)C4)c4ccccc43)[nH]c2c1
DOCKED: REMARK SMILES IDX 4 1 5 2 6 3 7 4 8 5 9 6 30 7 31 8 32 9 2 11 1 12 3 13 10 15
DOCKED: REMARK SMILES IDX 11 16 12 17 13 18 29 19 14 20 28 21 24 22 15 23 23 24 27 25
DOCKED: REMARK SMILES IDX 25 26 16 27 17 28 26 29 18 30 19 31 22 32 20 33 21 34
DOCKED: REMARK H PARENT 30 10 3 14 21 35
DOCKED: USER                              x       y       z     vdW  Elec       q    Type
DOCKED: USER                           _______ _______ _______ _____ _____    ______ ____
DOCKED: ROOT
DOCKED: ATOM      1  C   UNL     1     144.324  73.864 219.318 -0.32 +0.00    -0.006 A  
DOCKED: ATOM      2  C   UNL     1     144.082  74.932 218.413 -0.05 -0.00    +0.010 A  
DOCKED: ATOM      3  C   UNL     1     143.018  75.827 218.620 -0.28 -0.01    +0.011 A  
DOCKED: ATOM      4  C   UNL     1     142.213  75.633 219.737 -0.28 -0.00    +0.000 A  
DOCKED: ATOM      5  C   UNL     1     141.124  76.344 220.189 -0.21 -0.02    +0.042 A  
DOCKED: ATOM      6  C   UNL     1     140.727  75.690 221.354 -0.29 -0.03    +0.106 A  
DOCKED: ATOM      7  N   UNL     1     141.536  74.636 221.616 -0.07 +0.06    -0.350 N  
DOCKED: ATOM      8  C   UNL     1     142.435  74.611 220.619 -0.28 -0.02    +0.047 A  
DOCKED: ATOM      9  C   UNL     1     143.480  73.706 220.445 -0.34 -0.01    +0.036 A  
DOCKED: ATOM     10  H   UNL     1     141.490  73.985 222.433 +0.09 +0.03    +0.167 HD 
DOCKED: ENDROOT
DOCKED: BRANCH   1  11
DOCKED: ATOM     11  C   UNL     1     145.453  72.935 219.079 -0.35 -0.00    -0.000 C  
DOCKED: ATOM     12  N   UNL     1     146.200  73.061 218.029 -0.28 -0.82    -0.771 NA 
DOCKED: BRANCH  11  13
DOCKED: ATOM     13  O   UNL     1     145.724  71.916 219.990 -0.20 -0.16    -0.532 OA 
DOCKED: ATOM     14  H   UNL     1     145.286  71.899 220.904 -0.31 -0.09    +0.290 HD 
DOCKED: ENDBRANCH  11  13
DOCKED: ENDBRANCH   1  11
DOCKED: BRANCH   6  15
DOCKED: ATOM     15  C   UNL     1     139.605  76.103 222.215 -0.22 -0.05    +0.274 C  
DOCKED: ATOM     16  O   UNL     1     138.797  75.235 222.640 -0.30 +0.08    -0.267 OA 
DOCKED: BRANCH  15  17
DOCKED: ATOM     17  N   UNL     1     139.386  77.484 222.534 -0.17 +0.06    -0.306 N  
DOCKED: ATOM     18  C   UNL     1     138.065  78.074 222.741 -0.20 -0.02    +0.139 C  
DOCKED: ATOM     19  C   UNL     1     140.377  78.449 222.847 -0.39 -0.01    +0.048 A  
DOCKED: ATOM     20  C   UNL     1     138.314  79.600 222.988 -0.29 -0.00    +0.029 C  
DOCKED: ATOM     21  C   UNL     1     141.757  78.238 222.959 -0.37 -0.01    +0.026 A  
DOCKED: ATOM     22  C   UNL     1     139.816  79.669 223.128 -0.39 +0.00    -0.015 A  
DOCKED: ATOM     23  C   UNL     1     137.833  80.473 221.831 -0.13 -0.00    +0.030 C  
DOCKED: ATOM     24  C   UNL     1     137.581  80.158 224.224 -0.21 -0.01    +0.098 C  
DOCKED: ATOM     25  C   UNL     1     142.572  79.321 223.322 -0.57 -0.00    +0.002 A  
DOCKED: ATOM     26  C   UNL     1     140.615  80.759 223.496 -0.46 -0.00    +0.006 A  
DOCKED: ATOM     27  C   UNL     1     137.400  81.763 222.495 -0.14 -0.01    +0.086 C  
DOCKED: ATOM     28  N   UNL     1     136.902  81.410 223.832 -0.11 +0.03    -0.298 NA 
DOCKED: ATOM     29  C   UNL     1     142.003  80.579 223.587 -0.62 -0.00    +0.000 A  
DOCKED: BRANCH  28  30
DOCKED: ATOM     30  C   UNL     1     137.101  82.501 224.815 -0.12 -0.00    +0.071 C  
DOCKED: ATOM     31  C   UNL     1     136.009  83.551 224.731 -0.17 -0.00    +0.036 C  
DOCKED: ATOM     32  C   UNL     1     136.971  82.002 226.251 -0.40 -0.01    +0.100 C  
DOCKED: ATOM     33  C   UNL     1     135.897  84.096 226.144 -0.22 -0.00    +0.082 C  
DOCKED: ATOM     34  N   UNL     1     136.453  83.101 227.066 -0.20 +0.04    -0.315 NA 
DOCKED: ATOM     35  H   UNL     1     137.256  83.537 227.578 -0.38 -0.03    +0.122 HD 
DOCKED: ENDBRANCH  28  30
DOCKED: ENDBRANCH  15  17
DOCKED: ENDBRANCH   6  15
DOCKED: TORSDOF 5
DOCKED: TER
DOCKED: ENDMDL
________________________________________________________________________________


    FINAL DOCKED STATE:
    ________________________


Run:   9 / 20
Time taken for this run:   0.034s

DOCKED: MODEL        9
DOCKED: USER    Run = 9
DOCKED: USER
DOCKED: USER    Estimated Free Energy of Binding    =  -9.25 kcal/mol  [=(1)+(2)+(3)-(4)]
DOCKED: USER
DOCKED: USER    (1) Final Intermolecular Energy     = -10.74 kcal/mol
DOCKED: USER        vdW + Hbond + desolv Energy     =  -9.73 kcal/mol
DOCKED: USER        Electrostatic Energy            =  -1.02 kcal/mol
DOCKED: USER        Moving Ligand-Fixed Receptor    = -10.74 kcal/mol
DOCKED: USER        Moving Ligand-Moving Receptor   =  +0.00 kcal/mol
DOCKED: USER    (2) Final Total Internal Energy     =  -1.11 kcal/mol
DOCKED: USER    (3) Torsional Free Energy           =  +1.49 kcal/mol
DOCKED: USER    (4) Unbound System's Energy         =  -1.11 kcal/mol
DOCKED: USER
DOCKED: USER
DOCKED: REMARK SMILES [N-]=C(O)c1ccc2cc(C(=O)N3C[C@]4(CCN([C@H]5CCNC5)C4)c4ccccc43)[nH]c2c1
DOCKED: REMARK SMILES IDX 4 1 5 2 6 3 7 4 8 5 9 6 30 7 31 8 32 9 2 11 1 12 3 13 10 15
DOCKED: REMARK SMILES IDX 11 16 12 17 13 18 29 19 14 20 28 21 24 22 15 23 23 24 27 25
DOCKED: REMARK SMILES IDX 25 26 16 27 17 28 26 29 18 30 19 31 22 32 20 33 21 34
DOCKED: REMARK H PARENT 30 10 3 14 21 35
DOCKED: USER                              x       y       z     vdW  Elec       q    Type
DOCKED: USER                           _______ _______ _______ _____ _____    ______ ____
DOCKED: ROOT
DOCKED: ATOM      1  C   UNL     1     144.412  73.626 220.231 -0.45 +0.00    -0.006 A  
DOCKED: ATOM      2  C   UNL     1     143.223  73.041 220.747 -0.30 -0.00    +0.010 A  
DOCKED: ATOM      3  C   UNL     1     142.042  73.794 220.868 -0.27 -0.00    +0.011 A  
DOCKED: ATOM      4  C   UNL     1     142.075  75.124 220.466 -0.30 -0.00    +0.000 A  
DOCKED: ATOM      5  C   UNL     1     141.084  76.082 220.462 -0.23 -0.02    +0.042 A  
DOCKED: ATOM      6  C   UNL     1     141.694  77.225 219.949 -0.23 -0.06    +0.106 A  
DOCKED: ATOM      7  N   UNL     1     142.991  76.984 219.640 -0.17 +0.26    -0.350 N  
DOCKED: ATOM      8  C   UNL     1     143.210  75.700 219.965 -0.33 -0.03    +0.047 A  
DOCKED: ATOM      9  C   UNL     1     144.398  74.985 219.831 -0.22 -0.02    +0.036 A  
DOCKED: ATOM     10  H   UNL     1     143.679  77.648 219.217 -0.43 -0.17    +0.167 HD 
DOCKED: ENDROOT
DOCKED: BRANCH   1  11
DOCKED: ATOM     11  C   UNL     1     145.643  72.812 220.112 -0.53 -0.00    -0.000 C  
DOCKED: ATOM     12  N   UNL     1     145.962  72.260 218.985 -0.34 -0.78    -0.771 NA 
DOCKED: BRANCH  11  13
DOCKED: ATOM     13  O   UNL     1     146.474  72.637 221.217 -0.16 +0.01    -0.532 OA 
DOCKED: ATOM     14  H   UNL     1     146.272  71.936 221.920 -0.32 -0.25    +0.290 HD 
DOCKED: ENDBRANCH  11  13
DOCKED: ENDBRANCH   1  11
DOCKED: BRANCH   6  15
DOCKED: ATOM     15  C   UNL     1     141.019  78.517 219.730 -0.11 -0.12    +0.274 C  
DOCKED: ATOM     16  O   UNL     1     140.970  79.001 218.568 -0.07 +0.13    -0.267 OA 
DOCKED: BRANCH  15  17
DOCKED: ATOM     17  N   UNL     1     140.465  79.257 220.825 -0.06 +0.10    -0.306 N  
DOCKED: ATOM     18  C   UNL     1     139.034  79.346 221.109 -0.10 -0.03    +0.139 C  
DOCKED: ATOM     19  C   UNL     1     141.184  79.880 221.878 -0.36 -0.02    +0.048 A  
DOCKED: ATOM     20  C   UNL     1     138.902  80.307 222.338 -0.24 -0.00    +0.029 C  
DOCKED: ATOM     21  C   UNL     1     142.567  79.853 222.088 -0.46 -0.01    +0.026 A  
DOCKED: ATOM     22  C   UNL     1     140.336  80.479 222.775 -0.38 +0.00    -0.015 A  
DOCKED: ATOM     23  C   UNL     1     138.276  81.651 221.973 -0.16 -0.00    +0.030 C  
DOCKED: ATOM     24  C   UNL     1     138.004  79.756 223.465 -0.26 -0.01    +0.098 C  
DOCKED: ATOM     25  C   UNL     1     143.086  80.500 223.220 -0.66 -0.00    +0.002 A  
DOCKED: ATOM     26  C   UNL     1     140.837  81.126 223.913 -0.28 -0.00    +0.006 A  
DOCKED: ATOM     27  C   UNL     1     137.520  82.059 223.219 -0.17 -0.01    +0.086 C  
DOCKED: ATOM     28  N   UNL     1     137.065  80.821 223.868 -0.14 +0.03    -0.298 NA 
DOCKED: ATOM     29  C   UNL     1     142.222  81.137 224.129 -0.59 -0.00    +0.000 A  
DOCKED: BRANCH  28  30
DOCKED: ATOM     30  C   UNL     1     136.956  80.961 225.340 -0.31 -0.01    +0.071 C  
DOCKED: ATOM     31  C   UNL     1     137.340  82.352 225.810 -0.26 -0.00    +0.036 C  
DOCKED: ATOM     32  C   UNL     1     135.512  80.837 225.816 -0.10 -0.02    +0.100 C  
DOCKED: ATOM     33  C   UNL     1     136.507  82.573 227.060 -0.41 -0.01    +0.082 C  
DOCKED: ATOM     34  N   UNL     1     135.360  81.661 227.015 -0.15 +0.06    -0.315 NA 
DOCKED: ATOM     35  H   UNL     1     135.404  81.033 227.853 -0.19 -0.06    +0.122 HD 
DOCKED: ENDBRANCH  28  30
DOCKED: ENDBRANCH  15  17
DOCKED: ENDBRANCH   6  15
DOCKED: TORSDOF 5
DOCKED: TER
DOCKED: ENDMDL
________________________________________________________________________________


    FINAL DOCKED STATE:
    ________________________


Run:   10 / 20
Time taken for this run:   0.034s

DOCKED: MODEL        10
DOCKED: USER    Run = 10
DOCKED: USER
DOCKED: USER    Estimated Free Energy of Binding    =  -9.05 kcal/mol  [=(1)+(2)+(3)-(4)]
DOCKED: USER
DOCKED: USER    (1) Final Intermolecular Energy     = -10.54 kcal/mol
DOCKED: USER        vdW + Hbond + desolv Energy     =  -9.00 kcal/mol
DOCKED: USER        Electrostatic Energy            =  -1.54 kcal/mol
DOCKED: USER        Moving Ligand-Fixed Receptor    = -10.54 kcal/mol
DOCKED: USER        Moving Ligand-Moving Receptor   =  +0.00 kcal/mol
DOCKED: USER    (2) Final Total Internal Energy     =  -0.76 kcal/mol
DOCKED: USER    (3) Torsional Free Energy           =  +1.49 kcal/mol
DOCKED: USER    (4) Unbound System's Energy         =  -0.76 kcal/mol
DOCKED: USER
DOCKED: USER
DOCKED: REMARK SMILES [N-]=C(O)c1ccc2cc(C(=O)N3C[C@]4(CCN([C@H]5CCNC5)C4)c4ccccc43)[nH]c2c1
DOCKED: REMARK SMILES IDX 4 1 5 2 6 3 7 4 8 5 9 6 30 7 31 8 32 9 2 11 1 12 3 13 10 15
DOCKED: REMARK SMILES IDX 11 16 12 17 13 18 29 19 14 20 28 21 24 22 15 23 23 24 27 25
DOCKED: REMARK SMILES IDX 25 26 16 27 17 28 26 29 18 30 19 31 22 32 20 33 21 34
DOCKED: REMARK H PARENT 30 10 3 14 21 35
DOCKED: USER                              x       y       z     vdW  Elec       q    Type
DOCKED: USER                           _______ _______ _______ _____ _____    ______ ____
DOCKED: ROOT
DOCKED: ATOM      1  C   UNL     1     144.488  72.529 220.026 -0.37 +0.00    -0.006 A  
DOCKED: ATOM      2  C   UNL     1     143.697  71.354 220.152 -0.27 -0.00    +0.010 A  
DOCKED: ATOM      3  C   UNL     1     142.375  71.421 220.624 -0.18 -0.00    +0.011 A  
DOCKED: ATOM      4  C   UNL     1     141.867  72.671 220.961 -0.25 -0.00    +0.000 A  
DOCKED: ATOM      5  C   UNL     1     140.625  73.034 221.434 -0.26 -0.01    +0.042 A  
DOCKED: ATOM      6  C   UNL     1     140.691  74.417 221.589 -0.29 -0.01    +0.106 A  
DOCKED: ATOM      7  N   UNL     1     141.907  74.888 221.220 -0.13 +0.11    -0.350 N  
DOCKED: ATOM      8  C   UNL     1     142.614  73.810 220.844 -0.25 -0.01    +0.047 A  
DOCKED: ATOM      9  C   UNL     1     143.928  73.782 220.380 -0.39 -0.01    +0.036 A  
DOCKED: ATOM     10  H   UNL     1     142.228  75.882 221.208 -0.43 -0.11    +0.167 HD 
DOCKED: ENDROOT
DOCKED: BRANCH   1  11
DOCKED: ATOM     11  C   UNL     1     145.878  72.433 219.526 -0.32 -0.00    -0.000 C  
DOCKED: ATOM     12  N   UNL     1     146.316  71.332 219.004 +0.23 -1.09    -0.771 NA 
DOCKED: BRANCH  11  13
DOCKED: ATOM     13  O   UNL     1     146.728  73.534 219.610 -0.40 -0.30    -0.532 OA 
DOCKED: ATOM     14  H   UNL     1     146.401  74.467 219.389 -0.39 -0.13    +0.290 HD 
DOCKED: ENDBRANCH  11  13
DOCKED: ENDBRANCH   1  11
DOCKED: BRANCH   6  15
DOCKED: ATOM     15  C   UNL     1     139.582  75.270 222.053 -0.18 -0.05    +0.274 C  
DOCKED: ATOM     16  O   UNL     1     138.449  74.758 222.253 -0.21 +0.08    -0.267 OA 
DOCKED: BRANCH  15  17
DOCKED: ATOM     17  N   UNL     1     139.758  76.681 222.229 -0.20 +0.07    -0.306 N  
DOCKED: ATOM     18  C   UNL     1     140.992  77.397 221.907 -0.31 -0.06    +0.139 C  
DOCKED: ATOM     19  C   UNL     1     138.758  77.624 222.585 -0.28 -0.01    +0.048 A  
DOCKED: ATOM     20  C   UNL     1     140.745  78.885 222.329 -0.39 -0.01    +0.029 C  
DOCKED: ATOM     21  C   UNL     1     137.395  77.374 222.783 -0.22 -0.00    +0.026 A  
DOCKED: ATOM     22  C   UNL     1     139.268  78.896 222.640 -0.31 +0.00    -0.015 A  
DOCKED: ATOM     23  C   UNL     1     141.564  79.296 223.550 -0.59 -0.01    +0.030 C  
DOCKED: ATOM     24  C   UNL     1     141.126  79.910 221.242 -0.29 -0.03    +0.098 C  
DOCKED: ATOM     25  C   UNL     1     136.555  78.455 223.090 -0.17 -0.00    +0.002 A  
DOCKED: ATOM     26  C   UNL     1     138.442  79.987 222.941 -0.29 -0.00    +0.006 A  
DOCKED: ATOM     27  C   UNL     1     141.846  80.767 223.327 -0.55 -0.02    +0.086 C  
DOCKED: ATOM     28  N   UNL     1     141.937  80.971 221.874 -0.24 +0.08    -0.298 NA 
DOCKED: ATOM     29  C   UNL     1     137.078  79.758 223.172 -0.22 -0.00    +0.000 A  
DOCKED: BRANCH  28  30
DOCKED: ATOM     30  C   UNL     1     141.516  82.332 221.467 -0.28 -0.01    +0.071 C  
DOCKED: ATOM     31  C   UNL     1     141.441  82.480 219.958 -0.21 -0.01    +0.036 C  
DOCKED: ATOM     32  C   UNL     1     140.084  82.636 221.901 -0.14 -0.01    +0.100 C  
DOCKED: ATOM     33  C   UNL     1     140.355  83.517 219.733 -0.17 -0.02    +0.082 C  
DOCKED: ATOM     34  N   UNL     1     139.504  83.558 220.925 -0.09 +0.05    -0.315 NA 
DOCKED: ATOM     35  H   UNL     1     139.541  84.526 221.324 +0.03 -0.02    +0.122 HD 
DOCKED: ENDBRANCH  28  30
DOCKED: ENDBRANCH  15  17
DOCKED: ENDBRANCH   6  15
DOCKED: TORSDOF 5
DOCKED: TER
DOCKED: ENDMDL
________________________________________________________________________________


    FINAL DOCKED STATE:
    ________________________


Run:   11 / 20
Time taken for this run:   0.034s

DOCKED: MODEL        11
DOCKED: USER    Run = 11
DOCKED: USER
DOCKED: USER    Estimated Free Energy of Binding    =  -9.27 kcal/mol  [=(1)+(2)+(3)-(4)]
DOCKED: USER
DOCKED: USER    (1) Final Intermolecular Energy     = -10.76 kcal/mol
DOCKED: USER        vdW + Hbond + desolv Energy     =  -9.54 kcal/mol
DOCKED: USER        Electrostatic Energy            =  -1.23 kcal/mol
DOCKED: USER        Moving Ligand-Fixed Receptor    = -10.76 kcal/mol
DOCKED: USER        Moving Ligand-Moving Receptor   =  +0.00 kcal/mol
DOCKED: USER    (2) Final Total Internal Energy     =  -1.10 kcal/mol
DOCKED: USER    (3) Torsional Free Energy           =  +1.49 kcal/mol
DOCKED: USER    (4) Unbound System's Energy         =  -1.10 kcal/mol
DOCKED: USER
DOCKED: USER
DOCKED: REMARK SMILES [N-]=C(O)c1ccc2cc(C(=O)N3C[C@]4(CCN([C@H]5CCNC5)C4)c4ccccc43)[nH]c2c1
DOCKED: REMARK SMILES IDX 4 1 5 2 6 3 7 4 8 5 9 6 30 7 31 8 32 9 2 11 1 12 3 13 10 15
DOCKED: REMARK SMILES IDX 11 16 12 17 13 18 29 19 14 20 28 21 24 22 15 23 23 24 27 25
DOCKED: REMARK SMILES IDX 25 26 16 27 17 28 26 29 18 30 19 31 22 32 20 33 21 34
DOCKED: REMARK H PARENT 30 10 3 14 21 35
DOCKED: USER                              x       y       z     vdW  Elec       q    Type
DOCKED: USER                           _______ _______ _______ _____ _____    ______ ____
DOCKED: ROOT
DOCKED: ATOM      1  C   UNL     1     144.538  73.719 220.270 -0.47 +0.00    -0.006 A  
DOCKED: ATOM      2  C   UNL     1     143.366  73.057 220.726 -0.31 -0.00    +0.010 A  
DOCKED: ATOM      3  C   UNL     1     142.139  73.739 220.815 -0.28 -0.00    +0.011 A  
DOCKED: ATOM      4  C   UNL     1     142.111  75.077 220.440 -0.30 -0.00    +0.000 A  
DOCKED: ATOM      5  C   UNL     1     141.068  75.977 220.415 -0.22 -0.02    +0.042 A  
DOCKED: ATOM      6  C   UNL     1     141.631  77.164 219.949 -0.23 -0.06    +0.106 A  
DOCKED: ATOM      7  N   UNL     1     142.950  77.004 219.688 -0.17 +0.26    -0.350 N  
DOCKED: ATOM      8  C   UNL     1     143.230  75.728 219.997 -0.32 -0.03    +0.047 A  
DOCKED: ATOM      9  C   UNL     1     144.461  75.084 219.896 -0.14 -0.02    +0.036 A  
DOCKED: ATOM     10  H   UNL     1     143.615  77.715 219.307 -0.44 -0.17    +0.167 HD 
DOCKED: ENDROOT
DOCKED: BRANCH   1  11
DOCKED: ATOM     11  C   UNL     1     145.818  72.979 220.185 -0.56 -0.00    -0.000 C  
DOCKED: ATOM     12  N   UNL     1     146.309  72.641 219.036 -0.22 -1.01    -0.771 NA 
DOCKED: BRANCH  11  13
DOCKED: ATOM     13  O   UNL     1     146.508  72.643 221.347 -0.16 +0.03    -0.532 OA 
DOCKED: ATOM     14  H   UNL     1     146.081  72.068 222.064 -0.32 -0.23    +0.290 HD 
DOCKED: ENDBRANCH  11  13
DOCKED: ENDBRANCH   1  11
DOCKED: BRANCH   6  15
DOCKED: ATOM     15  C   UNL     1     140.892  78.420 219.729 -0.10 -0.12    +0.274 C  
DOCKED: ATOM     16  O   UNL     1     140.765  78.867 218.558 -0.06 +0.12    -0.267 OA 
DOCKED: BRANCH  15  17
DOCKED: ATOM     17  N   UNL     1     140.362  79.169 220.829 -0.06 +0.10    -0.306 N  
DOCKED: ATOM     18  C   UNL     1     138.937  79.267 221.139 -0.10 -0.03    +0.139 C  
DOCKED: ATOM     19  C   UNL     1     141.103  79.796 221.865 -0.35 -0.02    +0.048 A  
DOCKED: ATOM     20  C   UNL     1     138.832  80.236 222.365 -0.24 -0.00    +0.029 C  
DOCKED: ATOM     21  C   UNL     1     142.490  79.764 222.049 -0.45 -0.01    +0.026 A  
DOCKED: ATOM     22  C   UNL     1     140.275  80.405 222.774 -0.37 +0.00    -0.015 A  
DOCKED: ATOM     23  C   UNL     1     138.205  81.581 222.003 -0.16 -0.00    +0.030 C  
DOCKED: ATOM     24  C   UNL     1     137.953  79.696 223.512 -0.24 -0.01    +0.098 C  
DOCKED: ATOM     25  C   UNL     1     143.032  80.416 223.166 -0.66 -0.00    +0.002 A  
DOCKED: ATOM     26  C   UNL     1     140.800  81.056 223.898 -0.31 -0.00    +0.006 A  
DOCKED: ATOM     27  C   UNL     1     137.475  82.000 223.261 -0.18 -0.01    +0.086 C  
DOCKED: ATOM     28  N   UNL     1     137.026  80.768 223.926 -0.14 +0.03    -0.298 NA 
DOCKED: ATOM     29  C   UNL     1     142.189  81.063 224.087 -0.58 -0.00    +0.000 A  
DOCKED: BRANCH  28  30
DOCKED: ATOM     30  C   UNL     1     136.946  80.918 225.398 -0.29 -0.01    +0.071 C  
DOCKED: ATOM     31  C   UNL     1     137.328  82.315 225.851 -0.29 -0.00    +0.036 C  
DOCKED: ATOM     32  C   UNL     1     135.513  80.785 225.905 -0.01 -0.02    +0.100 C  
DOCKED: ATOM     33  C   UNL     1     136.518  82.538 227.116 -0.41 -0.01    +0.082 C  
DOCKED: ATOM     34  N   UNL     1     135.378  81.616 227.101 -0.15 +0.07    -0.315 NA 
DOCKED: ATOM     35  H   UNL     1     135.444  80.995 227.942 -0.25 -0.06    +0.122 HD 
DOCKED: ENDBRANCH  28  30
DOCKED: ENDBRANCH  15  17
DOCKED: ENDBRANCH   6  15
DOCKED: TORSDOF 5
DOCKED: TER
DOCKED: ENDMDL
________________________________________________________________________________


    FINAL DOCKED STATE:
    ________________________


Run:   12 / 20
Time taken for this run:   0.034s

DOCKED: MODEL        12
DOCKED: USER    Run = 12
DOCKED: USER
DOCKED: USER    Estimated Free Energy of Binding    =  -9.25 kcal/mol  [=(1)+(2)+(3)-(4)]
DOCKED: USER
DOCKED: USER    (1) Final Intermolecular Energy     = -10.74 kcal/mol
DOCKED: USER        vdW + Hbond + desolv Energy     =  -9.71 kcal/mol
DOCKED: USER        Electrostatic Energy            =  -1.03 kcal/mol
DOCKED: USER        Moving Ligand-Fixed Receptor    = -10.74 kcal/mol
DOCKED: USER        Moving Ligand-Moving Receptor   =  +0.00 kcal/mol
DOCKED: USER    (2) Final Total Internal Energy     =  -1.10 kcal/mol
DOCKED: USER    (3) Torsional Free Energy           =  +1.49 kcal/mol
DOCKED: USER    (4) Unbound System's Energy         =  -1.10 kcal/mol
DOCKED: USER
DOCKED: USER
DOCKED: REMARK SMILES [N-]=C(O)c1ccc2cc(C(=O)N3C[C@]4(CCN([C@H]5CCNC5)C4)c4ccccc43)[nH]c2c1
DOCKED: REMARK SMILES IDX 4 1 5 2 6 3 7 4 8 5 9 6 30 7 31 8 32 9 2 11 1 12 3 13 10 15
DOCKED: REMARK SMILES IDX 11 16 12 17 13 18 29 19 14 20 28 21 24 22 15 23 23 24 27 25
DOCKED: REMARK SMILES IDX 25 26 16 27 17 28 26 29 18 30 19 31 22 32 20 33 21 34
DOCKED: REMARK H PARENT 30 10 3 14 21 35
DOCKED: USER                              x       y       z     vdW  Elec       q    Type
DOCKED: USER                           _______ _______ _______ _____ _____    ______ ____
DOCKED: ROOT
DOCKED: ATOM      1  C   UNL     1     144.463  73.801 220.268 -0.47 +0.00    -0.006 A  
DOCKED: ATOM      2  C   UNL     1     143.291  73.024 220.480 -0.31 -0.00    +0.010 A  
DOCKED: ATOM      3  C   UNL     1     142.017  73.618 220.454 -0.24 -0.00    +0.011 A  
DOCKED: ATOM      4  C   UNL     1     141.941  74.985 220.214 -0.27 -0.00    +0.000 A  
DOCKED: ATOM      5  C   UNL     1     140.848  75.819 220.125 -0.17 -0.01    +0.042 A  
DOCKED: ATOM      6  C   UNL     1     141.380  77.081 219.867 -0.20 -0.05    +0.106 A  
DOCKED: ATOM      7  N   UNL     1     142.731  77.029 219.787 -0.16 +0.25    -0.350 N  
DOCKED: ATOM      8  C   UNL     1     143.059  75.746 220.006 -0.32 -0.03    +0.047 A  
DOCKED: ATOM      9  C   UNL     1     144.337  75.191 220.024 -0.28 -0.02    +0.036 A  
DOCKED: ATOM     10  H   UNL     1     143.388  77.816 219.580 -0.44 -0.18    +0.167 HD 
DOCKED: ENDROOT
DOCKED: BRANCH   1  11
DOCKED: ATOM     11  C   UNL     1     145.794  73.152 220.299 -0.59 -0.00    -0.000 C  
DOCKED: ATOM     12  N   UNL     1     146.326  72.688 219.214 -0.26 -0.88    -0.771 NA 
DOCKED: BRANCH  11  13
DOCKED: ATOM     13  O   UNL     1     146.488  73.040 221.501 -0.29 +0.04    -0.532 OA 
DOCKED: ATOM     14  H   UNL     1     146.341  72.251 222.120 -0.32 -0.15    +0.290 HD 
DOCKED: ENDBRANCH  11  13
DOCKED: ENDBRANCH   1  11
DOCKED: BRANCH   6  15
DOCKED: ATOM     15  C   UNL     1     140.588  78.307 219.666 -0.08 -0.11    +0.274 C  
DOCKED: ATOM     16  O   UNL     1     140.350  78.706 218.495 -0.03 +0.11    -0.267 OA 
DOCKED: BRANCH  15  17
DOCKED: ATOM     17  N   UNL     1     140.128  79.082 220.781 -0.04 +0.10    -0.306 N  
DOCKED: ATOM     18  C   UNL     1     138.718  79.268 221.120 -0.09 -0.03    +0.139 C  
DOCKED: ATOM     19  C   UNL     1     140.928  79.653 221.804 -0.32 -0.02    +0.048 A  
DOCKED: ATOM     20  C   UNL     1     138.700  80.235 222.352 -0.23 -0.00    +0.029 C  
DOCKED: ATOM     21  C   UNL     1     142.314  79.532 221.960 -0.43 -0.01    +0.026 A  
DOCKED: ATOM     22  C   UNL     1     140.159  80.308 222.732 -0.36 +0.00    -0.015 A  
DOCKED: ATOM     23  C   UNL     1     138.153  81.619 222.009 -0.16 -0.00    +0.030 C  
DOCKED: ATOM     24  C   UNL     1     137.812  79.745 223.513 -0.23 -0.01    +0.098 C  
DOCKED: ATOM     25  C   UNL     1     142.918  80.142 223.069 -0.67 -0.00    +0.002 A  
DOCKED: ATOM     26  C   UNL     1     140.746  80.918 223.849 -0.40 -0.00    +0.006 A  
DOCKED: ATOM     27  C   UNL     1     137.476  82.076 223.283 -0.16 -0.01    +0.086 C  
DOCKED: ATOM     28  N   UNL     1     136.963  80.871 223.951 -0.14 +0.03    -0.298 NA 
DOCKED: ATOM     29  C   UNL     1     142.137  80.836 224.010 -0.58 -0.00    +0.000 A  
DOCKED: BRANCH  28  30
DOCKED: ATOM     30  C   UNL     1     136.922  81.017 225.426 -0.30 -0.01    +0.071 C  
DOCKED: ATOM     31  C   UNL     1     137.328  82.409 225.873 -0.25 -0.00    +0.036 C  
DOCKED: ATOM     32  C   UNL     1     135.500  80.896 225.968 -0.14 -0.02    +0.100 C  
DOCKED: ATOM     33  C   UNL     1     136.553  82.635 227.159 -0.39 -0.01    +0.082 C  
DOCKED: ATOM     34  N   UNL     1     135.404  81.725 227.170 -0.16 +0.07    -0.315 NA 
DOCKED: ATOM     35  H   UNL     1     135.486  81.100 228.007 -0.20 -0.06    +0.122 HD 
DOCKED: ENDBRANCH  28  30
DOCKED: ENDBRANCH  15  17
DOCKED: ENDBRANCH   6  15
DOCKED: TORSDOF 5
DOCKED: TER
DOCKED: ENDMDL
________________________________________________________________________________


    FINAL DOCKED STATE:
    ________________________


Run:   13 / 20
Time taken for this run:   0.034s

DOCKED: MODEL        13
DOCKED: USER    Run = 13
DOCKED: USER
DOCKED: USER    Estimated Free Energy of Binding    =  -8.01 kcal/mol  [=(1)+(2)+(3)-(4)]
DOCKED: USER
DOCKED: USER    (1) Final Intermolecular Energy     =  -9.50 kcal/mol
DOCKED: USER        vdW + Hbond + desolv Energy     =  -9.62 kcal/mol
DOCKED: USER        Electrostatic Energy            =  +0.12 kcal/mol
DOCKED: USER        Moving Ligand-Fixed Receptor    =  -9.50 kcal/mol
DOCKED: USER        Moving Ligand-Moving Receptor   =  +0.00 kcal/mol
DOCKED: USER    (2) Final Total Internal Energy     =  -1.26 kcal/mol
DOCKED: USER    (3) Torsional Free Energy           =  +1.49 kcal/mol
DOCKED: USER    (4) Unbound System's Energy         =  -1.26 kcal/mol
DOCKED: USER
DOCKED: USER
DOCKED: REMARK SMILES [N-]=C(O)c1ccc2cc(C(=O)N3C[C@]4(CCN([C@H]5CCNC5)C4)c4ccccc43)[nH]c2c1
DOCKED: REMARK SMILES IDX 4 1 5 2 6 3 7 4 8 5 9 6 30 7 31 8 32 9 2 11 1 12 3 13 10 15
DOCKED: REMARK SMILES IDX 11 16 12 17 13 18 29 19 14 20 28 21 24 22 15 23 23 24 27 25
DOCKED: REMARK SMILES IDX 25 26 16 27 17 28 26 29 18 30 19 31 22 32 20 33 21 34
DOCKED: REMARK H PARENT 30 10 3 14 21 35
DOCKED: USER                              x       y       z     vdW  Elec       q    Type
DOCKED: USER                           _______ _______ _______ _____ _____    ______ ____
DOCKED: ROOT
DOCKED: ATOM      1  C   UNL     1     139.936  69.247 226.305 -0.51 +0.00    -0.006 A  
DOCKED: ATOM      2  C   UNL     1     141.172  69.946 226.358 -0.54 -0.00    +0.010 A  
DOCKED: ATOM      3  C   UNL     1     141.454  70.983 225.452 -0.51 -0.00    +0.011 A  
DOCKED: ATOM      4  C   UNL     1     140.487  71.303 224.507 -0.48 -0.00    +0.000 A  
DOCKED: ATOM      5  C   UNL     1     140.484  72.261 223.518 -0.22 -0.00    +0.042 A  
DOCKED: ATOM      6  C   UNL     1     139.251  72.119 222.885 -0.18 -0.03    +0.106 A  
DOCKED: ATOM      7  N   UNL     1     138.522  71.133 223.460 -0.11 +0.08    -0.350 N  
DOCKED: ATOM      8  C   UNL     1     139.291  70.641 224.445 -0.36 -0.01    +0.047 A  
DOCKED: ATOM      9  C   UNL     1     138.977  69.608 225.326 -0.38 -0.00    +0.036 A  
DOCKED: ATOM     10  H   UNL     1     137.555  70.826 223.208 +0.05 -0.03    +0.167 HD 
DOCKED: ENDROOT
DOCKED: BRANCH   1  11
DOCKED: ATOM     11  C   UNL     1     139.661  68.158 227.270 -0.61 +0.00    -0.000 C  
DOCKED: ATOM     12  N   UNL     1     140.007  68.275 228.512 +0.21 +0.17    -0.771 NA 
DOCKED: BRANCH  11  13
DOCKED: ATOM     13  O   UNL     1     139.021  66.995 226.847 -0.34 +0.04    -0.532 OA 
DOCKED: ATOM     14  H   UNL     1     139.338  66.081 227.152 -0.35 -0.09    +0.290 HD 
DOCKED: ENDBRANCH  11  13
DOCKED: ENDBRANCH   1  11
DOCKED: BRANCH   6  15
DOCKED: ATOM     15  C   UNL     1     138.775  72.951 221.764 -0.12 -0.07    +0.274 C  
DOCKED: ATOM     16  O   UNL     1     137.890  72.500 220.990 -0.04 +0.06    -0.267 OA 
DOCKED: BRANCH  15  17
DOCKED: ATOM     17  N   UNL     1     139.341  74.243 221.510 -0.13 +0.06    -0.306 N  
DOCKED: ATOM     18  C   UNL     1     138.749  75.498 221.968 -0.23 -0.03    +0.139 C  
DOCKED: ATOM     19  C   UNL     1     140.607  74.516 220.929 -0.24 -0.01    +0.048 A  
DOCKED: ATOM     20  C   UNL     1     139.664  76.635 221.400 -0.26 -0.01    +0.029 C  
DOCKED: ATOM     21  C   UNL     1     141.575  73.583 220.538 -0.22 -0.00    +0.026 A  
DOCKED: ATOM     22  C   UNL     1     140.844  75.865 220.858 -0.27 +0.00    -0.015 A  
DOCKED: ATOM     23  C   UNL     1     138.986  77.443 220.296 -0.09 -0.01    +0.030 C  
DOCKED: ATOM     24  C   UNL     1     140.077  77.685 222.450 -0.32 -0.02    +0.098 C  
DOCKED: ATOM     25  C   UNL     1     142.789  74.057 220.019 -0.28 -0.00    +0.002 A  
DOCKED: ATOM     26  C   UNL     1     142.053  76.355 220.347 -0.26 -0.00    +0.006 A  
DOCKED: ATOM     27  C   UNL     1     139.564  78.834 220.446 -0.10 -0.02    +0.086 C  
DOCKED: ATOM     28  N   UNL     1     139.851  79.026 221.876 -0.09 +0.08    -0.298 NA 
DOCKED: ATOM     29  C   UNL     1     143.027  75.439 219.921 -0.36 -0.00    +0.000 A  
DOCKED: BRANCH  28  30
DOCKED: ATOM     30  C   UNL     1     140.990  79.946 222.104 -0.36 -0.02    +0.071 C  
DOCKED: ATOM     31  C   UNL     1     140.955  80.564 223.491 -0.49 -0.01    +0.036 C  
DOCKED: ATOM     32  C   UNL     1     142.325  79.208 222.104 -0.34 -0.06    +0.100 C  
DOCKED: ATOM     33  C   UNL     1     142.414  80.803 223.835 -0.60 -0.01    +0.082 C  
DOCKED: ATOM     34  N   UNL     1     143.235  79.920 223.002 -0.32 +0.12    -0.315 NA 
DOCKED: ATOM     35  H   UNL     1     143.873  80.513 222.420 -0.14 -0.04    +0.122 HD 
DOCKED: ENDBRANCH  28  30
DOCKED: ENDBRANCH  15  17
DOCKED: ENDBRANCH   6  15
DOCKED: TORSDOF 5
DOCKED: TER
DOCKED: ENDMDL
________________________________________________________________________________


    FINAL DOCKED STATE:
    ________________________


Run:   14 / 20
Time taken for this run:   0.034s

DOCKED: MODEL        14
DOCKED: USER    Run = 14
DOCKED: USER
DOCKED: USER    Estimated Free Energy of Binding    =  -9.04 kcal/mol  [=(1)+(2)+(3)-(4)]
DOCKED: USER
DOCKED: USER    (1) Final Intermolecular Energy     = -10.54 kcal/mol
DOCKED: USER        vdW + Hbond + desolv Energy     =  -9.00 kcal/mol
DOCKED: USER        Electrostatic Energy            =  -1.54 kcal/mol
DOCKED: USER        Moving Ligand-Fixed Receptor    = -10.54 kcal/mol
DOCKED: USER        Moving Ligand-Moving Receptor   =  +0.00 kcal/mol
DOCKED: USER    (2) Final Total Internal Energy     =  -0.75 kcal/mol
DOCKED: USER    (3) Torsional Free Energy           =  +1.49 kcal/mol
DOCKED: USER    (4) Unbound System's Energy         =  -0.75 kcal/mol
DOCKED: USER
DOCKED: USER
DOCKED: REMARK SMILES [N-]=C(O)c1ccc2cc(C(=O)N3C[C@]4(CCN([C@H]5CCNC5)C4)c4ccccc43)[nH]c2c1
DOCKED: REMARK SMILES IDX 4 1 5 2 6 3 7 4 8 5 9 6 30 7 31 8 32 9 2 11 1 12 3 13 10 15
DOCKED: REMARK SMILES IDX 11 16 12 17 13 18 29 19 14 20 28 21 24 22 15 23 23 24 27 25
DOCKED: REMARK SMILES IDX 25 26 16 27 17 28 26 29 18 30 19 31 22 32 20 33 21 34
DOCKED: REMARK H PARENT 30 10 3 14 21 35
DOCKED: USER                              x       y       z     vdW  Elec       q    Type
DOCKED: USER                           _______ _______ _______ _____ _____    ______ ____
DOCKED: ROOT
DOCKED: ATOM      1  C   UNL     1     144.451  72.553 219.985 -0.36 +0.00    -0.006 A  
DOCKED: ATOM      2  C   UNL     1     143.652  71.381 220.075 -0.26 -0.00    +0.010 A  
DOCKED: ATOM      3  C   UNL     1     142.324  71.447 220.533 -0.19 -0.00    +0.011 A  
DOCKED: ATOM      4  C   UNL     1     141.821  72.691 220.892 -0.25 -0.00    +0.000 A  
DOCKED: ATOM      5  C   UNL     1     140.575  73.052 221.358 -0.25 -0.01    +0.042 A  
DOCKED: ATOM      6  C   UNL     1     140.649  74.432 221.545 -0.28 -0.01    +0.106 A  
DOCKED: ATOM      7  N   UNL     1     141.872  74.902 221.201 -0.14 +0.11    -0.350 N  
DOCKED: ATOM      8  C   UNL     1     142.577  73.828 220.809 -0.25 -0.01    +0.047 A  
DOCKED: ATOM      9  C   UNL     1     143.895  73.801 220.360 -0.38 -0.01    +0.036 A  
DOCKED: ATOM     10  H   UNL     1     142.199  75.894 221.215 -0.44 -0.11    +0.167 HD 
DOCKED: ENDROOT
DOCKED: BRANCH   1  11
DOCKED: ATOM     11  C   UNL     1     145.847  72.459 219.499 -0.32 -0.00    -0.000 C  
DOCKED: ATOM     12  N   UNL     1     146.288  71.362 218.970 +0.22 -1.10    -0.771 NA 
DOCKED: BRANCH  11  13
DOCKED: ATOM     13  O   UNL     1     146.698  73.556 219.603 -0.42 -0.29    -0.532 OA 
DOCKED: ATOM     14  H   UNL     1     146.384  74.489 219.360 -0.39 -0.14    +0.290 HD 
DOCKED: ENDBRANCH  11  13
DOCKED: ENDBRANCH   1  11
DOCKED: BRANCH   6  15
DOCKED: ATOM     15  C   UNL     1     139.540  75.281 222.015 -0.19 -0.05    +0.274 C  
DOCKED: ATOM     16  O   UNL     1     138.408  74.767 222.217 -0.21 +0.08    -0.267 OA 
DOCKED: BRANCH  15  17
DOCKED: ATOM     17  N   UNL     1     139.715  76.692 222.196 -0.20 +0.07    -0.306 N  
DOCKED: ATOM     18  C   UNL     1     140.947  77.409 221.876 -0.31 -0.06    +0.139 C  
DOCKED: ATOM     19  C   UNL     1     138.714  77.632 222.554 -0.28 -0.01    +0.048 A  
DOCKED: ATOM     20  C   UNL     1     140.699  78.896 222.302 -0.38 -0.01    +0.029 C  
DOCKED: ATOM     21  C   UNL     1     137.351  77.381 222.750 -0.23 -0.00    +0.026 A  
DOCKED: ATOM     22  C   UNL     1     139.222  78.905 222.612 -0.30 +0.00    -0.015 A  
DOCKED: ATOM     23  C   UNL     1     141.518  79.305 223.524 -0.59 -0.01    +0.030 C  
DOCKED: ATOM     24  C   UNL     1     141.080  79.925 221.219 -0.28 -0.03    +0.098 C  
DOCKED: ATOM     25  C   UNL     1     136.509  78.460 223.061 -0.17 -0.00    +0.002 A  
DOCKED: ATOM     26  C   UNL     1     138.395  79.994 222.917 -0.28 -0.00    +0.006 A  
DOCKED: ATOM     27  C   UNL     1     141.798  80.777 223.306 -0.54 -0.02    +0.086 C  
DOCKED: ATOM     28  N   UNL     1     141.889  80.985 221.853 -0.24 +0.08    -0.298 NA 
DOCKED: ATOM     29  C   UNL     1     137.031  79.763 223.147 -0.21 -0.00    +0.000 A  
DOCKED: BRANCH  28  30
DOCKED: ATOM     30  C   UNL     1     141.467  82.347 221.450 -0.31 -0.01    +0.071 C  
DOCKED: ATOM     31  C   UNL     1     141.380  82.495 219.942 -0.21 -0.01    +0.036 C  
DOCKED: ATOM     32  C   UNL     1     140.039  82.653 221.896 -0.14 -0.01    +0.100 C  
DOCKED: ATOM     33  C   UNL     1     140.294  83.533 219.726 -0.16 -0.02    +0.082 C  
DOCKED: ATOM     34  N   UNL     1     139.452  83.576 220.925 -0.09 +0.05    -0.315 NA 
DOCKED: ATOM     35  H   UNL     1     139.494  84.543 221.324 +0.03 -0.02    +0.122 HD 
DOCKED: ENDBRANCH  28  30
DOCKED: ENDBRANCH  15  17
DOCKED: ENDBRANCH   6  15
DOCKED: TORSDOF 5
DOCKED: TER
DOCKED: ENDMDL
________________________________________________________________________________


    FINAL DOCKED STATE:
    ________________________


Run:   15 / 20
Time taken for this run:   0.034s

DOCKED: MODEL        15
DOCKED: USER    Run = 15
DOCKED: USER
DOCKED: USER    Estimated Free Energy of Binding    =  -8.52 kcal/mol  [=(1)+(2)+(3)-(4)]
DOCKED: USER
DOCKED: USER    (1) Final Intermolecular Energy     = -10.01 kcal/mol
DOCKED: USER        vdW + Hbond + desolv Energy     =  -9.73 kcal/mol
DOCKED: USER        Electrostatic Energy            =  -0.28 kcal/mol
DOCKED: USER        Moving Ligand-Fixed Receptor    = -10.01 kcal/mol
DOCKED: USER        Moving Ligand-Moving Receptor   =  +0.00 kcal/mol
DOCKED: USER    (2) Final Total Internal Energy     =  -1.00 kcal/mol
DOCKED: USER    (3) Torsional Free Energy           =  +1.49 kcal/mol
DOCKED: USER    (4) Unbound System's Energy         =  -1.00 kcal/mol
DOCKED: USER
DOCKED: USER
DOCKED: REMARK SMILES [N-]=C(O)c1ccc2cc(C(=O)N3C[C@]4(CCN([C@H]5CCNC5)C4)c4ccccc43)[nH]c2c1
DOCKED: REMARK SMILES IDX 4 1 5 2 6 3 7 4 8 5 9 6 30 7 31 8 32 9 2 11 1 12 3 13 10 15
DOCKED: REMARK SMILES IDX 11 16 12 17 13 18 29 19 14 20 28 21 24 22 15 23 23 24 27 25
DOCKED: REMARK SMILES IDX 25 26 16 27 17 28 26 29 18 30 19 31 22 32 20 33 21 34
DOCKED: REMARK H PARENT 30 10 3 14 21 35
DOCKED: USER                              x       y       z     vdW  Elec       q    Type
DOCKED: USER                           _______ _______ _______ _____ _____    ______ ____
DOCKED: ROOT
DOCKED: ATOM      1  C   UNL     1     135.457  81.598 228.230 -0.42 +0.00    -0.006 A  
DOCKED: ATOM      2  C   UNL     1     134.362  80.909 227.642 -0.24 -0.00    +0.010 A  
DOCKED: ATOM      3  C   UNL     1     134.391  80.530 226.288 -0.19 -0.00    +0.011 A  
DOCKED: ATOM      4  C   UNL     1     135.523  80.851 225.547 -0.22 -0.00    +0.000 A  
DOCKED: ATOM      5  C   UNL     1     135.828  80.602 224.226 -0.19 -0.00    +0.042 A  
DOCKED: ATOM      6  C   UNL     1     137.096  81.150 224.043 -0.25 -0.01    +0.106 A  
DOCKED: ATOM      7  N   UNL     1     137.558  81.697 225.192 -0.18 +0.02    -0.350 N  
DOCKED: ATOM      8  C   UNL     1     136.586  81.511 226.100 -0.41 -0.01    +0.047 A  
DOCKED: ATOM      9  C   UNL     1     136.592  81.901 227.437 -0.47 -0.01    +0.036 A  
DOCKED: ATOM     10  H   UNL     1     138.485  82.153 225.353 +0.13 +0.00    +0.167 HD 
DOCKED: ENDROOT
DOCKED: BRANCH   1  11
DOCKED: ATOM     11  C   UNL     1     135.404  81.985 229.658 -0.55 +0.00    -0.000 C  
DOCKED: ATOM     12  N   UNL     1     134.673  82.981 230.045 +0.07 -0.16    -0.771 NA 
DOCKED: BRANCH  11  13
DOCKED: ATOM     13  O   UNL     1     136.141  81.274 230.603 -0.39 +0.27    -0.532 OA 
DOCKED: ATOM     14  H   UNL     1     135.725  80.515 231.129 -0.32 -0.36    +0.290 HD 
DOCKED: ENDBRANCH  11  13
DOCKED: ENDBRANCH   1  11
DOCKED: BRANCH   6  15
DOCKED: ATOM     15  C   UNL     1     137.860  81.110 222.782 -0.13 -0.03    +0.274 C  
DOCKED: ATOM     16  O   UNL     1     137.561  81.904 221.851 -0.06 +0.04    -0.267 OA 
DOCKED: BRANCH  15  17
DOCKED: ATOM     17  N   UNL     1     138.901  80.147 222.579 -0.11 +0.05    -0.306 N  
DOCKED: ATOM     18  C   UNL     1     138.784  78.994 221.688 -0.14 -0.03    +0.139 C  
DOCKED: ATOM     19  C   UNL     1     140.233  80.221 223.064 -0.39 -0.01    +0.048 A  
DOCKED: ATOM     20  C   UNL     1     140.123  78.196 221.844 -0.30 -0.01    +0.029 C  
DOCKED: ATOM     21  C   UNL     1     140.809  81.269 223.791 -0.31 -0.00    +0.026 A  
DOCKED: ATOM     22  C   UNL     1     140.973  79.140 222.660 -0.44 +0.00    -0.015 A  
DOCKED: ATOM     23  C   UNL     1     139.936  76.864 222.568 -0.26 -0.01    +0.030 C  
DOCKED: ATOM     24  C   UNL     1     140.782  77.818 220.502 -0.20 -0.04    +0.098 C  
DOCKED: ATOM     25  C   UNL     1     142.163  81.173 224.146 -0.57 -0.00    +0.002 A  
DOCKED: ATOM     26  C   UNL     1     142.328  79.030 223.001 -0.55 -0.00    +0.006 A  
DOCKED: ATOM     27  C   UNL     1     140.980  75.958 221.951 -0.30 -0.03    +0.086 C  
DOCKED: ATOM     28  N   UNL     1     141.153  76.390 220.557 -0.11 +0.12    -0.298 NA 
DOCKED: ATOM     29  C   UNL     1     142.920  80.054 223.754 -0.55 -0.00    +0.000 A  
DOCKED: BRANCH  28  30
DOCKED: ATOM     30  C   UNL     1     142.522  76.134 220.051 -0.27 -0.04    +0.071 C  
DOCKED: ATOM     31  C   UNL     1     143.018  74.748 220.423 -0.31 -0.01    +0.036 C  
DOCKED: ATOM     32  C   UNL     1     142.568  76.105 218.526 -0.22 -0.05    +0.100 C  
DOCKED: ATOM     33  C   UNL     1     143.964  74.370 219.297 -0.28 -0.03    +0.082 C  
DOCKED: ATOM     34  N   UNL     1     143.633  75.186 218.125 -0.09 +0.15    -0.315 NA 
DOCKED: ATOM     35  H   UNL     1     144.476  75.753 217.868 -0.49 -0.09    +0.122 HD 
DOCKED: ENDBRANCH  28  30
DOCKED: ENDBRANCH  15  17
DOCKED: ENDBRANCH   6  15
DOCKED: TORSDOF 5
DOCKED: TER
DOCKED: ENDMDL
________________________________________________________________________________


    FINAL DOCKED STATE:
    ________________________


Run:   16 / 20
Time taken for this run:   0.034s

DOCKED: MODEL        16
DOCKED: USER    Run = 16
DOCKED: USER
DOCKED: USER    Estimated Free Energy of Binding    =  -9.02 kcal/mol  [=(1)+(2)+(3)-(4)]
DOCKED: USER
DOCKED: USER    (1) Final Intermolecular Energy     = -10.51 kcal/mol
DOCKED: USER        vdW + Hbond + desolv Energy     =  -9.16 kcal/mol
DOCKED: USER        Electrostatic Energy            =  -1.35 kcal/mol
DOCKED: USER        Moving Ligand-Fixed Receptor    = -10.51 kcal/mol
DOCKED: USER        Moving Ligand-Moving Receptor   =  +0.00 kcal/mol
DOCKED: USER    (2) Final Total Internal Energy     =  -0.76 kcal/mol
DOCKED: USER    (3) Torsional Free Energy           =  +1.49 kcal/mol
DOCKED: USER    (4) Unbound System's Energy         =  -0.76 kcal/mol
DOCKED: USER
DOCKED: USER
DOCKED: REMARK SMILES [N-]=C(O)c1ccc2cc(C(=O)N3C[C@]4(CCN([C@H]5CCNC5)C4)c4ccccc43)[nH]c2c1
DOCKED: REMARK SMILES IDX 4 1 5 2 6 3 7 4 8 5 9 6 30 7 31 8 32 9 2 11 1 12 3 13 10 15
DOCKED: REMARK SMILES IDX 11 16 12 17 13 18 29 19 14 20 28 21 24 22 15 23 23 24 27 25
DOCKED: REMARK SMILES IDX 25 26 16 27 17 28 26 29 18 30 19 31 22 32 20 33 21 34
DOCKED: REMARK H PARENT 30 10 3 14 21 35
DOCKED: USER                              x       y       z     vdW  Elec       q    Type
DOCKED: USER                           _______ _______ _______ _____ _____    ______ ____
DOCKED: ROOT
DOCKED: ATOM      1  C   UNL     1     144.321  72.690 219.763 -0.32 +0.00    -0.006 A  
DOCKED: ATOM      2  C   UNL     1     143.517  71.522 219.851 -0.23 -0.00    +0.010 A  
DOCKED: ATOM      3  C   UNL     1     142.215  71.580 220.378 -0.19 -0.00    +0.011 A  
DOCKED: ATOM      4  C   UNL     1     141.741  72.814 220.808 -0.24 -0.00    +0.000 A  
DOCKED: ATOM      5  C   UNL     1     140.524  73.166 221.349 -0.25 -0.01    +0.042 A  
DOCKED: ATOM      6  C   UNL     1     140.620  74.537 221.582 -0.29 -0.01    +0.106 A  
DOCKED: ATOM      7  N   UNL     1     141.827  75.011 221.193 -0.15 +0.11    -0.350 N  
DOCKED: ATOM      8  C   UNL     1     142.502  73.948 220.728 -0.26 -0.01    +0.047 A  
DOCKED: ATOM      9  C   UNL     1     143.796  73.928 220.211 -0.37 -0.01    +0.036 A  
DOCKED: ATOM     10  H   UNL     1     142.164  76.000 221.227 -0.45 -0.11    +0.167 HD 
DOCKED: ENDROOT
DOCKED: BRANCH   1  11
DOCKED: ATOM     11  C   UNL     1     145.689  72.604 219.203 -0.28 -0.00    -0.000 C  
DOCKED: ATOM     12  N   UNL     1     145.950  71.804 218.219 -0.14 -0.97    -0.771 NA 
DOCKED: BRANCH  11  13
DOCKED: ATOM     13  O   UNL     1     146.710  73.391 219.731 -0.45 -0.33    -0.532 OA 
DOCKED: ATOM     14  H   UNL     1     146.731  74.393 219.581 -0.39 -0.05    +0.290 HD 
DOCKED: ENDBRANCH  11  13
DOCKED: ENDBRANCH   1  11
DOCKED: BRANCH   6  15
DOCKED: ATOM     15  C   UNL     1     139.543  75.376 222.139 -0.17 -0.05    +0.274 C  
DOCKED: ATOM     16  O   UNL     1     138.440  74.849 222.441 -0.13 +0.09    -0.267 OA 
DOCKED: BRANCH  15  17
DOCKED: ATOM     17  N   UNL     1     139.714  76.791 222.293 -0.20 +0.07    -0.306 N  
DOCKED: ATOM     18  C   UNL     1     140.957  77.501 221.996 -0.33 -0.06    +0.139 C  
DOCKED: ATOM     19  C   UNL     1     138.703  77.739 222.598 -0.28 -0.01    +0.048 A  
DOCKED: ATOM     20  C   UNL     1     140.696  78.996 222.380 -0.39 -0.01    +0.029 C  
DOCKED: ATOM     21  C   UNL     1     137.334  77.493 222.757 -0.22 -0.00    +0.026 A  
DOCKED: ATOM     22  C   UNL     1     139.210  79.013 222.644 -0.30 +0.00    -0.015 A  
DOCKED: ATOM     23  C   UNL     1     141.477  79.433 223.618 -0.58 -0.01    +0.030 C  
DOCKED: ATOM     24  C   UNL     1     141.112  80.001 221.286 -0.29 -0.03    +0.098 C  
DOCKED: ATOM     25  C   UNL     1     136.484  78.579 223.016 -0.17 -0.00    +0.002 A  
DOCKED: ATOM     26  C   UNL     1     138.375  80.109 222.897 -0.28 -0.00    +0.006 A  
DOCKED: ATOM     27  C   UNL     1     141.766  80.899 223.376 -0.54 -0.02    +0.086 C  
DOCKED: ATOM     28  N   UNL     1     141.902  81.074 221.922 -0.24 +0.08    -0.298 NA 
DOCKED: ATOM     29  C   UNL     1     137.004  79.884 223.089 -0.21 -0.00    +0.000 A  
DOCKED: BRANCH  28  30
DOCKED: ATOM     30  C   UNL     1     141.494  82.427 221.475 -0.28 -0.01    +0.071 C  
DOCKED: ATOM     31  C   UNL     1     141.458  82.542 219.962 -0.19 -0.01    +0.036 C  
DOCKED: ATOM     32  C   UNL     1     140.053  82.743 221.867 -0.12 -0.01    +0.100 C  
DOCKED: ATOM     33  C   UNL     1     140.379  83.575 219.687 -0.17 -0.02    +0.082 C  
DOCKED: ATOM     34  N   UNL     1     139.499  83.644 220.857 -0.09 +0.05    -0.315 NA 
DOCKED: ATOM     35  H   UNL     1     139.529  84.620 221.236 +0.03 -0.02    +0.122 HD 
DOCKED: ENDBRANCH  28  30
DOCKED: ENDBRANCH  15  17
DOCKED: ENDBRANCH   6  15
DOCKED: TORSDOF 5
DOCKED: TER
DOCKED: ENDMDL
________________________________________________________________________________


    FINAL DOCKED STATE:
    ________________________


Run:   17 / 20
Time taken for this run:   0.034s

DOCKED: MODEL        17
DOCKED: USER    Run = 17
DOCKED: USER
DOCKED: USER    Estimated Free Energy of Binding    =  -9.04 kcal/mol  [=(1)+(2)+(3)-(4)]
DOCKED: USER
DOCKED: USER    (1) Final Intermolecular Energy     = -10.53 kcal/mol
DOCKED: USER        vdW + Hbond + desolv Energy     =  -9.66 kcal/mol
DOCKED: USER        Electrostatic Energy            =  -0.87 kcal/mol
DOCKED: USER        Moving Ligand-Fixed Receptor    = -10.53 kcal/mol
DOCKED: USER        Moving Ligand-Moving Receptor   =  +0.00 kcal/mol
DOCKED: USER    (2) Final Total Internal Energy     =  -1.11 kcal/mol
DOCKED: USER    (3) Torsional Free Energy           =  +1.49 kcal/mol
DOCKED: USER    (4) Unbound System's Energy         =  -1.11 kcal/mol
DOCKED: USER
DOCKED: USER
DOCKED: REMARK SMILES [N-]=C(O)c1ccc2cc(C(=O)N3C[C@]4(CCN([C@H]5CCNC5)C4)c4ccccc43)[nH]c2c1
DOCKED: REMARK SMILES IDX 4 1 5 2 6 3 7 4 8 5 9 6 30 7 31 8 32 9 2 11 1 12 3 13 10 15
DOCKED: REMARK SMILES IDX 11 16 12 17 13 18 29 19 14 20 28 21 24 22 15 23 23 24 27 25
DOCKED: REMARK SMILES IDX 25 26 16 27 17 28 26 29 18 30 19 31 22 32 20 33 21 34
DOCKED: REMARK H PARENT 30 10 3 14 21 35
DOCKED: USER                              x       y       z     vdW  Elec       q    Type
DOCKED: USER                           _______ _______ _______ _____ _____    ______ ____
DOCKED: ROOT
DOCKED: ATOM      1  C   UNL     1     144.290  73.968 219.729 -0.39 +0.00    -0.006 A  
DOCKED: ATOM      2  C   UNL     1     144.076  74.950 218.725 -0.10 -0.00    +0.010 A  
DOCKED: ATOM      3  C   UNL     1     142.971  75.817 218.787 -0.29 -0.01    +0.011 A  
DOCKED: ATOM      4  C   UNL     1     142.099  75.683 219.862 -0.27 -0.00    +0.000 A  
DOCKED: ATOM      5  C   UNL     1     140.959  76.387 220.182 -0.19 -0.02    +0.042 A  
DOCKED: ATOM      6  C   UNL     1     140.505  75.813 221.369 -0.28 -0.03    +0.106 A  
DOCKED: ATOM      7  N   UNL     1     141.329  74.815 221.769 -0.08 +0.05    -0.350 N  
DOCKED: ATOM      8  C   UNL     1     142.293  74.744 220.837 -0.27 -0.02    +0.047 A  
DOCKED: ATOM      9  C   UNL     1     143.377  73.869 220.808 -0.28 -0.01    +0.036 A  
DOCKED: ATOM     10  H   UNL     1     141.248  74.231 222.632 +0.10 +0.05    +0.167 HD 
DOCKED: ENDROOT
DOCKED: BRANCH   1  11
DOCKED: ATOM     11  C   UNL     1     145.462  73.066 219.642 -0.45 -0.00    -0.000 C  
DOCKED: ATOM     12  N   UNL     1     145.843  72.589 218.500 -0.43 -0.71    -0.771 NA 
DOCKED: BRANCH  11  13
DOCKED: ATOM     13  O   UNL     1     146.169  72.727 220.793 -0.23 -0.04    -0.532 OA 
DOCKED: ATOM     14  H   UNL     1     145.894  71.935 221.363 -0.38 -0.18    +0.290 HD 
DOCKED: ENDBRANCH  11  13
DOCKED: ENDBRANCH   1  11
DOCKED: BRANCH   6  15
DOCKED: ATOM     15  C   UNL     1     139.314  76.252 222.118 -0.22 -0.06    +0.274 C  
DOCKED: ATOM     16  O   UNL     1     138.419  75.413 222.405 -0.24 +0.08    -0.267 OA 
DOCKED: BRANCH  15  17
DOCKED: ATOM     17  N   UNL     1     139.132  77.627 222.479 -0.15 +0.06    -0.306 N  
DOCKED: ATOM     18  C   UNL     1     137.826  78.258 222.659 -0.19 -0.02    +0.139 C  
DOCKED: ATOM     19  C   UNL     1     140.144  78.544 222.865 -0.37 -0.01    +0.048 A  
DOCKED: ATOM     20  C   UNL     1     138.119  79.764 222.972 -0.28 -0.00    +0.029 C  
DOCKED: ATOM     21  C   UNL     1     141.510  78.278 223.021 -0.50 -0.01    +0.026 A  
DOCKED: ATOM     22  C   UNL     1     139.615  79.772 223.170 -0.38 +0.00    -0.015 A  
DOCKED: ATOM     23  C   UNL     1     137.713  80.694 221.831 -0.12 -0.00    +0.030 C  
DOCKED: ATOM     24  C   UNL     1     137.358  80.303 224.200 -0.23 -0.01    +0.098 C  
DOCKED: ATOM     25  C   UNL     1     142.348  79.316 223.453 -0.59 -0.00    +0.002 A  
DOCKED: ATOM     26  C   UNL     1     140.438  80.818 223.608 -0.43 -0.00    +0.006 A  
DOCKED: ATOM     27  C   UNL     1     137.300  81.974 222.526 -0.14 -0.01    +0.086 C  
DOCKED: ATOM     28  N   UNL     1     136.740  81.592 223.830 -0.10 +0.03    -0.298 NA 
DOCKED: ATOM     29  C   UNL     1     141.814  80.585 223.744 -0.60 -0.00    +0.000 A  
DOCKED: BRANCH  28  30
DOCKED: ATOM     30  C   UNL     1     136.939  82.639 224.859 -0.20 -0.00    +0.071 C  
DOCKED: ATOM     31  C   UNL     1     135.792  83.633 224.892 -0.16 -0.00    +0.036 C  
DOCKED: ATOM     32  C   UNL     1     136.915  82.059 226.271 -0.41 -0.01    +0.100 C  
DOCKED: ATOM     33  C   UNL     1     135.734  84.096 226.337 -0.22 -0.00    +0.082 C  
DOCKED: ATOM     34  N   UNL     1     136.389  83.085 227.171 -0.19 +0.04    -0.315 NA 
DOCKED: ATOM     35  H   UNL     1     137.197  83.536 227.663 -0.39 -0.03    +0.122 HD 
DOCKED: ENDBRANCH  28  30
DOCKED: ENDBRANCH  15  17
DOCKED: ENDBRANCH   6  15
DOCKED: TORSDOF 5
DOCKED: TER
DOCKED: ENDMDL
________________________________________________________________________________


    FINAL DOCKED STATE:
    ________________________


Run:   18 / 20
Time taken for this run:   0.034s

DOCKED: MODEL        18
DOCKED: USER    Run = 18
DOCKED: USER
DOCKED: USER    Estimated Free Energy of Binding    =  -9.07 kcal/mol  [=(1)+(2)+(3)-(4)]
DOCKED: USER
DOCKED: USER    (1) Final Intermolecular Energy     = -10.56 kcal/mol
DOCKED: USER        vdW + Hbond + desolv Energy     =  -9.66 kcal/mol
DOCKED: USER        Electrostatic Energy            =  -0.90 kcal/mol
DOCKED: USER        Moving Ligand-Fixed Receptor    = -10.56 kcal/mol
DOCKED: USER        Moving Ligand-Moving Receptor   =  +0.00 kcal/mol
DOCKED: USER    (2) Final Total Internal Energy     =  -1.11 kcal/mol
DOCKED: USER    (3) Torsional Free Energy           =  +1.49 kcal/mol
DOCKED: USER    (4) Unbound System's Energy         =  -1.11 kcal/mol
DOCKED: USER
DOCKED: USER
DOCKED: REMARK SMILES [N-]=C(O)c1ccc2cc(C(=O)N3C[C@]4(CCN([C@H]5CCNC5)C4)c4ccccc43)[nH]c2c1
DOCKED: REMARK SMILES IDX 4 1 5 2 6 3 7 4 8 5 9 6 30 7 31 8 32 9 2 11 1 12 3 13 10 15
DOCKED: REMARK SMILES IDX 11 16 12 17 13 18 29 19 14 20 28 21 24 22 15 23 23 24 27 25
DOCKED: REMARK SMILES IDX 25 26 16 27 17 28 26 29 18 30 19 31 22 32 20 33 21 34
DOCKED: REMARK H PARENT 30 10 3 14 21 35
DOCKED: USER                              x       y       z     vdW  Elec       q    Type
DOCKED: USER                           _______ _______ _______ _____ _____    ______ ____
DOCKED: ROOT
DOCKED: ATOM      1  C   UNL     1     144.318  73.986 219.738 -0.39 +0.00    -0.006 A  
DOCKED: ATOM      2  C   UNL     1     144.066  74.926 218.701 -0.11 -0.00    +0.010 A  
DOCKED: ATOM      3  C   UNL     1     142.941  75.768 218.749 -0.28 -0.01    +0.011 A  
DOCKED: ATOM      4  C   UNL     1     142.088  75.652 219.840 -0.27 -0.00    +0.000 A  
DOCKED: ATOM      5  C   UNL     1     140.935  76.340 220.151 -0.19 -0.02    +0.042 A  
DOCKED: ATOM      6  C   UNL     1     140.512  75.800 221.364 -0.28 -0.03    +0.106 A  
DOCKED: ATOM      7  N   UNL     1     141.365  74.837 221.788 -0.06 +0.06    -0.350 N  
DOCKED: ATOM      8  C   UNL     1     142.318  74.755 220.846 -0.27 -0.02    +0.047 A  
DOCKED: ATOM      9  C   UNL     1     143.422  73.905 220.832 -0.28 -0.01    +0.036 A  
DOCKED: ATOM     10  H   UNL     1     141.311  74.282 222.672 +0.10 +0.06    +0.167 HD 
DOCKED: ENDROOT
DOCKED: BRANCH   1  11
DOCKED: ATOM     11  C   UNL     1     145.510  73.110 219.666 -0.46 -0.00    -0.000 C  
DOCKED: ATOM     12  N   UNL     1     145.916  72.640 218.530 -0.44 -0.75    -0.771 NA 
DOCKED: BRANCH  11  13
DOCKED: ATOM     13  O   UNL     1     146.210  72.787 220.826 -0.24 -0.03    -0.532 OA 
DOCKED: ATOM     14  H   UNL     1     145.964  71.975 221.379 -0.38 -0.17    +0.290 HD 
DOCKED: ENDBRANCH  11  13
DOCKED: ENDBRANCH   1  11
DOCKED: BRANCH   6  15
DOCKED: ATOM     15  C   UNL     1     139.321  76.236 222.114 -0.22 -0.06    +0.274 C  
DOCKED: ATOM     16  O   UNL     1     138.424  75.398 222.396 -0.24 +0.08    -0.267 OA 
DOCKED: BRANCH  15  17
DOCKED: ATOM     17  N   UNL     1     139.141  77.610 222.482 -0.16 +0.06    -0.306 N  
DOCKED: ATOM     18  C   UNL     1     137.836  78.238 222.677 -0.19 -0.02    +0.139 C  
DOCKED: ATOM     19  C   UNL     1     140.156  78.527 222.859 -0.37 -0.01    +0.048 A  
DOCKED: ATOM     20  C   UNL     1     138.130  79.744 222.992 -0.28 -0.00    +0.029 C  
DOCKED: ATOM     21  C   UNL     1     141.523  78.263 222.999 -0.49 -0.01    +0.026 A  
DOCKED: ATOM     22  C   UNL     1     139.629  79.754 223.175 -0.38 +0.00    -0.015 A  
DOCKED: ATOM     23  C   UNL     1     137.711  80.678 221.859 -0.13 -0.00    +0.030 C  
DOCKED: ATOM     24  C   UNL     1     137.382  80.278 224.230 -0.22 -0.01    +0.098 C  
DOCKED: ATOM     25  C   UNL     1     142.365  79.301 223.427 -0.59 -0.00    +0.002 A  
DOCKED: ATOM     26  C   UNL     1     140.454  80.800 223.607 -0.43 -0.00    +0.006 A  
DOCKED: ATOM     27  C   UNL     1     137.304  81.955 222.562 -0.14 -0.01    +0.086 C  
DOCKED: ATOM     28  N   UNL     1     136.758  81.567 223.871 -0.11 +0.03    -0.298 NA 
DOCKED: ATOM     29  C   UNL     1     141.832  80.567 223.727 -0.60 -0.00    +0.000 A  
DOCKED: BRANCH  28  30
DOCKED: ATOM     30  C   UNL     1     136.967  82.611 224.902 -0.19 -0.00    +0.071 C  
DOCKED: ATOM     31  C   UNL     1     135.834  83.621 224.930 -0.17 -0.00    +0.036 C  
DOCKED: ATOM     32  C   UNL     1     136.929  82.031 226.313 -0.41 -0.01    +0.100 C  
DOCKED: ATOM     33  C   UNL     1     135.775  84.084 226.374 -0.23 -0.00    +0.082 C  
DOCKED: ATOM     34  N   UNL     1     136.413  83.064 227.211 -0.20 +0.04    -0.315 NA 
DOCKED: ATOM     35  H   UNL     1     137.225  83.503 227.707 -0.39 -0.04    +0.122 HD 
DOCKED: ENDBRANCH  28  30
DOCKED: ENDBRANCH  15  17
DOCKED: ENDBRANCH   6  15
DOCKED: TORSDOF 5
DOCKED: TER
DOCKED: ENDMDL
________________________________________________________________________________


    FINAL DOCKED STATE:
    ________________________


Run:   19 / 20
Time taken for this run:   0.034s

DOCKED: MODEL        19
DOCKED: USER    Run = 19
DOCKED: USER
DOCKED: USER    Estimated Free Energy of Binding    =  -9.31 kcal/mol  [=(1)+(2)+(3)-(4)]
DOCKED: USER
DOCKED: USER    (1) Final Intermolecular Energy     = -10.80 kcal/mol
DOCKED: USER        vdW + Hbond + desolv Energy     =  -9.59 kcal/mol
DOCKED: USER        Electrostatic Energy            =  -1.21 kcal/mol
DOCKED: USER        Moving Ligand-Fixed Receptor    = -10.80 kcal/mol
DOCKED: USER        Moving Ligand-Moving Receptor   =  +0.00 kcal/mol
DOCKED: USER    (2) Final Total Internal Energy     =  -1.11 kcal/mol
DOCKED: USER    (3) Torsional Free Energy           =  +1.49 kcal/mol
DOCKED: USER    (4) Unbound System's Energy         =  -1.11 kcal/mol
DOCKED: USER
DOCKED: USER
DOCKED: REMARK SMILES [N-]=C(O)c1ccc2cc(C(=O)N3C[C@]4(CCN([C@H]5CCNC5)C4)c4ccccc43)[nH]c2c1
DOCKED: REMARK SMILES IDX 4 1 5 2 6 3 7 4 8 5 9 6 30 7 31 8 32 9 2 11 1 12 3 13 10 15
DOCKED: REMARK SMILES IDX 11 16 12 17 13 18 29 19 14 20 28 21 24 22 15 23 23 24 27 25
DOCKED: REMARK SMILES IDX 25 26 16 27 17 28 26 29 18 30 19 31 22 32 20 33 21 34
DOCKED: REMARK H PARENT 30 10 3 14 21 35
DOCKED: USER                              x       y       z     vdW  Elec       q    Type
DOCKED: USER                           _______ _______ _______ _____ _____    ______ ____
DOCKED: ROOT
DOCKED: ATOM      1  C   UNL     1     144.523  73.726 220.278 -0.47 +0.00    -0.006 A  
DOCKED: ATOM      2  C   UNL     1     143.356  73.019 220.676 -0.31 -0.00    +0.010 A  
DOCKED: ATOM      3  C   UNL     1     142.107  73.661 220.731 -0.27 -0.00    +0.011 A  
DOCKED: ATOM      4  C   UNL     1     142.051  75.006 220.382 -0.29 -0.00    +0.000 A  
DOCKED: ATOM      5  C   UNL     1     140.982  75.874 220.334 -0.21 -0.01    +0.042 A  
DOCKED: ATOM      6  C   UNL     1     141.525  77.087 219.913 -0.21 -0.05    +0.106 A  
DOCKED: ATOM      7  N   UNL     1     142.857  76.973 219.699 -0.17 +0.26    -0.350 N  
DOCKED: ATOM      8  C   UNL     1     143.164  75.699 219.994 -0.32 -0.03    +0.047 A  
DOCKED: ATOM      9  C   UNL     1     144.418  75.095 219.928 -0.21 -0.02    +0.036 A  
DOCKED: ATOM     10  H   UNL     1     143.513  77.711 219.358 -0.43 -0.17    +0.167 HD 
DOCKED: ENDROOT
DOCKED: BRANCH   1  11
DOCKED: ATOM     11  C   UNL     1     145.828  73.027 220.228 -0.57 -0.00    -0.000 C  
DOCKED: ATOM     12  N   UNL     1     146.324  72.638 219.097 -0.23 -0.99    -0.771 NA 
DOCKED: BRANCH  11  13
DOCKED: ATOM     13  O   UNL     1     146.536  72.786 221.403 -0.20 +0.03    -0.532 OA 
DOCKED: ATOM     14  H   UNL     1     146.355  71.963 221.965 -0.31 -0.23    +0.290 HD 
DOCKED: ENDBRANCH  11  13
DOCKED: ENDBRANCH   1  11
DOCKED: BRANCH   6  15
DOCKED: ATOM     15  C   UNL     1     140.755  78.324 219.689 -0.09 -0.11    +0.274 C  
DOCKED: ATOM     16  O   UNL     1     140.582  78.741 218.513 -0.05 +0.11    -0.267 OA 
DOCKED: BRANCH  15  17
DOCKED: ATOM     17  N   UNL     1     140.248  79.089 220.789 -0.05 +0.10    -0.306 N  
DOCKED: ATOM     18  C   UNL     1     138.826  79.225 221.102 -0.10 -0.03    +0.139 C  
DOCKED: ATOM     19  C   UNL     1     141.007  79.697 221.822 -0.33 -0.02    +0.048 A  
DOCKED: ATOM     20  C   UNL     1     138.750  80.199 222.326 -0.23 -0.00    +0.029 C  
DOCKED: ATOM     21  C   UNL     1     142.394  79.629 222.003 -0.43 -0.01    +0.026 A  
DOCKED: ATOM     22  C   UNL     1     140.198  80.330 222.731 -0.36 +0.00    -0.015 A  
DOCKED: ATOM     23  C   UNL     1     138.158  81.559 221.962 -0.16 -0.00    +0.030 C  
DOCKED: ATOM     24  C   UNL     1     137.860  79.685 223.475 -0.23 -0.01    +0.098 C  
DOCKED: ATOM     25  C   UNL     1     142.955  80.268 223.118 -0.67 -0.00    +0.002 A  
DOCKED: ATOM     26  C   UNL     1     140.742  80.969 223.853 -0.38 -0.00    +0.006 A  
DOCKED: ATOM     27  C   UNL     1     137.442  82.000 223.221 -0.18 -0.01    +0.086 C  
DOCKED: ATOM     28  N   UNL     1     136.962  80.781 223.890 -0.13 +0.03    -0.298 NA 
DOCKED: ATOM     29  C   UNL     1     142.132  80.939 224.040 -0.57 -0.00    +0.000 A  
DOCKED: BRANCH  28  30
DOCKED: ATOM     30  C   UNL     1     136.889  80.936 225.362 -0.29 -0.01    +0.071 C  
DOCKED: ATOM     31  C   UNL     1     137.283  82.332 225.809 -0.30 -0.00    +0.036 C  
DOCKED: ATOM     32  C   UNL     1     135.457  80.815 225.874 -0.07 -0.02    +0.100 C  
DOCKED: ATOM     33  C   UNL     1     136.480  82.564 227.077 -0.41 -0.01    +0.082 C  
DOCKED: ATOM     34  N   UNL     1     135.333  81.651 227.069 -0.15 +0.07    -0.315 NA 
DOCKED: ATOM     35  H   UNL     1     135.398  81.031 227.911 -0.21 -0.06    +0.122 HD 
DOCKED: ENDBRANCH  28  30
DOCKED: ENDBRANCH  15  17
DOCKED: ENDBRANCH   6  15
DOCKED: TORSDOF 5
DOCKED: TER
DOCKED: ENDMDL
________________________________________________________________________________


    FINAL DOCKED STATE:
    ________________________


Run:   20 / 20
Time taken for this run:   0.034s

DOCKED: MODEL        20
DOCKED: USER    Run = 20
DOCKED: USER
DOCKED: USER    Estimated Free Energy of Binding    =  -9.33 kcal/mol  [=(1)+(2)+(3)-(4)]
DOCKED: USER
DOCKED: USER    (1) Final Intermolecular Energy     = -10.82 kcal/mol
DOCKED: USER        vdW + Hbond + desolv Energy     =  -9.64 kcal/mol
DOCKED: USER        Electrostatic Energy            =  -1.18 kcal/mol
DOCKED: USER        Moving Ligand-Fixed Receptor    = -10.82 kcal/mol
DOCKED: USER        Moving Ligand-Moving Receptor   =  +0.00 kcal/mol
DOCKED: USER    (2) Final Total Internal Energy     =  -1.10 kcal/mol
DOCKED: USER    (3) Torsional Free Energy           =  +1.49 kcal/mol
DOCKED: USER    (4) Unbound System's Energy         =  -1.10 kcal/mol
DOCKED: USER
DOCKED: USER
DOCKED: REMARK SMILES [N-]=C(O)c1ccc2cc(C(=O)N3C[C@]4(CCN([C@H]5CCNC5)C4)c4ccccc43)[nH]c2c1
DOCKED: REMARK SMILES IDX 4 1 5 2 6 3 7 4 8 5 9 6 30 7 31 8 32 9 2 11 1 12 3 13 10 15
DOCKED: REMARK SMILES IDX 11 16 12 17 13 18 29 19 14 20 28 21 24 22 15 23 23 24 27 25
DOCKED: REMARK SMILES IDX 25 26 16 27 17 28 26 29 18 30 19 31 22 32 20 33 21 34
DOCKED: REMARK H PARENT 30 10 3 14 21 35
DOCKED: USER                              x       y       z     vdW  Elec       q    Type
DOCKED: USER                           _______ _______ _______ _____ _____    ______ ____
DOCKED: ROOT
DOCKED: ATOM      1  C   UNL     1     144.497  73.756 220.264 -0.47 +0.00    -0.006 A  
DOCKED: ATOM      2  C   UNL     1     143.298  73.064 220.589 -0.31 -0.00    +0.010 A  
DOCKED: ATOM      3  C   UNL     1     142.063  73.734 220.614 -0.26 -0.00    +0.011 A  
DOCKED: ATOM      4  C   UNL     1     142.052  75.090 220.309 -0.29 -0.00    +0.000 A  
DOCKED: ATOM      5  C   UNL     1     141.006  75.985 220.246 -0.20 -0.01    +0.042 A  
DOCKED: ATOM      6  C   UNL     1     141.593  77.198 219.890 -0.22 -0.05    +0.106 A  
DOCKED: ATOM      7  N   UNL     1     142.931  77.059 219.728 -0.16 +0.27    -0.350 N  
DOCKED: ATOM      8  C   UNL     1     143.196  75.769 219.991 -0.32 -0.03    +0.047 A  
DOCKED: ATOM      9  C   UNL     1     144.438  75.138 219.957 -0.21 -0.02    +0.036 A  
DOCKED: ATOM     10  H   UNL     1     143.617  77.792 219.439 -0.46 -0.19    +0.167 HD 
DOCKED: ENDROOT
DOCKED: BRANCH   1  11
DOCKED: ATOM     11  C   UNL     1     145.787  73.028 220.244 -0.58 -0.00    -0.000 C  
DOCKED: ATOM     12  N   UNL     1     146.298  72.624 219.125 -0.23 -0.95    -0.771 NA 
DOCKED: BRANCH  11  13
DOCKED: ATOM     13  O   UNL     1     146.464  72.775 221.434 -0.21 +0.05    -0.532 OA 
DOCKED: ATOM     14  H   UNL     1     146.276  71.941 221.978 -0.31 -0.25    +0.290 HD 
DOCKED: ENDBRANCH  11  13
DOCKED: ENDBRANCH   1  11
DOCKED: BRANCH   6  15
DOCKED: ATOM     15  C   UNL     1     140.863  78.460 219.676 -0.10 -0.12    +0.274 C  
DOCKED: ATOM     16  O   UNL     1     140.735  78.912 218.507 -0.05 +0.12    -0.267 OA 
DOCKED: BRANCH  15  17
DOCKED: ATOM     17  N   UNL     1     140.341  79.209 220.781 -0.05 +0.10    -0.306 N  
DOCKED: ATOM     18  C   UNL     1     138.917  79.312 221.098 -0.10 -0.03    +0.139 C  
DOCKED: ATOM     19  C   UNL     1     141.089  79.828 221.816 -0.34 -0.02    +0.048 A  
DOCKED: ATOM     20  C   UNL     1     138.822  80.279 222.326 -0.23 -0.00    +0.029 C  
DOCKED: ATOM     21  C   UNL     1     142.477  79.789 221.993 -0.43 -0.01    +0.026 A  
DOCKED: ATOM     22  C   UNL     1     140.268  80.439 222.729 -0.37 +0.00    -0.015 A  
DOCKED: ATOM     23  C   UNL     1     138.201  81.627 221.971 -0.16 -0.00    +0.030 C  
DOCKED: ATOM     24  C   UNL     1     137.946  79.740 223.475 -0.25 -0.01    +0.098 C  
DOCKED: ATOM     25  C   UNL     1     143.027  80.435 223.111 -0.65 -0.00    +0.002 A  
DOCKED: ATOM     26  C   UNL     1     140.801  81.084 223.853 -0.36 -0.00    +0.006 A  
DOCKED: ATOM     27  C   UNL     1     137.478  82.046 223.233 -0.17 -0.01    +0.086 C  
DOCKED: ATOM     28  N   UNL     1     137.026  80.815 223.897 -0.14 +0.03    -0.298 NA 
DOCKED: ATOM     29  C   UNL     1     142.191  81.084 224.037 -0.60 -0.00    +0.000 A  
DOCKED: BRANCH  28  30
DOCKED: ATOM     30  C   UNL     1     136.953  80.961 225.369 -0.30 -0.01    +0.071 C  
DOCKED: ATOM     31  C   UNL     1     137.323  82.361 225.823 -0.28 -0.00    +0.036 C  
DOCKED: ATOM     32  C   UNL     1     135.524  80.813 225.884 -0.05 -0.02    +0.100 C  
DOCKED: ATOM     33  C   UNL     1     136.518  82.573 227.093 -0.41 -0.01    +0.082 C  
DOCKED: ATOM     34  N   UNL     1     135.388  81.640 227.082 -0.15 +0.07    -0.315 NA 
DOCKED: ATOM     35  H   UNL     1     135.464  81.018 227.922 -0.23 -0.06    +0.122 HD 
DOCKED: ENDBRANCH  28  30
DOCKED: ENDBRANCH  15  17
DOCKED: ENDBRANCH   6  15
DOCKED: TORSDOF 5
DOCKED: TER
DOCKED: ENDMDL
________________________________________________________________________________


    CLUSTERING HISTOGRAM
    ____________________


________________________________________________________________________________
     |           |     |           |     |
Clus | Lowest    | Run | Mean      | Num | Histogram
-ter | Binding   |     | Binding   | in  |
Rank | Energy    |     | Energy    | Clus|    5    10   15   20   25   30   35
_____|___________|_____|___________|_____|____:____|____:____|____:____|____:___
   1 |     -9.33 |  20 |     -9.19 |   8 |########
   2 |     -9.07 |   1 |     -9.04 |   6 |######
   3 |     -8.92 |   7 |     -8.85 |   2 |##
   4 |     -8.52 |  15 |     -8.24 |   3 |###
   5 |     -8.01 |  13 |     -8.01 |   1 |#
_____|___________|_____|___________|_____|______________________________________


    RMSD TABLE
    __________


_______________________________________________________________________
     |      |      |           |         |                 |
Rank | Sub- | Run  | Binding   | Cluster | Reference       | Grep
     | Rank |      | Energy    | RMSD    | RMSD            | Pattern
_____|______|______|___________|_________|_________________|___________
   1      1     20       -9.33      0.00    273.24           RANKING
   1      2     19       -9.31      0.12    273.20           RANKING
   1      3     11       -9.27      0.10    273.26           RANKING
   1      4      9       -9.25      0.17    273.25           RANKING
   1      5     12       -9.25      0.21    273.19           RANKING
   1      6     18       -9.07      1.99    273.19           RANKING
   1      7     17       -9.04      2.00    273.17           RANKING
   1      8      6       -9.03      2.00    273.21           RANKING
   2      1      1       -9.07      0.00    272.55           RANKING
   2      2     10       -9.05      0.24    272.59           RANKING
   2      3      4       -9.05      0.07    272.53           RANKING
   2      4     14       -9.04      0.22    272.55           RANKING
   2      5     16       -9.02      0.09    272.54           RANKING
   2      6      5       -8.98      0.13    272.59           RANKING
   3      1      7       -8.92      0.00    273.13           RANKING
   3      2      8       -8.78      0.35    273.10           RANKING
   4      1     15       -8.52      0.00    274.02           RANKING
   4      2      3       -8.17      1.35    273.58           RANKING
   4      3      2       -8.02      0.94    273.89           RANKING
   5      1     13       -8.01      0.00    272.62           RANKING

Run time 0.619 sec
Idle time 0.000 sec
