AutoDock-GPU version: v1.6

**********************************************************
**    AutoDock-GPU AUTODOCKTOOLS-COMPATIBLE DLG FILE    **
**********************************************************


    DOCKING PARAMETERS
    ________________________


Ligand file:                               /home/a/REINVENT4/ReinventStudies/scoringData/graph-dock-34dfml/graph-DockGPU/node-autodockgpu/inputs/DXBLBRQFZRPGTN-XMMPIXPANA-N.pdbqt
Grid fld file:                             /home/a/REINVENT4/ReinventStudies/mols/Rad51/maps/rad51_receptor.maps.fld

Random seed:                               42
Number of runs:                            20
Number of energy evaluations:              1132076
Number of generations:                     42000
Size of population:                        150
Rate of crossover:                         80.000000%
Tournament selection probability limit:    60.000000%
Rate of mutation:                          2.000000%
Maximal allowed delta movement:            +/- 6.000000A
Maximal allowed delta angle:               +/- 90.000000

Rate of local search:                      100.000000%
Maximal number of local search iterations: 300
Rho lower bound:                           0.010000
Spread of local search delta movement:     2.000000A
Spread of local search delta angle:        74.999999
Limit of consecutive successes/failures:   4

Handle symmetry during clustering:         YES
RMSD tolerance:                            2.000000A

Program call in command line was:          /home/a/REINVENT4/ReinventStudies/adgpu-v1.6_linux_x64_cuda12_128wi --filelist batch.txt --heuristics 1 --nrun 20 --psize 150 --lsit 300 --seed 42 --heurmax 12000000 


    GRID PARAMETERS
    ________________________


Receptor name:                             rad51_receptor
Number of grid points (x, y, z):           53, 53, 53
Grid center (x, y, z):                     139.950000, 75.640000, 221.970000A
Grid size (x, y, z):                       19.500000, 19.500000, 19.500000A
Grid spacing:                              0.375000A


    LIGAND PARAMETERS
    ________________________


Ligand name:                               /home/a/REINVENT4/ReinventStudies/scoringData/graph-dock-34dfml/graph-DockGPU/node-autodockgpu/inputs/DXBLBRQFZRPGTN-XMMPIXPANA-N
Number of atoms:                           36
Number of rotatable bonds:                 5
Number of atom types:                      6


    DUMMY DATA (only for ADT-compatibility)
    ________________________


DPF> outlev 1
DPF> ga_run 20
DPF> fld /home/a/REINVENT4/ReinventStudies/mols/Rad51/maps/rad51_receptor.maps.fld
DPF> move /home/a/REINVENT4/ReinventStudies/scoringData/graph-dock-34dfml/graph-DockGPU/node-autodockgpu/inputs/DXBLBRQFZRPGTN-XMMPIXPANA-N.pdbqt


    COUNTER STATES
    ________________________


Number of energy evaluations performed:    664060
Number of generations used:                45


    INPUT LIGAND PDBQT FILE:
    ________________________


INPUT-LIGAND-PDBQT: REMARK SMILES CCN[C@H]1CN(c2nc(N3CCc4ccccc4C3)nc(N3CCc4ccccc4C3)n2)CCO1
INPUT-LIGAND-PDBQT: REMARK SMILES IDX 4 1 5 2 6 3 33 4 34 5 35 6 3 7 2 9 1 10 7 11 8 12 32 13 9 14
INPUT-LIGAND-PDBQT: REMARK SMILES IDX 21 15 20 16 10 17 11 18 19 19 12 20 18 21 13 22 17 23 14 24
INPUT-LIGAND-PDBQT: REMARK SMILES IDX 16 25 15 26 22 27 23 28 31 29 24 30 30 31 25 32 29 33 26 34
INPUT-LIGAND-PDBQT: REMARK SMILES IDX 28 35 27 36
INPUT-LIGAND-PDBQT: REMARK H PARENT 3 8
INPUT-LIGAND-PDBQT: ROOT
INPUT-LIGAND-PDBQT: ATOM      1  C   UNL     1       0.398  -1.875   4.113  1.00  0.00     0.205 C 
INPUT-LIGAND-PDBQT: ATOM      2  C   UNL     1      -0.403  -1.504   2.847  1.00  0.00     0.168 C 
INPUT-LIGAND-PDBQT: ATOM      3  N   UNL     1       0.475  -1.539   1.674  1.00  0.00    -0.334 N 
INPUT-LIGAND-PDBQT: ATOM      4  C   UNL     1       1.332  -2.718   1.525  1.00  0.00     0.148 C 
INPUT-LIGAND-PDBQT: ATOM      5  C   UNL     1       2.028  -3.012   2.858  1.00  0.00     0.184 C 
INPUT-LIGAND-PDBQT: ATOM      6  O   UNL     1       1.098  -3.098   3.926  1.00  0.00    -0.360 OA
INPUT-LIGAND-PDBQT: ENDROOT
INPUT-LIGAND-PDBQT: BRANCH   1   7
INPUT-LIGAND-PDBQT: ATOM      7  N   UNL     1       1.332  -0.799   4.524  1.00  0.00    -0.291 NA
INPUT-LIGAND-PDBQT: ATOM      8  H   UNL     1       1.537  -0.140   3.737  1.00  0.00     0.125 HD
INPUT-LIGAND-PDBQT: BRANCH   7   9
INPUT-LIGAND-PDBQT: ATOM      9  C   UNL     1       0.890  -0.043   5.706  1.00  0.00     0.080 C 
INPUT-LIGAND-PDBQT: ATOM     10  C   UNL     1      -0.279   0.894   5.397  1.00  0.00     0.020 C 
INPUT-LIGAND-PDBQT: ENDBRANCH   7   9
INPUT-LIGAND-PDBQT: ENDBRANCH   1   7
INPUT-LIGAND-PDBQT: BRANCH   3  11
INPUT-LIGAND-PDBQT: ATOM     11  C   UNL     1       0.343  -0.568   0.617  1.00  0.00     0.232 A 
INPUT-LIGAND-PDBQT: ATOM     12  N   UNL     1      -0.276   0.617   0.852  1.00  0.00    -0.176 NA
INPUT-LIGAND-PDBQT: ATOM     13  N   UNL     1       0.857  -0.817  -0.616  1.00  0.00    -0.176 NA
INPUT-LIGAND-PDBQT: ATOM     14  C   UNL     1      -0.384   1.552  -0.127  1.00  0.00     0.232 A 
INPUT-LIGAND-PDBQT: ATOM     15  C   UNL     1       0.746   0.102  -1.611  1.00  0.00     0.232 A 
INPUT-LIGAND-PDBQT: ATOM     16  N   UNL     1       0.126   1.286  -1.358  1.00  0.00    -0.176 NA
INPUT-LIGAND-PDBQT: BRANCH  14  17
INPUT-LIGAND-PDBQT: ATOM     17  N   UNL     1      -1.006   2.824   0.151  1.00  0.00    -0.336 N 
INPUT-LIGAND-PDBQT: ATOM     18  C   UNL     1      -1.195   3.791  -0.945  1.00  0.00     0.125 C 
INPUT-LIGAND-PDBQT: ATOM     19  C   UNL     1      -1.330   3.158   1.553  1.00  0.00     0.155 C 
INPUT-LIGAND-PDBQT: ATOM     20  C   UNL     1      -2.337   4.762  -0.648  1.00  0.00     0.057 C 
INPUT-LIGAND-PDBQT: ATOM     21  C   UNL     1      -1.645   4.620   1.756  1.00  0.00    -0.025 A 
INPUT-LIGAND-PDBQT: ATOM     22  C   UNL     1      -2.133   5.399   0.693  1.00  0.00    -0.041 A 
INPUT-LIGAND-PDBQT: ATOM     23  C   UNL     1      -1.501   5.197   3.028  1.00  0.00     0.006 A 
INPUT-LIGAND-PDBQT: ATOM     24  C   UNL     1      -2.464   6.748   0.906  1.00  0.00     0.004 A 
INPUT-LIGAND-PDBQT: ATOM     25  C   UNL     1      -1.818   6.544   3.231  1.00  0.00     0.000 A 
INPUT-LIGAND-PDBQT: ATOM     26  C   UNL     1      -2.297   7.318   2.171  1.00  0.00     0.000 A 
INPUT-LIGAND-PDBQT: ENDBRANCH  14  17
INPUT-LIGAND-PDBQT: BRANCH  15  27
INPUT-LIGAND-PDBQT: ATOM     27  N   UNL     1       1.275  -0.177  -2.922  1.00  0.00    -0.336 N 
INPUT-LIGAND-PDBQT: ATOM     28  C   UNL     1       2.208  -1.306  -3.090  1.00  0.00     0.125 C 
INPUT-LIGAND-PDBQT: ATOM     29  C   UNL     1       0.843   0.659  -4.059  1.00  0.00     0.155 C 
INPUT-LIGAND-PDBQT: ATOM     30  C   UNL     1       3.047  -1.176  -4.365  1.00  0.00     0.057 C 
INPUT-LIGAND-PDBQT: ATOM     31  C   UNL     1       1.085  -0.010  -5.389  1.00  0.00    -0.025 A 
INPUT-LIGAND-PDBQT: ATOM     32  C   UNL     1       2.162  -0.898  -5.541  1.00  0.00    -0.041 A 
INPUT-LIGAND-PDBQT: ATOM     33  C   UNL     1       0.276   0.295  -6.495  1.00  0.00     0.006 A 
INPUT-LIGAND-PDBQT: ATOM     34  C   UNL     1       2.423  -1.474  -6.795  1.00  0.00     0.004 A 
INPUT-LIGAND-PDBQT: ATOM     35  C   UNL     1       0.529  -0.297  -7.737  1.00  0.00     0.000 A 
INPUT-LIGAND-PDBQT: ATOM     36  C   UNL     1       1.602  -1.178  -7.887  1.00  0.00     0.000 A 
INPUT-LIGAND-PDBQT: ENDBRANCH  15  27
INPUT-LIGAND-PDBQT: ENDBRANCH   3  11
INPUT-LIGAND-PDBQT: TORSDOF 5


    FINAL DOCKED STATE:
    ________________________


Run:   1 / 20
Time taken for this run:   0.036s

DOCKED: MODEL        1
DOCKED: USER    Run = 1
DOCKED: USER
DOCKED: USER    Estimated Free Energy of Binding    = -10.63 kcal/mol  [=(1)+(2)+(3)-(4)]
DOCKED: USER
DOCKED: USER    (1) Final Intermolecular Energy     = -12.12 kcal/mol
DOCKED: USER        vdW + Hbond + desolv Energy     = -11.84 kcal/mol
DOCKED: USER        Electrostatic Energy            =  -0.28 kcal/mol
DOCKED: USER        Moving Ligand-Fixed Receptor    = -12.12 kcal/mol
DOCKED: USER        Moving Ligand-Moving Receptor   =  +0.00 kcal/mol
DOCKED: USER    (2) Final Total Internal Energy     =  -1.03 kcal/mol
DOCKED: USER    (3) Torsional Free Energy           =  +1.49 kcal/mol
DOCKED: USER    (4) Unbound System's Energy         =  -1.03 kcal/mol
DOCKED: USER
DOCKED: USER
DOCKED: REMARK SMILES CCN[C@H]1CN(c2nc(N3CCc4ccccc4C3)nc(N3CCc4ccccc4C3)n2)CCO1
DOCKED: REMARK SMILES IDX 4 1 5 2 6 3 33 4 34 5 35 6 3 7 2 9 1 10 7 11 8 12 32 13 9 14
DOCKED: REMARK SMILES IDX 21 15 20 16 10 17 11 18 19 19 12 20 18 21 13 22 17 23 14 24
DOCKED: REMARK SMILES IDX 16 25 15 26 22 27 23 28 31 29 24 30 30 31 25 32 29 33 26 34
DOCKED: REMARK SMILES IDX 28 35 27 36
DOCKED: REMARK H PARENT 3 8
DOCKED: USER                              x       y       z     vdW  Elec       q    Type
DOCKED: USER                           _______ _______ _______ _____ _____    ______ ____
DOCKED: ROOT
DOCKED: ATOM      1  C   UNL     1     145.822  72.088 219.314 -0.07 +0.15    +0.205 C  
DOCKED: ATOM      2  C   UNL     1     144.544  71.716 220.096 -0.20 -0.01    +0.168 C  
DOCKED: ATOM      3  N   UNL     1     143.427  72.554 219.653 -0.06 +0.04    -0.334 N  
DOCKED: ATOM      4  C   UNL     1     143.234  72.688 218.206 -0.05 -0.02    +0.148 C  
DOCKED: ATOM      5  C   UNL     1     144.578  73.005 217.542 -0.09 +0.01    +0.184 C  
DOCKED: ATOM      6  O   UNL     1     145.578  72.069 217.913 -0.51 -0.27    -0.360 OA 
DOCKED: ENDROOT
DOCKED: BRANCH   1   7
DOCKED: ATOM      7  N   UNL     1     146.373  73.401 219.728 -0.55 -0.12    -0.291 NA 
DOCKED: ATOM      8  H   UNL     1     146.228  74.133 218.994 -0.52 -0.02    +0.125 HD 
DOCKED: BRANCH   7   9
DOCKED: ATOM      9  C   UNL     1     145.864  73.882 221.021 -0.57 -0.01    +0.080 C  
DOCKED: ATOM     10  C   UNL     1     146.702  73.385 222.201 -0.62 -0.00    +0.020 C  
DOCKED: ENDBRANCH   7   9
DOCKED: ENDBRANCH   1   7
DOCKED: BRANCH   3  11
DOCKED: ATOM     11  C   UNL     1     142.446  73.042 220.589 -0.16 -0.04    +0.232 A  
DOCKED: ATOM     12  N   UNL     1     142.144  74.364 220.635 -0.20 +0.05    -0.176 NA 
DOCKED: ATOM     13  N   UNL     1     141.796  72.182 221.417 -0.16 +0.02    -0.176 NA 
DOCKED: ATOM     14  C   UNL     1     141.202  74.834 221.494 -0.21 -0.05    +0.232 A  
DOCKED: ATOM     15  C   UNL     1     140.861  72.637 222.292 -0.17 -0.01    +0.232 A  
DOCKED: ATOM     16  N   UNL     1     140.567  73.965 222.323 -0.70 -0.01    -0.176 NA 
DOCKED: BRANCH  14  17
DOCKED: ATOM     17  N   UNL     1     140.862  76.236 221.499 -0.18 +0.11    -0.336 N  
DOCKED: ATOM     18  C   UNL     1     140.434  76.881 220.245 -0.14 -0.04    +0.125 C  
DOCKED: ATOM     19  C   UNL     1     141.064  77.005 222.745 -0.20 -0.06    +0.155 C  
DOCKED: ATOM     20  C   UNL     1     139.577  78.118 220.512 -0.12 -0.02    +0.057 C  
DOCKED: ATOM     21  C   UNL     1     141.007  78.498 222.534 -0.44 +0.01    -0.025 A  
DOCKED: ATOM     22  C   UNL     1     140.289  79.041 221.455 -0.23 +0.01    -0.041 A  
DOCKED: ATOM     23  C   UNL     1     141.632  79.358 223.452 -0.59 -0.00    +0.006 A  
DOCKED: ATOM     24  C   UNL     1     140.208  80.434 221.296 -0.22 -0.00    +0.004 A  
DOCKED: ATOM     25  C   UNL     1     141.561  80.745 223.280 -0.56 -0.00    +0.000 A  
DOCKED: ATOM     26  C   UNL     1     140.851  81.281 222.203 -0.39 -0.00    +0.000 A  
DOCKED: ENDBRANCH  14  17
DOCKED: BRANCH  15  27
DOCKED: ATOM     27  N   UNL     1     140.191  71.723 223.182 -0.19 +0.05    -0.336 N  
DOCKED: ATOM     28  C   UNL     1     139.032  70.961 222.683 -0.20 -0.02    +0.125 C  
DOCKED: ATOM     29  C   UNL     1     140.704  71.558 224.556 -0.32 -0.02    +0.155 C  
DOCKED: ATOM     30  C   UNL     1     138.148  70.443 223.821 -0.26 -0.01    +0.057 C  
DOCKED: ATOM     31  C   UNL     1     140.231  70.277 225.197 -0.46 +0.00    -0.025 A  
DOCKED: ATOM     32  C   UNL     1     138.983  69.737 224.845 -0.35 +0.01    -0.041 A  
DOCKED: ATOM     33  C   UNL     1     141.003  69.652 226.189 -0.53 -0.00    +0.006 A  
DOCKED: ATOM     34  C   UNL     1     138.517  68.578 225.486 -0.39 -0.00    +0.004 A  
DOCKED: ATOM     35  C   UNL     1     140.541  68.487 226.809 -0.64 -0.00    +0.000 A  
DOCKED: ATOM     36  C   UNL     1     139.299  67.952 226.460 -0.58 -0.00    +0.000 A  
DOCKED: ENDBRANCH  15  27
DOCKED: ENDBRANCH   3  11
DOCKED: TORSDOF 5
DOCKED: TER
DOCKED: ENDMDL
________________________________________________________________________________


    FINAL DOCKED STATE:
    ________________________


Run:   2 / 20
Time taken for this run:   0.036s

DOCKED: MODEL        2
DOCKED: USER    Run = 2
DOCKED: USER
DOCKED: USER    Estimated Free Energy of Binding    = -10.12 kcal/mol  [=(1)+(2)+(3)-(4)]
DOCKED: USER
DOCKED: USER    (1) Final Intermolecular Energy     = -11.61 kcal/mol
DOCKED: USER        vdW + Hbond + desolv Energy     = -11.42 kcal/mol
DOCKED: USER        Electrostatic Energy            =  -0.19 kcal/mol
DOCKED: USER        Moving Ligand-Fixed Receptor    = -11.61 kcal/mol
DOCKED: USER        Moving Ligand-Moving Receptor   =  +0.00 kcal/mol
DOCKED: USER    (2) Final Total Internal Energy     =  -1.02 kcal/mol
DOCKED: USER    (3) Torsional Free Energy           =  +1.49 kcal/mol
DOCKED: USER    (4) Unbound System's Energy         =  -1.02 kcal/mol
DOCKED: USER
DOCKED: USER
DOCKED: REMARK SMILES CCN[C@H]1CN(c2nc(N3CCc4ccccc4C3)nc(N3CCc4ccccc4C3)n2)CCO1
DOCKED: REMARK SMILES IDX 4 1 5 2 6 3 33 4 34 5 35 6 3 7 2 9 1 10 7 11 8 12 32 13 9 14
DOCKED: REMARK SMILES IDX 21 15 20 16 10 17 11 18 19 19 12 20 18 21 13 22 17 23 14 24
DOCKED: REMARK SMILES IDX 16 25 15 26 22 27 23 28 31 29 24 30 30 31 25 32 29 33 26 34
DOCKED: REMARK SMILES IDX 28 35 27 36
DOCKED: REMARK H PARENT 3 8
DOCKED: USER                              x       y       z     vdW  Elec       q    Type
DOCKED: USER                           _______ _______ _______ _____ _____    ______ ____
DOCKED: ROOT
DOCKED: ATOM      1  C   UNL     1     145.194  72.049 218.905 -0.19 +0.08    +0.205 C  
DOCKED: ATOM      2  C   UNL     1     143.963  71.559 219.697 -0.18 -0.01    +0.168 C  
DOCKED: ATOM      3  N   UNL     1     142.855  72.504 219.530 -0.04 +0.05    -0.334 N  
DOCKED: ATOM      4  C   UNL     1     142.561  72.942 218.163 -0.03 -0.03    +0.148 C  
DOCKED: ATOM      5  C   UNL     1     143.864  73.351 217.469 -0.06 -0.03    +0.184 C  
DOCKED: ATOM      6  O   UNL     1     144.845  72.330 217.556 -0.09 -0.08    -0.360 OA 
DOCKED: ENDROOT
DOCKED: BRANCH   1   7
DOCKED: ATOM      7  N   UNL     1     145.834  73.230 219.533 -0.49 -0.08    -0.291 NA 
DOCKED: ATOM      8  H   UNL     1     145.741  74.086 218.938 -0.45 -0.03    +0.125 HD 
DOCKED: BRANCH   7   9
DOCKED: ATOM      9  C   UNL     1     145.358  73.514 220.895 -0.56 -0.01    +0.080 C  
DOCKED: ATOM     10  C   UNL     1     146.465  73.376 221.942 -0.67 -0.00    +0.020 C  
DOCKED: ENDBRANCH   7   9
DOCKED: ENDBRANCH   1   7
DOCKED: BRANCH   3  11
DOCKED: ATOM     11  C   UNL     1     141.970  72.814 220.625 -0.15 -0.03    +0.232 A  
DOCKED: ATOM     12  N   UNL     1     141.624  71.850 221.516 -0.16 +0.02    -0.176 NA 
DOCKED: ATOM     13  N   UNL     1     141.495  74.076 220.791 -0.19 +0.04    -0.176 NA 
DOCKED: ATOM     14  C   UNL     1     140.813  72.134 222.568 -0.18 -0.02    +0.232 A  
DOCKED: ATOM     15  C   UNL     1     140.672  74.374 221.830 -0.13 -0.02    +0.232 A  
DOCKED: ATOM     16  N   UNL     1     140.337  73.398 222.716 -0.61 -0.01    -0.176 NA 
DOCKED: BRANCH  14  17
DOCKED: ATOM     17  N   UNL     1     140.489  71.110 223.531 -0.15 +0.04    -0.336 N  
DOCKED: ATOM     18  C   UNL     1     139.280  70.290 223.335 -0.23 -0.02    +0.125 C  
DOCKED: ATOM     19  C   UNL     1     141.323  70.995 224.744 -0.01 -0.01    +0.155 C  
DOCKED: ATOM     20  C   UNL     1     139.394  68.941 224.044 -0.18 -0.01    +0.057 C  
DOCKED: ATOM     21  C   UNL     1     140.693  70.142 225.818 -0.51 +0.00    -0.025 A  
DOCKED: ATOM     22  C   UNL     1     139.759  69.147 225.483 -0.42 +0.01    -0.041 A  
DOCKED: ATOM     23  C   UNL     1     141.078  70.306 227.159 -0.59 -0.00    +0.006 A  
DOCKED: ATOM     24  C   UNL     1     139.212  68.331 226.487 -0.53 -0.00    +0.004 A  
DOCKED: ATOM     25  C   UNL     1     140.520  69.501 228.156 -0.62 -0.00    +0.000 A  
DOCKED: ATOM     26  C   UNL     1     139.587  68.516 227.821 -0.56 -0.00    +0.000 A  
DOCKED: ENDBRANCH  14  17
DOCKED: BRANCH  15  27
DOCKED: ATOM     27  N   UNL     1     140.154  75.710 221.988 -0.20 +0.06    -0.336 N  
DOCKED: ATOM     28  C   UNL     1     138.732  75.889 222.332 -0.26 -0.03    +0.125 C  
DOCKED: ATOM     29  C   UNL     1     141.072  76.855 221.830 -0.27 -0.07    +0.155 C  
DOCKED: ATOM     30  C   UNL     1     138.225  77.291 221.981 -0.22 -0.01    +0.057 C  
DOCKED: ATOM     31  C   UNL     1     140.537  78.113 222.466 -0.40 +0.01    -0.025 A  
DOCKED: ATOM     32  C   UNL     1     139.152  78.330 222.534 -0.28 +0.01    -0.041 A  
DOCKED: ATOM     33  C   UNL     1     141.418  79.100 222.938 -0.53 -0.00    +0.006 A  
DOCKED: ATOM     34  C   UNL     1     138.656  79.529 223.072 -0.32 -0.00    +0.004 A  
DOCKED: ATOM     35  C   UNL     1     140.917  80.283 223.491 -0.51 -0.00    +0.000 A  
DOCKED: ATOM     36  C   UNL     1     139.539  80.498 223.555 -0.42 -0.00    +0.000 A  
DOCKED: ENDBRANCH  15  27
DOCKED: ENDBRANCH   3  11
DOCKED: TORSDOF 5
DOCKED: TER
DOCKED: ENDMDL
________________________________________________________________________________


    FINAL DOCKED STATE:
    ________________________


Run:   3 / 20
Time taken for this run:   0.036s

DOCKED: MODEL        3
DOCKED: USER    Run = 3
DOCKED: USER
DOCKED: USER    Estimated Free Energy of Binding    = -10.61 kcal/mol  [=(1)+(2)+(3)-(4)]
DOCKED: USER
DOCKED: USER    (1) Final Intermolecular Energy     = -12.10 kcal/mol
DOCKED: USER        vdW + Hbond + desolv Energy     = -11.82 kcal/mol
DOCKED: USER        Electrostatic Energy            =  -0.28 kcal/mol
DOCKED: USER        Moving Ligand-Fixed Receptor    = -12.10 kcal/mol
DOCKED: USER        Moving Ligand-Moving Receptor   =  +0.00 kcal/mol
DOCKED: USER    (2) Final Total Internal Energy     =  -1.03 kcal/mol
DOCKED: USER    (3) Torsional Free Energy           =  +1.49 kcal/mol
DOCKED: USER    (4) Unbound System's Energy         =  -1.03 kcal/mol
DOCKED: USER
DOCKED: USER
DOCKED: REMARK SMILES CCN[C@H]1CN(c2nc(N3CCc4ccccc4C3)nc(N3CCc4ccccc4C3)n2)CCO1
DOCKED: REMARK SMILES IDX 4 1 5 2 6 3 33 4 34 5 35 6 3 7 2 9 1 10 7 11 8 12 32 13 9 14
DOCKED: REMARK SMILES IDX 21 15 20 16 10 17 11 18 19 19 12 20 18 21 13 22 17 23 14 24
DOCKED: REMARK SMILES IDX 16 25 15 26 22 27 23 28 31 29 24 30 30 31 25 32 29 33 26 34
DOCKED: REMARK SMILES IDX 28 35 27 36
DOCKED: REMARK H PARENT 3 8
DOCKED: USER                              x       y       z     vdW  Elec       q    Type
DOCKED: USER                           _______ _______ _______ _____ _____    ______ ____
DOCKED: ROOT
DOCKED: ATOM      1  C   UNL     1     145.786  72.105 219.223 -0.03 +0.15    +0.205 C  
DOCKED: ATOM      2  C   UNL     1     144.466  71.806 219.964 -0.23 -0.00    +0.168 C  
DOCKED: ATOM      3  N   UNL     1     143.436  72.764 219.552 -0.06 +0.05    -0.334 N  
DOCKED: ATOM      4  C   UNL     1     143.285  72.995 218.114 -0.06 -0.02    +0.148 C  
DOCKED: ATOM      5  C   UNL     1     144.664  73.226 217.488 -0.10 -0.00    +0.184 C  
DOCKED: ATOM      6  O   UNL     1     145.570  72.186 217.820 -0.51 -0.26    -0.360 OA 
DOCKED: ENDROOT
DOCKED: BRANCH   1   7
DOCKED: ATOM      7  N   UNL     1     146.444  73.338 219.719 -0.55 -0.14    -0.291 NA 
DOCKED: ATOM      8  H   UNL     1     146.438  74.099 219.000 -0.53 -0.01    +0.125 HD 
DOCKED: BRANCH   7   9
DOCKED: ATOM      9  C   UNL     1     145.890  73.843 220.985 -0.59 -0.01    +0.080 C  
DOCKED: ATOM     10  C   UNL     1     146.702  73.391 222.200 -0.62 -0.00    +0.020 C  
DOCKED: ENDBRANCH   7   9
DOCKED: ENDBRANCH   1   7
DOCKED: BRANCH   3  11
DOCKED: ATOM     11  C   UNL     1     142.484  73.285 220.501 -0.17 -0.04    +0.232 A  
DOCKED: ATOM     12  N   UNL     1     142.264  74.622 220.583 -0.21 +0.06    -0.176 NA 
DOCKED: ATOM     13  N   UNL     1     141.780  72.445 221.304 -0.17 +0.02    -0.176 NA 
DOCKED: ATOM     14  C   UNL     1     141.350  75.125 221.453 -0.21 -0.06    +0.232 A  
DOCKED: ATOM     15  C   UNL     1     140.872  72.932 222.190 -0.14 -0.01    +0.232 A  
DOCKED: ATOM     16  N   UNL     1     140.660  74.274 222.257 -0.63 -0.01    -0.176 NA 
DOCKED: BRANCH  14  17
DOCKED: ATOM     17  N   UNL     1     141.096  76.545 221.497 -0.17 +0.14    -0.336 N  
DOCKED: ATOM     18  C   UNL     1     140.980  77.298 220.236 -0.19 -0.05    +0.125 C  
DOCKED: ATOM     19  C   UNL     1     141.074  77.216 222.813 -0.21 -0.06    +0.155 C  
DOCKED: ATOM     20  C   UNL     1     140.159  78.574 220.416 -0.15 -0.02    +0.057 C  
DOCKED: ATOM     21  C   UNL     1     141.148  78.720 222.713 -0.47 +0.01    -0.025 A  
DOCKED: ATOM     22  C   UNL     1     140.706  79.380 221.554 -0.28 +0.01    -0.041 A  
DOCKED: ATOM     23  C   UNL     1     141.613  79.472 223.803 -0.60 -0.00    +0.006 A  
DOCKED: ATOM     24  C   UNL     1     140.740  80.784 221.490 -0.31 -0.00    +0.004 A  
DOCKED: ATOM     25  C   UNL     1     141.659  80.868 223.729 -0.58 -0.00    +0.000 A  
DOCKED: ATOM     26  C   UNL     1     141.224  81.522 222.573 -0.46 -0.00    +0.000 A  
DOCKED: ENDBRANCH  14  17
DOCKED: BRANCH  15  27
DOCKED: ATOM     27  N   UNL     1     140.144  72.036 223.053 -0.19 +0.05    -0.336 N  
DOCKED: ATOM     28  C   UNL     1     138.887  71.440 222.565 -0.20 -0.03    +0.125 C  
DOCKED: ATOM     29  C   UNL     1     140.695  71.723 224.385 -0.23 -0.02    +0.155 C  
DOCKED: ATOM     30  C   UNL     1     138.002  70.943 223.713 -0.24 -0.01    +0.057 C  
DOCKED: ATOM     31  C   UNL     1     140.111  70.460 224.967 -0.45 +0.00    -0.025 A  
DOCKED: ATOM     32  C   UNL     1     138.797  70.083 224.646 -0.34 +0.01    -0.041 A  
DOCKED: ATOM     33  C   UNL     1     140.852  69.689 225.876 -0.51 -0.00    +0.006 A  
DOCKED: ATOM     34  C   UNL     1     138.233  68.940 225.235 -0.37 -0.00    +0.004 A  
DOCKED: ATOM     35  C   UNL     1     140.291  68.540 226.445 -0.60 -0.00    +0.000 A  
DOCKED: ATOM     36  C   UNL     1     138.984  68.168 226.126 -0.48 -0.00    +0.000 A  
DOCKED: ENDBRANCH  15  27
DOCKED: ENDBRANCH   3  11
DOCKED: TORSDOF 5
DOCKED: TER
DOCKED: ENDMDL
________________________________________________________________________________


    FINAL DOCKED STATE:
    ________________________


Run:   4 / 20
Time taken for this run:   0.036s

DOCKED: MODEL        4
DOCKED: USER    Run = 4
DOCKED: USER
DOCKED: USER    Estimated Free Energy of Binding    = -10.10 kcal/mol  [=(1)+(2)+(3)-(4)]
DOCKED: USER
DOCKED: USER    (1) Final Intermolecular Energy     = -11.59 kcal/mol
DOCKED: USER        vdW + Hbond + desolv Energy     = -11.41 kcal/mol
DOCKED: USER        Electrostatic Energy            =  -0.19 kcal/mol
DOCKED: USER        Moving Ligand-Fixed Receptor    = -11.59 kcal/mol
DOCKED: USER        Moving Ligand-Moving Receptor   =  +0.00 kcal/mol
DOCKED: USER    (2) Final Total Internal Energy     =  -1.03 kcal/mol
DOCKED: USER    (3) Torsional Free Energy           =  +1.49 kcal/mol
DOCKED: USER    (4) Unbound System's Energy         =  -1.03 kcal/mol
DOCKED: USER
DOCKED: USER
DOCKED: REMARK SMILES CCN[C@H]1CN(c2nc(N3CCc4ccccc4C3)nc(N3CCc4ccccc4C3)n2)CCO1
DOCKED: REMARK SMILES IDX 4 1 5 2 6 3 33 4 34 5 35 6 3 7 2 9 1 10 7 11 8 12 32 13 9 14
DOCKED: REMARK SMILES IDX 21 15 20 16 10 17 11 18 19 19 12 20 18 21 13 22 17 23 14 24
DOCKED: REMARK SMILES IDX 16 25 15 26 22 27 23 28 31 29 24 30 30 31 25 32 29 33 26 34
DOCKED: REMARK SMILES IDX 28 35 27 36
DOCKED: REMARK H PARENT 3 8
DOCKED: USER                              x       y       z     vdW  Elec       q    Type
DOCKED: USER                           _______ _______ _______ _____ _____    ______ ____
DOCKED: ROOT
DOCKED: ATOM      1  C   UNL     1     145.232  72.119 218.950 -0.20 +0.08    +0.205 C  
DOCKED: ATOM      2  C   UNL     1     144.021  71.609 219.761 -0.19 -0.01    +0.168 C  
DOCKED: ATOM      3  N   UNL     1     142.876  72.501 219.561 -0.04 +0.05    -0.334 N  
DOCKED: ATOM      4  C   UNL     1     142.565  72.878 218.180 -0.03 -0.03    +0.148 C  
DOCKED: ATOM      5  C   UNL     1     143.851  73.314 217.470 -0.06 -0.03    +0.184 C  
DOCKED: ATOM      6  O   UNL     1     144.873  72.337 217.592 -0.11 -0.09    -0.360 OA 
DOCKED: ENDROOT
DOCKED: BRANCH   1   7
DOCKED: ATOM      7  N   UNL     1     145.824  73.346 219.535 -0.45 -0.06    -0.291 NA 
DOCKED: ATOM      8  H   UNL     1     145.682  74.179 218.917 -0.47 -0.04    +0.125 HD 
DOCKED: BRANCH   7   9
DOCKED: ATOM      9  C   UNL     1     145.352  73.648 220.895 -0.56 -0.02    +0.080 C  
DOCKED: ATOM     10  C   UNL     1     146.423  73.388 221.956 -0.68 -0.00    +0.020 C  
DOCKED: ENDBRANCH   7   9
DOCKED: ENDBRANCH   1   7
DOCKED: BRANCH   3  11
DOCKED: ATOM     11  C   UNL     1     141.979  72.814 220.645 -0.15 -0.03    +0.232 A  
DOCKED: ATOM     12  N   UNL     1     141.625  71.854 221.537 -0.16 +0.02    -0.176 NA 
DOCKED: ATOM     13  N   UNL     1     141.500  74.076 220.801 -0.19 +0.04    -0.176 NA 
DOCKED: ATOM     14  C   UNL     1     140.802  72.141 222.578 -0.18 -0.02    +0.232 A  
DOCKED: ATOM     15  C   UNL     1     140.665  74.378 221.830 -0.13 -0.02    +0.232 A  
DOCKED: ATOM     16  N   UNL     1     140.322  73.405 222.717 -0.61 -0.01    -0.176 NA 
DOCKED: BRANCH  14  17
DOCKED: ATOM     17  N   UNL     1     140.469  71.120 223.542 -0.16 +0.04    -0.336 N  
DOCKED: ATOM     18  C   UNL     1     139.237  70.331 223.364 -0.24 -0.02    +0.125 C  
DOCKED: ATOM     19  C   UNL     1     141.322  70.978 224.740 -0.02 -0.01    +0.155 C  
DOCKED: ATOM     20  C   UNL     1     139.330  68.976 224.064 -0.22 -0.01    +0.057 C  
DOCKED: ATOM     21  C   UNL     1     140.689  70.136 225.821 -0.51 +0.00    -0.025 A  
DOCKED: ATOM     22  C   UNL     1     139.725  69.166 225.497 -0.42 +0.01    -0.041 A  
DOCKED: ATOM     23  C   UNL     1     141.102  70.283 227.155 -0.57 -0.00    +0.006 A  
DOCKED: ATOM     24  C   UNL     1     139.175  68.358 226.507 -0.50 -0.00    +0.004 A  
DOCKED: ATOM     25  C   UNL     1     140.541  69.486 228.159 -0.62 -0.00    +0.000 A  
DOCKED: ATOM     26  C   UNL     1     139.579  68.527 227.835 -0.56 -0.00    +0.000 A  
DOCKED: ENDBRANCH  14  17
DOCKED: BRANCH  15  27
DOCKED: ATOM     27  N   UNL     1     140.144  75.713 221.977 -0.20 +0.06    -0.336 N  
DOCKED: ATOM     28  C   UNL     1     138.721  75.891 222.318 -0.26 -0.03    +0.125 C  
DOCKED: ATOM     29  C   UNL     1     141.059  76.859 221.811 -0.27 -0.06    +0.155 C  
DOCKED: ATOM     30  C   UNL     1     138.211  77.289 221.954 -0.21 -0.01    +0.057 C  
DOCKED: ATOM     31  C   UNL     1     140.520  78.121 222.437 -0.40 +0.01    -0.025 A  
DOCKED: ATOM     32  C   UNL     1     139.134  78.334 222.501 -0.28 +0.01    -0.041 A  
DOCKED: ATOM     33  C   UNL     1     141.397  79.113 222.903 -0.52 -0.00    +0.006 A  
DOCKED: ATOM     34  C   UNL     1     138.634  79.536 223.029 -0.31 -0.00    +0.004 A  
DOCKED: ATOM     35  C   UNL     1     140.893  80.300 223.446 -0.51 -0.00    +0.000 A  
DOCKED: ATOM     36  C   UNL     1     139.514  80.511 223.507 -0.42 -0.00    +0.000 A  
DOCKED: ENDBRANCH  15  27
DOCKED: ENDBRANCH   3  11
DOCKED: TORSDOF 5
DOCKED: TER
DOCKED: ENDMDL
________________________________________________________________________________


    FINAL DOCKED STATE:
    ________________________


Run:   5 / 20
Time taken for this run:   0.036s

DOCKED: MODEL        5
DOCKED: USER    Run = 5
DOCKED: USER
DOCKED: USER    Estimated Free Energy of Binding    = -10.66 kcal/mol  [=(1)+(2)+(3)-(4)]
DOCKED: USER
DOCKED: USER    (1) Final Intermolecular Energy     = -12.15 kcal/mol
DOCKED: USER        vdW + Hbond + desolv Energy     = -11.88 kcal/mol
DOCKED: USER        Electrostatic Energy            =  -0.27 kcal/mol
DOCKED: USER        Moving Ligand-Fixed Receptor    = -12.15 kcal/mol
DOCKED: USER        Moving Ligand-Moving Receptor   =  +0.00 kcal/mol
DOCKED: USER    (2) Final Total Internal Energy     =  -1.02 kcal/mol
DOCKED: USER    (3) Torsional Free Energy           =  +1.49 kcal/mol
DOCKED: USER    (4) Unbound System's Energy         =  -1.02 kcal/mol
DOCKED: USER
DOCKED: USER
DOCKED: REMARK SMILES CCN[C@H]1CN(c2nc(N3CCc4ccccc4C3)nc(N3CCc4ccccc4C3)n2)CCO1
DOCKED: REMARK SMILES IDX 4 1 5 2 6 3 33 4 34 5 35 6 3 7 2 9 1 10 7 11 8 12 32 13 9 14
DOCKED: REMARK SMILES IDX 21 15 20 16 10 17 11 18 19 19 12 20 18 21 13 22 17 23 14 24
DOCKED: REMARK SMILES IDX 16 25 15 26 22 27 23 28 31 29 24 30 30 31 25 32 29 33 26 34
DOCKED: REMARK SMILES IDX 28 35 27 36
DOCKED: REMARK H PARENT 3 8
DOCKED: USER                              x       y       z     vdW  Elec       q    Type
DOCKED: USER                           _______ _______ _______ _____ _____    ______ ____
DOCKED: ROOT
DOCKED: ATOM      1  C   UNL     1     145.700  72.129 219.209 -0.09 +0.14    +0.205 C  
DOCKED: ATOM      2  C   UNL     1     144.361  71.774 219.888 -0.22 -0.00    +0.168 C  
DOCKED: ATOM      3  N   UNL     1     143.349  72.778 219.548 -0.06 +0.05    -0.334 N  
DOCKED: ATOM      4  C   UNL     1     143.233  73.148 218.136 -0.06 -0.02    +0.148 C  
DOCKED: ATOM      5  C   UNL     1     144.628  73.424 217.567 -0.11 -0.01    +0.184 C  
DOCKED: ATOM      6  O   UNL     1     145.518  72.348 217.816 -0.50 -0.23    -0.360 OA 
DOCKED: ENDROOT
DOCKED: BRANCH   1   7
DOCKED: ATOM      7  N   UNL     1     146.356  73.302 219.837 -0.54 -0.12    -0.291 NA 
DOCKED: ATOM      8  H   UNL     1     146.384  74.125 219.191 -0.53 -0.01    +0.125 HD 
DOCKED: BRANCH   7   9
DOCKED: ATOM      9  C   UNL     1     145.766  73.698 221.125 -0.60 -0.01    +0.080 C  
DOCKED: ATOM     10  C   UNL     1     146.687  73.392 222.308 -0.60 -0.00    +0.020 C  
DOCKED: ENDBRANCH   7   9
DOCKED: ENDBRANCH   1   7
DOCKED: BRANCH   3  11
DOCKED: ATOM     11  C   UNL     1     142.379  73.215 220.521 -0.16 -0.04    +0.232 A  
DOCKED: ATOM     12  N   UNL     1     142.043  74.527 220.609 -0.20 +0.05    -0.176 NA 
DOCKED: ATOM     13  N   UNL     1     141.774  72.317 221.342 -0.17 +0.02    -0.176 NA 
DOCKED: ATOM     14  C   UNL     1     141.111  74.949 221.502 -0.23 -0.05    +0.232 A  
DOCKED: ATOM     15  C   UNL     1     140.849  72.724 222.252 -0.16 -0.01    +0.232 A  
DOCKED: ATOM     16  N   UNL     1     140.521  74.042 222.324 -0.70 -0.01    -0.176 NA 
DOCKED: BRANCH  14  17
DOCKED: ATOM     17  N   UNL     1     140.734  76.341 221.553 -0.18 +0.11    -0.336 N  
DOCKED: ATOM     18  C   UNL     1     140.133  76.970 220.363 -0.13 -0.04    +0.125 C  
DOCKED: ATOM     19  C   UNL     1     141.068  77.117 222.764 -0.22 -0.06    +0.155 C  
DOCKED: ATOM     20  C   UNL     1     139.282  78.183 220.738 -0.12 -0.01    +0.057 C  
DOCKED: ATOM     21  C   UNL     1     140.942  78.608 222.565 -0.44 +0.01    -0.025 A  
DOCKED: ATOM     22  C   UNL     1     140.079  79.127 221.586 -0.22 +0.01    -0.041 A  
DOCKED: ATOM     23  C   UNL     1     141.652  79.488 223.398 -0.59 -0.00    +0.006 A  
DOCKED: ATOM     24  C   UNL     1     139.938  80.518 221.440 -0.21 -0.00    +0.004 A  
DOCKED: ATOM     25  C   UNL     1     141.520  80.871 223.239 -0.55 -0.00    +0.000 A  
DOCKED: ATOM     26  C   UNL     1     140.665  81.384 222.260 -0.37 -0.00    +0.000 A  
DOCKED: ENDBRANCH  14  17
DOCKED: BRANCH  15  27
DOCKED: ATOM     27  N   UNL     1     140.226  71.769 223.133 -0.19 +0.05    -0.336 N  
DOCKED: ATOM     28  C   UNL     1     139.246  70.818 222.578 -0.19 -0.02    +0.125 C  
DOCKED: ATOM     29  C   UNL     1     140.611  71.756 224.558 -0.24 -0.02    +0.155 C  
DOCKED: ATOM     30  C   UNL     1     138.331  70.236 223.660 -0.26 -0.01    +0.057 C  
DOCKED: ATOM     31  C   UNL     1     140.260  70.456 225.237 -0.48 +0.00    -0.025 A  
DOCKED: ATOM     32  C   UNL     1     139.146  69.719 224.805 -0.35 +0.01    -0.041 A  
DOCKED: ATOM     33  C   UNL     1     141.005  70.006 226.338 -0.56 -0.00    +0.006 A  
DOCKED: ATOM     34  C   UNL     1     138.784  68.539 225.476 -0.44 -0.00    +0.004 A  
DOCKED: ATOM     35  C   UNL     1     140.652  68.820 226.990 -0.62 -0.00    +0.000 A  
DOCKED: ATOM     36  C   UNL     1     139.542  68.089 226.561 -0.62 -0.00    +0.000 A  
DOCKED: ENDBRANCH  15  27
DOCKED: ENDBRANCH   3  11
DOCKED: TORSDOF 5
DOCKED: TER
DOCKED: ENDMDL
________________________________________________________________________________


    FINAL DOCKED STATE:
    ________________________


Run:   6 / 20
Time taken for this run:   0.036s

DOCKED: MODEL        6
DOCKED: USER    Run = 6
DOCKED: USER
DOCKED: USER    Estimated Free Energy of Binding    = -10.15 kcal/mol  [=(1)+(2)+(3)-(4)]
DOCKED: USER
DOCKED: USER    (1) Final Intermolecular Energy     = -11.64 kcal/mol
DOCKED: USER        vdW + Hbond + desolv Energy     = -11.38 kcal/mol
DOCKED: USER        Electrostatic Energy            =  -0.26 kcal/mol
DOCKED: USER        Moving Ligand-Fixed Receptor    = -11.64 kcal/mol
DOCKED: USER        Moving Ligand-Moving Receptor   =  +0.00 kcal/mol
DOCKED: USER    (2) Final Total Internal Energy     =  -1.16 kcal/mol
DOCKED: USER    (3) Torsional Free Energy           =  +1.49 kcal/mol
DOCKED: USER    (4) Unbound System's Energy         =  -1.16 kcal/mol
DOCKED: USER
DOCKED: USER
DOCKED: REMARK SMILES CCN[C@H]1CN(c2nc(N3CCc4ccccc4C3)nc(N3CCc4ccccc4C3)n2)CCO1
DOCKED: REMARK SMILES IDX 4 1 5 2 6 3 33 4 34 5 35 6 3 7 2 9 1 10 7 11 8 12 32 13 9 14
DOCKED: REMARK SMILES IDX 21 15 20 16 10 17 11 18 19 19 12 20 18 21 13 22 17 23 14 24
DOCKED: REMARK SMILES IDX 16 25 15 26 22 27 23 28 31 29 24 30 30 31 25 32 29 33 26 34
DOCKED: REMARK SMILES IDX 28 35 27 36
DOCKED: REMARK H PARENT 3 8
DOCKED: USER                              x       y       z     vdW  Elec       q    Type
DOCKED: USER                           _______ _______ _______ _____ _____    ______ ____
DOCKED: ROOT
DOCKED: ATOM      1  C   UNL     1     145.474  71.761 218.683 -0.11 +0.13    +0.205 C  
DOCKED: ATOM      2  C   UNL     1     144.194  71.519 219.510 -0.18 +0.00    +0.168 C  
DOCKED: ATOM      3  N   UNL     1     143.200  72.551 219.202 -0.03 +0.04    -0.334 N  
DOCKED: ATOM      4  C   UNL     1     142.960  72.836 217.785 -0.03 -0.02    +0.148 C  
DOCKED: ATOM      5  C   UNL     1     144.303  73.002 217.067 -0.06 -0.01    +0.184 C  
DOCKED: ATOM      6  O   UNL     1     145.163  71.899 217.303 -0.12 -0.14    -0.360 OA 
DOCKED: ENDROOT
DOCKED: BRANCH   1   7
DOCKED: ATOM      7  N   UNL     1     146.242  72.935 219.163 -0.66 -0.27    -0.291 NA 
DOCKED: ATOM      8  H   UNL     1     146.030  73.794 218.603 -0.45 +0.02    +0.125 HD 
DOCKED: BRANCH   7   9
DOCKED: ATOM      9  C   UNL     1     146.068  73.218 220.596 -0.57 +0.01    +0.080 C  
DOCKED: ATOM     10  C   UNL     1     145.275  74.501 220.847 -0.34 -0.01    +0.020 C  
DOCKED: ENDBRANCH   7   9
DOCKED: ENDBRANCH   1   7
DOCKED: BRANCH   3  11
DOCKED: ATOM     11  C   UNL     1     142.353  73.098 220.232 -0.14 -0.04    +0.232 A  
DOCKED: ATOM     12  N   UNL     1     142.201  74.442 220.349 -0.18 +0.05    -0.176 NA 
DOCKED: ATOM     13  N   UNL     1     141.679  72.277 221.079 -0.16 +0.02    -0.176 NA 
DOCKED: ATOM     14  C   UNL     1     141.386  74.971 221.297 -0.21 -0.06    +0.232 A  
DOCKED: ATOM     15  C   UNL     1     140.869  72.790 222.043 -0.19 -0.01    +0.232 A  
DOCKED: ATOM     16  N   UNL     1     140.725  74.139 222.144 -0.67 -0.01    -0.176 NA 
DOCKED: BRANCH  14  17
DOCKED: ATOM     17  N   UNL     1     141.202  76.400 221.380 -0.15 +0.14    -0.336 N  
DOCKED: ATOM     18  C   UNL     1     141.266  77.209 220.150 -0.20 -0.06    +0.125 C  
DOCKED: ATOM     19  C   UNL     1     141.067  77.017 222.715 -0.23 -0.06    +0.155 C  
DOCKED: ATOM     20  C   UNL     1     140.496  78.521 220.298 -0.17 -0.02    +0.057 C  
DOCKED: ATOM     21  C   UNL     1     141.230  78.517 222.694 -0.48 +0.01    -0.025 A  
DOCKED: ATOM     22  C   UNL     1     140.953  79.248 221.526 -0.30 +0.01    -0.041 A  
DOCKED: ATOM     23  C   UNL     1     141.608  79.197 223.863 -0.61 -0.00    +0.006 A  
DOCKED: ATOM     24  C   UNL     1     141.066  80.649 221.532 -0.35 -0.00    +0.004 A  
DOCKED: ATOM     25  C   UNL     1     141.733  80.590 223.859 -0.58 -0.00    +0.000 A  
DOCKED: ATOM     26  C   UNL     1     141.464  81.314 222.695 -0.50 -0.00    +0.000 A  
DOCKED: ENDBRANCH  14  17
DOCKED: BRANCH  15  27
DOCKED: ATOM     27  N   UNL     1     140.173  71.914 222.951 -0.19 +0.05    -0.336 N  
DOCKED: ATOM     28  C   UNL     1     139.071  71.081 222.437 -0.18 -0.02    +0.125 C  
DOCKED: ATOM     29  C   UNL     1     140.606  71.858 224.361 -0.19 -0.02    +0.155 C  
DOCKED: ATOM     30  C   UNL     1     138.135  70.609 223.554 -0.24 -0.01    +0.057 C  
DOCKED: ATOM     31  C   UNL     1     140.133  70.607 225.058 -0.47 +0.00    -0.025 A  
DOCKED: ATOM     32  C   UNL     1     138.927  70.002 224.671 -0.34 +0.01    -0.041 A  
DOCKED: ATOM     33  C   UNL     1     140.861  70.075 226.134 -0.55 -0.00    +0.006 A  
DOCKED: ATOM     34  C   UNL     1     138.456  68.873 225.360 -0.40 -0.00    +0.004 A  
DOCKED: ATOM     35  C   UNL     1     140.398  68.938 226.805 -0.60 -0.00    +0.000 A  
DOCKED: ATOM     36  C   UNL     1     139.197  68.339 226.419 -0.53 -0.00    +0.000 A  
DOCKED: ENDBRANCH  15  27
DOCKED: ENDBRANCH   3  11
DOCKED: TORSDOF 5
DOCKED: TER
DOCKED: ENDMDL
________________________________________________________________________________


    FINAL DOCKED STATE:
    ________________________


Run:   7 / 20
Time taken for this run:   0.036s

DOCKED: MODEL        7
DOCKED: USER    Run = 7
DOCKED: USER
DOCKED: USER    Estimated Free Energy of Binding    = -10.00 kcal/mol  [=(1)+(2)+(3)-(4)]
DOCKED: USER
DOCKED: USER    (1) Final Intermolecular Energy     = -11.50 kcal/mol
DOCKED: USER        vdW + Hbond + desolv Energy     = -11.31 kcal/mol
DOCKED: USER        Electrostatic Energy            =  -0.19 kcal/mol
DOCKED: USER        Moving Ligand-Fixed Receptor    = -11.50 kcal/mol
DOCKED: USER        Moving Ligand-Moving Receptor   =  +0.00 kcal/mol
DOCKED: USER    (2) Final Total Internal Energy     =  -1.02 kcal/mol
DOCKED: USER    (3) Torsional Free Energy           =  +1.49 kcal/mol
DOCKED: USER    (4) Unbound System's Energy         =  -1.02 kcal/mol
DOCKED: USER
DOCKED: USER
DOCKED: REMARK SMILES CCN[C@H]1CN(c2nc(N3CCc4ccccc4C3)nc(N3CCc4ccccc4C3)n2)CCO1
DOCKED: REMARK SMILES IDX 4 1 5 2 6 3 33 4 34 5 35 6 3 7 2 9 1 10 7 11 8 12 32 13 9 14
DOCKED: REMARK SMILES IDX 21 15 20 16 10 17 11 18 19 19 12 20 18 21 13 22 17 23 14 24
DOCKED: REMARK SMILES IDX 16 25 15 26 22 27 23 28 31 29 24 30 30 31 25 32 29 33 26 34
DOCKED: REMARK SMILES IDX 28 35 27 36
DOCKED: REMARK H PARENT 3 8
DOCKED: USER                              x       y       z     vdW  Elec       q    Type
DOCKED: USER                           _______ _______ _______ _____ _____    ______ ____
DOCKED: ROOT
DOCKED: ATOM      1  C   UNL     1     145.069  72.249 218.603 -0.16 +0.07    +0.205 C  
DOCKED: ATOM      2  C   UNL     1     143.709  71.865 219.225 -0.13 -0.01    +0.168 C  
DOCKED: ATOM      3  N   UNL     1     142.811  73.024 219.212 -0.02 +0.06    -0.334 N  
DOCKED: ATOM      4  C   UNL     1     142.714  73.771 217.956 -0.05 -0.04    +0.148 C  
DOCKED: ATOM      5  C   UNL     1     144.122  74.043 217.416 -0.10 -0.05    +0.184 C  
DOCKED: ATOM      6  O   UNL     1     144.888  72.852 217.329 -0.09 -0.05    -0.360 OA 
DOCKED: ENDROOT
DOCKED: BRANCH   1   7
DOCKED: ATOM      7  N   UNL     1     145.863  73.133 219.489 -0.55 -0.10    -0.291 NA 
DOCKED: ATOM      8  H   UNL     1     145.989  74.087 219.076 -0.48 -0.02    +0.125 HD 
DOCKED: BRANCH   7   9
DOCKED: ATOM      9  C   UNL     1     145.329  73.247 220.855 -0.55 -0.01    +0.080 C  
DOCKED: ATOM     10  C   UNL     1     146.430  73.452 221.898 -0.64 -0.00    +0.020 C  
DOCKED: ENDBRANCH   7   9
DOCKED: ENDBRANCH   1   7
DOCKED: BRANCH   3  11
DOCKED: ATOM     11  C   UNL     1     141.914  73.281 220.310 -0.13 -0.04    +0.232 A  
DOCKED: ATOM     12  N   UNL     1     141.518  72.266 221.121 -0.16 +0.02    -0.176 NA 
DOCKED: ATOM     13  N   UNL     1     141.474  74.542 220.561 -0.17 +0.05    -0.176 NA 
DOCKED: ATOM     14  C   UNL     1     140.694  72.498 222.175 -0.22 -0.02    +0.232 A  
DOCKED: ATOM     15  C   UNL     1     140.639  74.790 221.604 -0.24 -0.04    +0.232 A  
DOCKED: ATOM     16  N   UNL     1     140.255  73.763 222.408 -0.67 -0.01    -0.176 NA 
DOCKED: BRANCH  14  17
DOCKED: ATOM     17  N   UNL     1     140.319  71.417 223.053 -0.18 +0.04    -0.336 N  
DOCKED: ATOM     18  C   UNL     1     139.109  70.630 222.754 -0.20 -0.02    +0.125 C  
DOCKED: ATOM     19  C   UNL     1     141.101  71.208 224.289 -0.01 -0.01    +0.155 C  
DOCKED: ATOM     20  C   UNL     1     139.177  69.235 223.375 -0.23 -0.01    +0.057 C  
DOCKED: ATOM     21  C   UNL     1     140.417  70.295 225.277 -0.47 +0.00    -0.025 A  
DOCKED: ATOM     22  C   UNL     1     139.485  69.339 224.838 -0.36 +0.01    -0.041 A  
DOCKED: ATOM     23  C   UNL     1     140.749  70.363 226.639 -0.59 -0.00    +0.006 A  
DOCKED: ATOM     24  C   UNL     1     138.887  68.466 225.762 -0.46 -0.00    +0.004 A  
DOCKED: ATOM     25  C   UNL     1     140.140  69.502 227.557 -0.61 -0.00    +0.000 A  
DOCKED: ATOM     26  C   UNL     1     139.210  68.556 227.119 -0.42 -0.00    +0.000 A  
DOCKED: ENDBRANCH  14  17
DOCKED: BRANCH  15  27
DOCKED: ATOM     27  N   UNL     1     140.160  76.126 221.851 -0.19 +0.08    -0.336 N  
DOCKED: ATOM     28  C   UNL     1     138.784  76.311 222.346 -0.27 -0.03    +0.125 C  
DOCKED: ATOM     29  C   UNL     1     141.072  77.265 221.628 -0.29 -0.07    +0.155 C  
DOCKED: ATOM     30  C   UNL     1     138.263  77.729 222.087 -0.22 -0.01    +0.057 C  
DOCKED: ATOM     31  C   UNL     1     140.625  78.511 222.350 -0.38 +0.01    -0.025 A  
DOCKED: ATOM     32  C   UNL     1     139.257  78.741 222.568 -0.29 +0.01    -0.041 A  
DOCKED: ATOM     33  C   UNL     1     141.563  79.473 222.754 -0.52 -0.00    +0.006 A  
DOCKED: ATOM     34  C   UNL     1     138.837  79.930 223.187 -0.35 -0.00    +0.004 A  
DOCKED: ATOM     35  C   UNL     1     141.140  80.647 223.388 -0.52 -0.00    +0.000 A  
DOCKED: ATOM     36  C   UNL     1     139.779  80.875 223.601 -0.39 -0.00    +0.000 A  
DOCKED: ENDBRANCH  15  27
DOCKED: ENDBRANCH   3  11
DOCKED: TORSDOF 5
DOCKED: TER
DOCKED: ENDMDL
________________________________________________________________________________


    FINAL DOCKED STATE:
    ________________________


Run:   8 / 20
Time taken for this run:   0.036s

DOCKED: MODEL        8
DOCKED: USER    Run = 8
DOCKED: USER
DOCKED: USER    Estimated Free Energy of Binding    = -10.01 kcal/mol  [=(1)+(2)+(3)-(4)]
DOCKED: USER
DOCKED: USER    (1) Final Intermolecular Energy     = -11.50 kcal/mol
DOCKED: USER        vdW + Hbond + desolv Energy     = -11.28 kcal/mol
DOCKED: USER        Electrostatic Energy            =  -0.22 kcal/mol
DOCKED: USER        Moving Ligand-Fixed Receptor    = -11.50 kcal/mol
DOCKED: USER        Moving Ligand-Moving Receptor   =  +0.00 kcal/mol
DOCKED: USER    (2) Final Total Internal Energy     =  -1.07 kcal/mol
DOCKED: USER    (3) Torsional Free Energy           =  +1.49 kcal/mol
DOCKED: USER    (4) Unbound System's Energy         =  -1.07 kcal/mol
DOCKED: USER
DOCKED: USER
DOCKED: REMARK SMILES CCN[C@H]1CN(c2nc(N3CCc4ccccc4C3)nc(N3CCc4ccccc4C3)n2)CCO1
DOCKED: REMARK SMILES IDX 4 1 5 2 6 3 33 4 34 5 35 6 3 7 2 9 1 10 7 11 8 12 32 13 9 14
DOCKED: REMARK SMILES IDX 21 15 20 16 10 17 11 18 19 19 12 20 18 21 13 22 17 23 14 24
DOCKED: REMARK SMILES IDX 16 25 15 26 22 27 23 28 31 29 24 30 30 31 25 32 29 33 26 34
DOCKED: REMARK SMILES IDX 28 35 27 36
DOCKED: REMARK H PARENT 3 8
DOCKED: USER                              x       y       z     vdW  Elec       q    Type
DOCKED: USER                           _______ _______ _______ _____ _____    ______ ____
DOCKED: ROOT
DOCKED: ATOM      1  C   UNL     1     144.982  72.282 218.317 -0.14 +0.06    +0.205 C  
DOCKED: ATOM      2  C   UNL     1     143.581  72.072 218.929 -0.10 -0.01    +0.168 C  
DOCKED: ATOM      3  N   UNL     1     142.899  73.362 219.066 -0.02 +0.07    -0.334 N  
DOCKED: ATOM      4  C   UNL     1     142.924  74.250 217.901 -0.08 -0.04    +0.148 C  
DOCKED: ATOM      5  C   UNL     1     144.354  74.333 217.356 -0.06 -0.06    +0.184 C  
DOCKED: ATOM      6  O   UNL     1     144.900  73.045 217.120 -0.08 -0.03    -0.360 OA 
DOCKED: ENDROOT
DOCKED: BRANCH   1   7
DOCKED: ATOM      7  N   UNL     1     145.926  72.912 219.271 -0.70 -0.17    -0.291 NA 
DOCKED: ATOM      8  H   UNL     1     146.116  73.912 219.028 -0.44 +0.00    +0.125 HD 
DOCKED: BRANCH   7   9
DOCKED: ATOM      9  C   UNL     1     145.508  72.812 220.679 -0.49 -0.01    +0.080 C  
DOCKED: ATOM     10  C   UNL     1     146.311  73.739 221.593 -0.62 -0.00    +0.020 C  
DOCKED: ENDBRANCH   7   9
DOCKED: ENDBRANCH   1   7
DOCKED: BRANCH   3  11
DOCKED: ATOM     11  C   UNL     1     142.069  73.647 220.210 -0.14 -0.05    +0.232 A  
DOCKED: ATOM     12  N   UNL     1     141.773  74.931 220.536 -0.19 +0.06    -0.176 NA 
DOCKED: ATOM     13  N   UNL     1     141.554  72.635 220.957 -0.16 +0.02    -0.176 NA 
DOCKED: ATOM     14  C   UNL     1     140.970  75.212 221.594 -0.25 -0.05    +0.232 A  
DOCKED: ATOM     15  C   UNL     1     140.759  72.899 222.027 -0.20 -0.01    +0.232 A  
DOCKED: ATOM     16  N   UNL     1     140.470  74.191 222.338 -0.70 -0.01    -0.176 NA 
DOCKED: BRANCH  14  17
DOCKED: ATOM     17  N   UNL     1     140.630  76.581 221.902 -0.20 +0.11    -0.336 N  
DOCKED: ATOM     18  C   UNL     1     139.657  77.292 221.053 -0.16 -0.03    +0.125 C  
DOCKED: ATOM     19  C   UNL     1     141.357  77.259 222.995 +0.13 -0.07    +0.155 C  
DOCKED: ATOM     20  C   UNL     1     138.983  78.437 221.808 -0.20 -0.01    +0.057 C  
DOCKED: ATOM     21  C   UNL     1     141.168  78.756 222.992 -0.51 +0.01    -0.025 A  
DOCKED: ATOM     22  C   UNL     1     140.020  79.329 222.419 -0.30 +0.01    -0.041 A  
DOCKED: ATOM     23  C   UNL     1     142.119  79.582 223.612 -0.62 -0.00    +0.006 A  
DOCKED: ATOM     24  C   UNL     1     139.835  80.722 222.462 -0.31 -0.00    +0.004 A  
DOCKED: ATOM     25  C   UNL     1     141.937  80.969 223.639 -0.61 -0.00    +0.000 A  
DOCKED: ATOM     26  C   UNL     1     140.798  81.537 223.063 -0.35 -0.00    +0.000 A  
DOCKED: ENDBRANCH  14  17
DOCKED: BRANCH  15  27
DOCKED: ATOM     27  N   UNL     1     140.234  71.822 222.827 -0.18 +0.05    -0.336 N  
DOCKED: ATOM     28  C   UNL     1     139.609  70.670 222.152 -0.16 -0.02    +0.125 C  
DOCKED: ATOM     29  C   UNL     1     140.363  71.895 224.296 -0.22 -0.02    +0.155 C  
DOCKED: ATOM     30  C   UNL     1     138.683  69.887 223.087 -0.22 -0.01    +0.057 C  
DOCKED: ATOM     31  C   UNL     1     140.212  70.546 224.953 -0.46 +0.00    -0.025 A  
DOCKED: ATOM     32  C   UNL     1     139.389  69.570 224.369 -0.32 +0.01    -0.041 A  
DOCKED: ATOM     33  C   UNL     1     140.843  70.279 226.179 -0.56 -0.00    +0.006 A  
DOCKED: ATOM     34  C   UNL     1     139.201  68.336 225.013 -0.43 -0.00    +0.004 A  
DOCKED: ATOM     35  C   UNL     1     140.667  69.040 226.805 -0.60 -0.00    +0.000 A  
DOCKED: ATOM     36  C   UNL     1     139.846  68.072 226.225 -0.62 -0.00    +0.000 A  
DOCKED: ENDBRANCH  15  27
DOCKED: ENDBRANCH   3  11
DOCKED: TORSDOF 5
DOCKED: TER
DOCKED: ENDMDL
________________________________________________________________________________


    FINAL DOCKED STATE:
    ________________________


Run:   9 / 20
Time taken for this run:   0.036s

DOCKED: MODEL        9
DOCKED: USER    Run = 9
DOCKED: USER
DOCKED: USER    Estimated Free Energy of Binding    = -10.01 kcal/mol  [=(1)+(2)+(3)-(4)]
DOCKED: USER
DOCKED: USER    (1) Final Intermolecular Energy     = -11.51 kcal/mol
DOCKED: USER        vdW + Hbond + desolv Energy     = -11.28 kcal/mol
DOCKED: USER        Electrostatic Energy            =  -0.23 kcal/mol
DOCKED: USER        Moving Ligand-Fixed Receptor    = -11.51 kcal/mol
DOCKED: USER        Moving Ligand-Moving Receptor   =  +0.00 kcal/mol
DOCKED: USER    (2) Final Total Internal Energy     =  -1.07 kcal/mol
DOCKED: USER    (3) Torsional Free Energy           =  +1.49 kcal/mol
DOCKED: USER    (4) Unbound System's Energy         =  -1.07 kcal/mol
DOCKED: USER
DOCKED: USER
DOCKED: REMARK SMILES CCN[C@H]1CN(c2nc(N3CCc4ccccc4C3)nc(N3CCc4ccccc4C3)n2)CCO1
DOCKED: REMARK SMILES IDX 4 1 5 2 6 3 33 4 34 5 35 6 3 7 2 9 1 10 7 11 8 12 32 13 9 14
DOCKED: REMARK SMILES IDX 21 15 20 16 10 17 11 18 19 19 12 20 18 21 13 22 17 23 14 24
DOCKED: REMARK SMILES IDX 16 25 15 26 22 27 23 28 31 29 24 30 30 31 25 32 29 33 26 34
DOCKED: REMARK SMILES IDX 28 35 27 36
DOCKED: REMARK H PARENT 3 8
DOCKED: USER                              x       y       z     vdW  Elec       q    Type
DOCKED: USER                           _______ _______ _______ _____ _____    ______ ____
DOCKED: ROOT
DOCKED: ATOM      1  C   UNL     1     145.006  72.365 218.316 -0.14 +0.06    +0.205 C  
DOCKED: ATOM      2  C   UNL     1     143.613  72.122 218.936 -0.10 -0.01    +0.168 C  
DOCKED: ATOM      3  N   UNL     1     142.896  73.394 219.064 -0.03 +0.07    -0.334 N  
DOCKED: ATOM      4  C   UNL     1     142.894  74.273 217.892 -0.08 -0.04    +0.148 C  
DOCKED: ATOM      5  C   UNL     1     144.319  74.390 217.341 -0.06 -0.06    +0.184 C  
DOCKED: ATOM      6  O   UNL     1     144.899  73.115 217.114 -0.08 -0.02    -0.360 OA 
DOCKED: ENDROOT
DOCKED: BRANCH   1   7
DOCKED: ATOM      7  N   UNL     1     145.935  73.028 219.263 -0.71 -0.15    -0.291 NA 
DOCKED: ATOM      8  H   UNL     1     145.961  74.065 219.120 -0.46 -0.02    +0.125 HD 
DOCKED: BRANCH   7   9
DOCKED: ATOM      9  C   UNL     1     145.665  72.726 220.677 -0.47 -0.00    +0.080 C  
DOCKED: ATOM     10  C   UNL     1     146.320  73.731 221.625 -0.61 -0.00    +0.020 C  
DOCKED: ENDBRANCH   7   9
DOCKED: ENDBRANCH   1   7
DOCKED: BRANCH   3  11
DOCKED: ATOM     11  C   UNL     1     142.062  73.666 220.208 -0.14 -0.05    +0.232 A  
DOCKED: ATOM     12  N   UNL     1     141.765  74.946 220.548 -0.19 +0.06    -0.176 NA 
DOCKED: ATOM     13  N   UNL     1     141.545  72.646 220.942 -0.16 +0.02    -0.176 NA 
DOCKED: ATOM     14  C   UNL     1     140.959  75.216 221.607 -0.25 -0.05    +0.232 A  
DOCKED: ATOM     15  C   UNL     1     140.747  72.898 222.013 -0.21 -0.02    +0.232 A  
DOCKED: ATOM     16  N   UNL     1     140.457  74.186 222.338 -0.70 -0.01    -0.176 NA 
DOCKED: BRANCH  14  17
DOCKED: ATOM     17  N   UNL     1     140.618  76.580 221.929 -0.20 +0.10    -0.336 N  
DOCKED: ATOM     18  C   UNL     1     139.574  77.268 221.148 -0.17 -0.03    +0.125 C  
DOCKED: ATOM     19  C   UNL     1     141.410  77.280 222.961 +0.16 -0.07    +0.155 C  
DOCKED: ATOM     20  C   UNL     1     138.936  78.407 221.942 -0.21 -0.01    +0.057 C  
DOCKED: ATOM     21  C   UNL     1     141.195  78.773 222.962 -0.51 +0.01    -0.025 A  
DOCKED: ATOM     22  C   UNL     1     139.998  79.322 222.470 -0.31 +0.01    -0.041 A  
DOCKED: ATOM     23  C   UNL     1     142.173  79.621 223.506 -0.63 -0.00    +0.006 A  
DOCKED: ATOM     24  C   UNL     1     139.792  80.712 222.516 -0.31 -0.00    +0.004 A  
DOCKED: ATOM     25  C   UNL     1     141.969  81.005 223.536 -0.62 -0.00    +0.000 A  
DOCKED: ATOM     26  C   UNL     1     140.781  81.548 223.041 -0.35 -0.00    +0.000 A  
DOCKED: ENDBRANCH  14  17
DOCKED: BRANCH  15  27
DOCKED: ATOM     27  N   UNL     1     140.219  71.812 222.799 -0.18 +0.05    -0.336 N  
DOCKED: ATOM     28  C   UNL     1     139.610  70.661 222.108 -0.16 -0.02    +0.125 C  
DOCKED: ATOM     29  C   UNL     1     140.331  71.875 224.269 -0.25 -0.03    +0.155 C  
DOCKED: ATOM     30  C   UNL     1     138.678  69.864 223.026 -0.21 -0.01    +0.057 C  
DOCKED: ATOM     31  C   UNL     1     140.181  70.520 224.915 -0.45 +0.00    -0.025 A  
DOCKED: ATOM     32  C   UNL     1     139.371  69.543 224.315 -0.31 +0.01    -0.041 A  
DOCKED: ATOM     33  C   UNL     1     140.798  70.248 226.146 -0.56 -0.00    +0.006 A  
DOCKED: ATOM     34  C   UNL     1     139.183  68.303 224.947 -0.42 -0.00    +0.004 A  
DOCKED: ATOM     35  C   UNL     1     140.624  69.004 226.762 -0.59 -0.00    +0.000 A  
DOCKED: ATOM     36  C   UNL     1     139.815  68.035 226.165 -0.62 -0.00    +0.000 A  
DOCKED: ENDBRANCH  15  27
DOCKED: ENDBRANCH   3  11
DOCKED: TORSDOF 5
DOCKED: TER
DOCKED: ENDMDL
________________________________________________________________________________


    FINAL DOCKED STATE:
    ________________________


Run:   10 / 20
Time taken for this run:   0.036s

DOCKED: MODEL        10
DOCKED: USER    Run = 10
DOCKED: USER
DOCKED: USER    Estimated Free Energy of Binding    = -10.15 kcal/mol  [=(1)+(2)+(3)-(4)]
DOCKED: USER
DOCKED: USER    (1) Final Intermolecular Energy     = -11.64 kcal/mol
DOCKED: USER        vdW + Hbond + desolv Energy     = -11.37 kcal/mol
DOCKED: USER        Electrostatic Energy            =  -0.27 kcal/mol
DOCKED: USER        Moving Ligand-Fixed Receptor    = -11.64 kcal/mol
DOCKED: USER        Moving Ligand-Moving Receptor   =  +0.00 kcal/mol
DOCKED: USER    (2) Final Total Internal Energy     =  -1.16 kcal/mol
DOCKED: USER    (3) Torsional Free Energy           =  +1.49 kcal/mol
DOCKED: USER    (4) Unbound System's Energy         =  -1.16 kcal/mol
DOCKED: USER
DOCKED: USER
DOCKED: REMARK SMILES CCN[C@H]1CN(c2nc(N3CCc4ccccc4C3)nc(N3CCc4ccccc4C3)n2)CCO1
DOCKED: REMARK SMILES IDX 4 1 5 2 6 3 33 4 34 5 35 6 3 7 2 9 1 10 7 11 8 12 32 13 9 14
DOCKED: REMARK SMILES IDX 21 15 20 16 10 17 11 18 19 19 12 20 18 21 13 22 17 23 14 24
DOCKED: REMARK SMILES IDX 16 25 15 26 22 27 23 28 31 29 24 30 30 31 25 32 29 33 26 34
DOCKED: REMARK SMILES IDX 28 35 27 36
DOCKED: REMARK H PARENT 3 8
DOCKED: USER                              x       y       z     vdW  Elec       q    Type
DOCKED: USER                           _______ _______ _______ _____ _____    ______ ____
DOCKED: ROOT
DOCKED: ATOM      1  C   UNL     1     145.557  71.710 218.728 -0.11 +0.14    +0.205 C  
DOCKED: ATOM      2  C   UNL     1     144.306  71.422 219.586 -0.19 +0.01    +0.168 C  
DOCKED: ATOM      3  N   UNL     1     143.251  72.388 219.269 -0.03 +0.04    -0.334 N  
DOCKED: ATOM      4  C   UNL     1     142.971  72.619 217.849 -0.03 -0.02    +0.148 C  
DOCKED: ATOM      5  C   UNL     1     144.290  72.839 217.101 -0.06 -0.00    +0.184 C  
DOCKED: ATOM      6  O   UNL     1     145.214  71.792 217.351 -0.13 -0.15    -0.360 OA 
DOCKED: ENDROOT
DOCKED: BRANCH   1   7
DOCKED: ATOM      7  N   UNL     1     146.266  72.938 219.161 -0.65 -0.27    -0.291 NA 
DOCKED: ATOM      8  H   UNL     1     146.005  73.766 218.575 -0.44 +0.02    +0.125 HD 
DOCKED: BRANCH   7   9
DOCKED: ATOM      9  C   UNL     1     146.090  73.260 220.586 -0.57 +0.01    +0.080 C  
DOCKED: ATOM     10  C   UNL     1     145.231  74.507 220.802 -0.35 -0.01    +0.020 C  
DOCKED: ENDBRANCH   7   9
DOCKED: ENDBRANCH   1   7
DOCKED: BRANCH   3  11
DOCKED: ATOM     11  C   UNL     1     142.393  72.917 220.299 -0.14 -0.04    +0.232 A  
DOCKED: ATOM     12  N   UNL     1     142.176  74.254 220.387 -0.18 +0.05    -0.176 NA 
DOCKED: ATOM     13  N   UNL     1     141.774  72.084 221.176 -0.16 +0.02    -0.176 NA 
DOCKED: ATOM     14  C   UNL     1     141.349  74.764 221.335 -0.20 -0.05    +0.232 A  
DOCKED: ATOM     15  C   UNL     1     140.954  72.579 222.140 -0.17 -0.01    +0.232 A  
DOCKED: ATOM     16  N   UNL     1     140.744  73.921 222.212 -0.66 -0.01    -0.176 NA 
DOCKED: BRANCH  14  17
DOCKED: ATOM     17  N   UNL     1     141.094  76.184 221.387 -0.17 +0.13    -0.336 N  
DOCKED: ATOM     18  C   UNL     1     140.993  76.946 220.130 -0.18 -0.05    +0.125 C  
DOCKED: ATOM     19  C   UNL     1     141.055  76.844 222.708 -0.18 -0.06    +0.155 C  
DOCKED: ATOM     20  C   UNL     1     140.168  78.221 220.310 -0.15 -0.02    +0.057 C  
DOCKED: ATOM     21  C   UNL     1     141.130  78.349 222.620 -0.47 +0.01    -0.025 A  
DOCKED: ATOM     22  C   UNL     1     140.701  79.018 221.461 -0.27 +0.01    -0.041 A  
DOCKED: ATOM     23  C   UNL     1     141.582  79.093 223.722 -0.61 -0.00    +0.006 A  
DOCKED: ATOM     24  C   UNL     1     140.736  80.422 221.409 -0.29 -0.00    +0.004 A  
DOCKED: ATOM     25  C   UNL     1     141.628  80.489 223.659 -0.58 -0.00    +0.000 A  
DOCKED: ATOM     26  C   UNL     1     141.207  81.152 222.503 -0.45 -0.00    +0.000 A  
DOCKED: ENDBRANCH  14  17
DOCKED: BRANCH  15  27
DOCKED: ATOM     27  N   UNL     1     140.318  71.691 223.080 -0.19 +0.04    -0.336 N  
DOCKED: ATOM     28  C   UNL     1     139.347  70.699 222.582 -0.19 -0.02    +0.125 C  
DOCKED: ATOM     29  C   UNL     1     140.679  71.785 224.508 -0.21 -0.02    +0.155 C  
DOCKED: ATOM     30  C   UNL     1     138.415  70.198 223.688 -0.26 -0.01    +0.057 C  
DOCKED: ATOM     31  C   UNL     1     140.318  70.537 225.276 -0.49 +0.00    -0.025 A  
DOCKED: ATOM     32  C   UNL     1     139.211  69.768 224.882 -0.36 +0.01    -0.041 A  
DOCKED: ATOM     33  C   UNL     1     141.045  70.172 226.419 -0.57 -0.00    +0.006 A  
DOCKED: ATOM     34  C   UNL     1     138.839  68.641 225.632 -0.45 -0.00    +0.004 A  
DOCKED: ATOM     35  C   UNL     1     140.682  69.037 227.152 -0.62 -0.00    +0.000 A  
DOCKED: ATOM     36  C   UNL     1     139.579  68.274 226.760 -0.61 -0.00    +0.000 A  
DOCKED: ENDBRANCH  15  27
DOCKED: ENDBRANCH   3  11
DOCKED: TORSDOF 5
DOCKED: TER
DOCKED: ENDMDL
________________________________________________________________________________


    FINAL DOCKED STATE:
    ________________________


Run:   11 / 20
Time taken for this run:   0.036s

DOCKED: MODEL        11
DOCKED: USER    Run = 11
DOCKED: USER
DOCKED: USER    Estimated Free Energy of Binding    = -10.65 kcal/mol  [=(1)+(2)+(3)-(4)]
DOCKED: USER
DOCKED: USER    (1) Final Intermolecular Energy     = -12.14 kcal/mol
DOCKED: USER        vdW + Hbond + desolv Energy     = -11.90 kcal/mol
DOCKED: USER        Electrostatic Energy            =  -0.24 kcal/mol
DOCKED: USER        Moving Ligand-Fixed Receptor    = -12.14 kcal/mol
DOCKED: USER        Moving Ligand-Moving Receptor   =  +0.00 kcal/mol
DOCKED: USER    (2) Final Total Internal Energy     =  -1.01 kcal/mol
DOCKED: USER    (3) Torsional Free Energy           =  +1.49 kcal/mol
DOCKED: USER    (4) Unbound System's Energy         =  -1.01 kcal/mol
DOCKED: USER
DOCKED: USER
DOCKED: REMARK SMILES CCN[C@H]1CN(c2nc(N3CCc4ccccc4C3)nc(N3CCc4ccccc4C3)n2)CCO1
DOCKED: REMARK SMILES IDX 4 1 5 2 6 3 33 4 34 5 35 6 3 7 2 9 1 10 7 11 8 12 32 13 9 14
DOCKED: REMARK SMILES IDX 21 15 20 16 10 17 11 18 19 19 12 20 18 21 13 22 17 23 14 24
DOCKED: REMARK SMILES IDX 16 25 15 26 22 27 23 28 31 29 24 30 30 31 25 32 29 33 26 34
DOCKED: REMARK SMILES IDX 28 35 27 36
DOCKED: REMARK H PARENT 3 8
DOCKED: USER                              x       y       z     vdW  Elec       q    Type
DOCKED: USER                           _______ _______ _______ _____ _____    ______ ____
DOCKED: ROOT
DOCKED: ATOM      1  C   UNL     1     145.583  72.032 219.008 -0.15 +0.13    +0.205 C  
DOCKED: ATOM      2  C   UNL     1     144.222  71.730 219.671 -0.20 -0.00    +0.168 C  
DOCKED: ATOM      3  N   UNL     1     143.284  72.823 219.404 -0.04 +0.05    -0.334 N  
DOCKED: ATOM      4  C   UNL     1     143.192  73.291 218.018 -0.06 -0.03    +0.148 C  
DOCKED: ATOM      5  C   UNL     1     144.602  73.503 217.459 -0.10 -0.02    +0.184 C  
DOCKED: ATOM      6  O   UNL     1     145.413  72.352 217.633 -0.37 -0.20    -0.360 OA 
DOCKED: ENDROOT
DOCKED: BRANCH   1   7
DOCKED: ATOM      7  N   UNL     1     146.322  73.112 219.706 -0.64 -0.16    -0.291 NA 
DOCKED: ATOM      8  H   UNL     1     146.465  73.947 219.090 -0.48 +0.02    +0.125 HD 
DOCKED: BRANCH   7   9
DOCKED: ATOM      9  C   UNL     1     145.711  73.529 220.978 -0.61 -0.01    +0.080 C  
DOCKED: ATOM     10  C   UNL     1     146.674  73.395 222.159 -0.62 -0.00    +0.020 C  
DOCKED: ENDBRANCH   7   9
DOCKED: ENDBRANCH   1   7
DOCKED: BRANCH   3  11
DOCKED: ATOM     11  C   UNL     1     142.349  73.264 220.409 -0.16 -0.04    +0.232 A  
DOCKED: ATOM     12  N   UNL     1     142.042  74.581 220.524 -0.19 +0.05    -0.176 NA 
DOCKED: ATOM     13  N   UNL     1     141.749  72.366 221.233 -0.17 +0.02    -0.176 NA 
DOCKED: ATOM     14  C   UNL     1     141.144  75.008 221.449 -0.23 -0.05    +0.232 A  
DOCKED: ATOM     15  C   UNL     1     140.858  72.778 222.173 -0.17 -0.01    +0.232 A  
DOCKED: ATOM     16  N   UNL     1     140.558  74.101 222.273 -0.70 -0.01    -0.176 NA 
DOCKED: BRANCH  14  17
DOCKED: ATOM     17  N   UNL     1     140.795  76.406 221.529 -0.17 +0.12    -0.336 N  
DOCKED: ATOM     18  C   UNL     1     140.286  77.094 220.330 -0.13 -0.04    +0.125 C  
DOCKED: ATOM     19  C   UNL     1     141.069  77.129 222.788 -0.20 -0.06    +0.155 C  
DOCKED: ATOM     20  C   UNL     1     139.440  78.313 220.697 -0.12 -0.02    +0.057 C  
DOCKED: ATOM     21  C   UNL     1     140.991  78.629 222.639 -0.45 +0.01    -0.025 A  
DOCKED: ATOM     22  C   UNL     1     140.203  79.205 221.629 -0.23 +0.01    -0.041 A  
DOCKED: ATOM     23  C   UNL     1     141.666  79.458 223.548 -0.60 -0.00    +0.006 A  
DOCKED: ATOM     24  C   UNL     1     140.103  80.603 221.528 -0.24 -0.00    +0.004 A  
DOCKED: ATOM     25  C   UNL     1     141.576  80.850 223.435 -0.57 -0.00    +0.000 A  
DOCKED: ATOM     26  C   UNL     1     140.796  81.420 222.425 -0.40 -0.00    +0.000 A  
DOCKED: ENDBRANCH  14  17
DOCKED: BRANCH  15  27
DOCKED: ATOM     27  N   UNL     1     140.240  71.823 223.058 -0.19 +0.05    -0.336 N  
DOCKED: ATOM     28  C   UNL     1     139.279  70.852 222.502 -0.19 -0.02    +0.125 C  
DOCKED: ATOM     29  C   UNL     1     140.612  71.828 224.486 -0.20 -0.02    +0.155 C  
DOCKED: ATOM     30  C   UNL     1     138.361  70.268 223.581 -0.25 -0.01    +0.057 C  
DOCKED: ATOM     31  C   UNL     1     140.273  70.529 225.173 -0.48 +0.00    -0.025 A  
DOCKED: ATOM     32  C   UNL     1     139.173  69.772 224.738 -0.35 +0.01    -0.041 A  
DOCKED: ATOM     33  C   UNL     1     141.013  70.100 226.286 -0.56 -0.00    +0.006 A  
DOCKED: ATOM     34  C   UNL     1     138.822  68.594 225.417 -0.44 -0.00    +0.004 A  
DOCKED: ATOM     35  C   UNL     1     140.670  68.915 226.946 -0.61 -0.00    +0.000 A  
DOCKED: ATOM     36  C   UNL     1     139.575  68.165 226.513 -0.62 -0.00    +0.000 A  
DOCKED: ENDBRANCH  15  27
DOCKED: ENDBRANCH   3  11
DOCKED: TORSDOF 5
DOCKED: TER
DOCKED: ENDMDL
________________________________________________________________________________


    FINAL DOCKED STATE:
    ________________________


Run:   12 / 20
Time taken for this run:   0.036s

DOCKED: MODEL        12
DOCKED: USER    Run = 12
DOCKED: USER
DOCKED: USER    Estimated Free Energy of Binding    = -10.13 kcal/mol  [=(1)+(2)+(3)-(4)]
DOCKED: USER
DOCKED: USER    (1) Final Intermolecular Energy     = -11.63 kcal/mol
DOCKED: USER        vdW + Hbond + desolv Energy     = -11.42 kcal/mol
DOCKED: USER        Electrostatic Energy            =  -0.21 kcal/mol
DOCKED: USER        Moving Ligand-Fixed Receptor    = -11.63 kcal/mol
DOCKED: USER        Moving Ligand-Moving Receptor   =  +0.00 kcal/mol
DOCKED: USER    (2) Final Total Internal Energy     =  -1.02 kcal/mol
DOCKED: USER    (3) Torsional Free Energy           =  +1.49 kcal/mol
DOCKED: USER    (4) Unbound System's Energy         =  -1.02 kcal/mol
DOCKED: USER
DOCKED: USER
DOCKED: REMARK SMILES CCN[C@H]1CN(c2nc(N3CCc4ccccc4C3)nc(N3CCc4ccccc4C3)n2)CCO1
DOCKED: REMARK SMILES IDX 4 1 5 2 6 3 33 4 34 5 35 6 3 7 2 9 1 10 7 11 8 12 32 13 9 14
DOCKED: REMARK SMILES IDX 21 15 20 16 10 17 11 18 19 19 12 20 18 21 13 22 17 23 14 24
DOCKED: REMARK SMILES IDX 16 25 15 26 22 27 23 28 31 29 24 30 30 31 25 32 29 33 26 34
DOCKED: REMARK SMILES IDX 28 35 27 36
DOCKED: REMARK H PARENT 3 8
DOCKED: USER                              x       y       z     vdW  Elec       q    Type
DOCKED: USER                           _______ _______ _______ _____ _____    ______ ____
DOCKED: ROOT
DOCKED: ATOM      1  C   UNL     1     145.369  72.099 219.105 -0.20 +0.09    +0.205 C  
DOCKED: ATOM      2  C   UNL     1     144.096  71.601 219.822 -0.20 -0.01    +0.168 C  
DOCKED: ATOM      3  N   UNL     1     143.007  72.563 219.629 -0.05 +0.05    -0.334 N  
DOCKED: ATOM      4  C   UNL     1     142.785  73.044 218.264 -0.05 -0.03    +0.148 C  
DOCKED: ATOM      5  C   UNL     1     144.125  73.457 217.646 -0.09 -0.03    +0.184 C  
DOCKED: ATOM      6  O   UNL     1     145.090  72.423 217.750 -0.21 -0.12    -0.360 OA 
DOCKED: ENDROOT
DOCKED: BRANCH   1   7
DOCKED: ATOM      7  N   UNL     1     145.991  73.253 219.799 -0.47 -0.08    -0.291 NA 
DOCKED: ATOM      8  H   UNL     1     145.868  74.142 219.261 -0.47 -0.03    +0.125 HD 
DOCKED: BRANCH   7   9
DOCKED: ATOM      9  C   UNL     1     145.527  73.439 221.183 -0.58 -0.02    +0.080 C  
DOCKED: ATOM     10  C   UNL     1     146.677  73.414 222.192 -0.60 -0.00    +0.020 C  
DOCKED: ENDBRANCH   7   9
DOCKED: ENDBRANCH   1   7
DOCKED: BRANCH   3  11
DOCKED: ATOM     11  C   UNL     1     142.074  72.851 220.689 -0.15 -0.03    +0.232 A  
DOCKED: ATOM     12  N   UNL     1     141.707  71.876 221.560 -0.16 +0.01    -0.176 NA 
DOCKED: ATOM     13  N   UNL     1     141.570  74.104 220.842 -0.20 +0.04    -0.176 NA 
DOCKED: ATOM     14  C   UNL     1     140.849  72.140 222.579 -0.16 -0.01    +0.232 A  
DOCKED: ATOM     15  C   UNL     1     140.700  74.382 221.848 -0.12 -0.01    +0.232 A  
DOCKED: ATOM     16  N   UNL     1     140.346  73.395 222.714 -0.61 -0.01    -0.176 NA 
DOCKED: BRANCH  14  17
DOCKED: ATOM     17  N   UNL     1     140.504  71.104 223.522 -0.15 +0.04    -0.336 N  
DOCKED: ATOM     18  C   UNL     1     139.263  70.334 223.327 -0.23 -0.02    +0.125 C  
DOCKED: ATOM     19  C   UNL     1     141.354  70.929 224.718 +0.03 -0.01    +0.155 C  
DOCKED: ATOM     20  C   UNL     1     139.339  68.964 224.002 -0.20 -0.01    +0.057 C  
DOCKED: ATOM     21  C   UNL     1     140.710  70.073 225.782 -0.51 +0.00    -0.025 A  
DOCKED: ATOM     22  C   UNL     1     139.735  69.121 225.438 -0.42 +0.01    -0.041 A  
DOCKED: ATOM     23  C   UNL     1     141.124  70.190 227.118 -0.56 -0.00    +0.006 A  
DOCKED: ATOM     24  C   UNL     1     139.175  68.301 226.432 -0.51 -0.00    +0.004 A  
DOCKED: ATOM     25  C   UNL     1     140.553  69.380 228.106 -0.63 -0.00    +0.000 A  
DOCKED: ATOM     26  C   UNL     1     139.579  68.439 227.763 -0.55 -0.00    +0.000 A  
DOCKED: ENDBRANCH  14  17
DOCKED: BRANCH  15  27
DOCKED: ATOM     27  N   UNL     1     140.153  75.707 221.992 -0.20 +0.06    -0.336 N  
DOCKED: ATOM     28  C   UNL     1     138.727  75.859 222.334 -0.25 -0.03    +0.125 C  
DOCKED: ATOM     29  C   UNL     1     141.046  76.870 221.821 -0.28 -0.06    +0.155 C  
DOCKED: ATOM     30  C   UNL     1     138.190  77.246 221.967 -0.22 -0.01    +0.057 C  
DOCKED: ATOM     31  C   UNL     1     140.484  78.123 222.444 -0.39 +0.01    -0.025 A  
DOCKED: ATOM     32  C   UNL     1     139.094  78.310 222.509 -0.28 +0.01    -0.041 A  
DOCKED: ATOM     33  C   UNL     1     141.342  79.133 222.907 -0.52 -0.00    +0.006 A  
DOCKED: ATOM     34  C   UNL     1     138.571  79.504 223.035 -0.31 -0.00    +0.004 A  
DOCKED: ATOM     35  C   UNL     1     140.816  80.312 223.447 -0.50 -0.00    +0.000 A  
DOCKED: ATOM     36  C   UNL     1     139.433  80.497 223.508 -0.42 -0.00    +0.000 A  
DOCKED: ENDBRANCH  15  27
DOCKED: ENDBRANCH   3  11
DOCKED: TORSDOF 5
DOCKED: TER
DOCKED: ENDMDL
________________________________________________________________________________


    FINAL DOCKED STATE:
    ________________________


Run:   13 / 20
Time taken for this run:   0.036s

DOCKED: MODEL        13
DOCKED: USER    Run = 13
DOCKED: USER
DOCKED: USER    Estimated Free Energy of Binding    = -10.67 kcal/mol  [=(1)+(2)+(3)-(4)]
DOCKED: USER
DOCKED: USER    (1) Final Intermolecular Energy     = -12.16 kcal/mol
DOCKED: USER        vdW + Hbond + desolv Energy     = -11.89 kcal/mol
DOCKED: USER        Electrostatic Energy            =  -0.27 kcal/mol
DOCKED: USER        Moving Ligand-Fixed Receptor    = -12.16 kcal/mol
DOCKED: USER        Moving Ligand-Moving Receptor   =  +0.00 kcal/mol
DOCKED: USER    (2) Final Total Internal Energy     =  -1.02 kcal/mol
DOCKED: USER    (3) Torsional Free Energy           =  +1.49 kcal/mol
DOCKED: USER    (4) Unbound System's Energy         =  -1.02 kcal/mol
DOCKED: USER
DOCKED: USER
DOCKED: REMARK SMILES CCN[C@H]1CN(c2nc(N3CCc4ccccc4C3)nc(N3CCc4ccccc4C3)n2)CCO1
DOCKED: REMARK SMILES IDX 4 1 5 2 6 3 33 4 34 5 35 6 3 7 2 9 1 10 7 11 8 12 32 13 9 14
DOCKED: REMARK SMILES IDX 21 15 20 16 10 17 11 18 19 19 12 20 18 21 13 22 17 23 14 24
DOCKED: REMARK SMILES IDX 16 25 15 26 22 27 23 28 31 29 24 30 30 31 25 32 29 33 26 34
DOCKED: REMARK SMILES IDX 28 35 27 36
DOCKED: REMARK H PARENT 3 8
DOCKED: USER                              x       y       z     vdW  Elec       q    Type
DOCKED: USER                           _______ _______ _______ _____ _____    ______ ____
DOCKED: ROOT
DOCKED: ATOM      1  C   UNL     1     145.724  72.121 219.231 -0.08 +0.14    +0.205 C  
DOCKED: ATOM      2  C   UNL     1     144.397  71.739 219.920 -0.22 -0.00    +0.168 C  
DOCKED: ATOM      3  N   UNL     1     143.357  72.711 219.572 -0.06 +0.05    -0.334 N  
DOCKED: ATOM      4  C   UNL     1     143.226  73.059 218.155 -0.06 -0.02    +0.148 C  
DOCKED: ATOM      5  C   UNL     1     144.612  73.365 217.576 -0.11 -0.01    +0.184 C  
DOCKED: ATOM      6  O   UNL     1     145.530  72.315 217.836 -0.51 -0.24    -0.360 OA 
DOCKED: ENDROOT
DOCKED: BRANCH   1   7
DOCKED: ATOM      7  N   UNL     1     146.351  73.319 219.841 -0.53 -0.12    -0.291 NA 
DOCKED: ATOM      8  H   UNL     1     146.347  74.136 219.187 -0.53 -0.01    +0.125 HD 
DOCKED: BRANCH   7   9
DOCKED: ATOM      9  C   UNL     1     145.764  73.709 221.132 -0.60 -0.01    +0.080 C  
DOCKED: ATOM     10  C   UNL     1     146.688  73.402 222.311 -0.59 -0.00    +0.020 C  
DOCKED: ENDBRANCH   7   9
DOCKED: ENDBRANCH   1   7
DOCKED: BRANCH   3  11
DOCKED: ATOM     11  C   UNL     1     142.380  73.135 220.543 -0.16 -0.04    +0.232 A  
DOCKED: ATOM     12  N   UNL     1     142.017  74.441 220.621 -0.20 +0.05    -0.176 NA 
DOCKED: ATOM     13  N   UNL     1     141.795  72.232 221.372 -0.17 +0.02    -0.176 NA 
DOCKED: ATOM     14  C   UNL     1     141.078  74.850 221.513 -0.23 -0.04    +0.232 A  
DOCKED: ATOM     15  C   UNL     1     140.864  72.626 222.279 -0.17 -0.01    +0.232 A  
DOCKED: ATOM     16  N   UNL     1     140.508  73.938 222.342 -0.72 -0.01    -0.176 NA 
DOCKED: BRANCH  14  17
DOCKED: ATOM     17  N   UNL     1     140.671  76.234 221.553 -0.18 +0.10    -0.336 N  
DOCKED: ATOM     18  C   UNL     1     139.983  76.819 220.389 -0.12 -0.04    +0.125 C  
DOCKED: ATOM     19  C   UNL     1     141.062  77.049 222.721 -0.23 -0.06    +0.155 C  
DOCKED: ATOM     20  C   UNL     1     139.128  78.022 220.786 -0.12 -0.01    +0.057 C  
DOCKED: ATOM     21  C   UNL     1     140.889  78.531 222.494 -0.42 +0.01    -0.025 A  
DOCKED: ATOM     22  C   UNL     1     139.954  79.005 221.559 -0.21 +0.01    -0.041 A  
DOCKED: ATOM     23  C   UNL     1     141.629  79.447 223.259 -0.57 -0.00    +0.006 A  
DOCKED: ATOM     24  C   UNL     1     139.771  80.388 221.388 -0.19 -0.00    +0.004 A  
DOCKED: ATOM     25  C   UNL     1     141.454  80.823 223.075 -0.53 -0.00    +0.000 A  
DOCKED: ATOM     26  C   UNL     1     140.528  81.292 222.140 -0.35 -0.00    +0.000 A  
DOCKED: ENDBRANCH  14  17
DOCKED: BRANCH  15  27
DOCKED: ATOM     27  N   UNL     1     140.262  71.666 223.170 -0.19 +0.05    -0.336 N  
DOCKED: ATOM     28  C   UNL     1     139.279  70.709 222.630 -0.19 -0.02    +0.125 C  
DOCKED: ATOM     29  C   UNL     1     140.672  71.653 224.588 -0.28 -0.02    +0.155 C  
DOCKED: ATOM     30  C   UNL     1     138.386  70.119 223.725 -0.26 -0.01    +0.057 C  
DOCKED: ATOM     31  C   UNL     1     140.341  70.349 225.270 -0.47 +0.00    -0.025 A  
DOCKED: ATOM     32  C   UNL     1     139.224  69.605 224.855 -0.36 +0.01    -0.041 A  
DOCKED: ATOM     33  C   UNL     1     141.107  69.902 226.357 -0.55 -0.00    +0.006 A  
DOCKED: ATOM     34  C   UNL     1     138.882  68.421 225.530 -0.45 -0.00    +0.004 A  
DOCKED: ATOM     35  C   UNL     1     140.773  68.712 227.013 -0.63 -0.00    +0.000 A  
DOCKED: ATOM     36  C   UNL     1     139.661  67.975 226.601 -0.64 -0.00    +0.000 A  
DOCKED: ENDBRANCH  15  27
DOCKED: ENDBRANCH   3  11
DOCKED: TORSDOF 5
DOCKED: TER
DOCKED: ENDMDL
________________________________________________________________________________


    FINAL DOCKED STATE:
    ________________________


Run:   14 / 20
Time taken for this run:   0.036s

DOCKED: MODEL        14
DOCKED: USER    Run = 14
DOCKED: USER
DOCKED: USER    Estimated Free Energy of Binding    =  -9.27 kcal/mol  [=(1)+(2)+(3)-(4)]
DOCKED: USER
DOCKED: USER    (1) Final Intermolecular Energy     = -10.76 kcal/mol
DOCKED: USER        vdW + Hbond + desolv Energy     = -10.48 kcal/mol
DOCKED: USER        Electrostatic Energy            =  -0.28 kcal/mol
DOCKED: USER        Moving Ligand-Fixed Receptor    = -10.76 kcal/mol
DOCKED: USER        Moving Ligand-Moving Receptor   =  +0.00 kcal/mol
DOCKED: USER    (2) Final Total Internal Energy     =  -0.90 kcal/mol
DOCKED: USER    (3) Torsional Free Energy           =  +1.49 kcal/mol
DOCKED: USER    (4) Unbound System's Energy         =  -0.90 kcal/mol
DOCKED: USER
DOCKED: USER
DOCKED: REMARK SMILES CCN[C@H]1CN(c2nc(N3CCc4ccccc4C3)nc(N3CCc4ccccc4C3)n2)CCO1
DOCKED: REMARK SMILES IDX 4 1 5 2 6 3 33 4 34 5 35 6 3 7 2 9 1 10 7 11 8 12 32 13 9 14
DOCKED: REMARK SMILES IDX 21 15 20 16 10 17 11 18 19 19 12 20 18 21 13 22 17 23 14 24
DOCKED: REMARK SMILES IDX 16 25 15 26 22 27 23 28 31 29 24 30 30 31 25 32 29 33 26 34
DOCKED: REMARK SMILES IDX 28 35 27 36
DOCKED: REMARK H PARENT 3 8
DOCKED: USER                              x       y       z     vdW  Elec       q    Type
DOCKED: USER                           _______ _______ _______ _____ _____    ______ ____
DOCKED: ROOT
DOCKED: ATOM      1  C   UNL     1     145.643  73.313 218.459 -0.07 +0.07    +0.205 C  
DOCKED: ATOM      2  C   UNL     1     145.101  73.390 219.901 -0.38 -0.01    +0.168 C  
DOCKED: ATOM      3  N   UNL     1     143.862  72.614 220.010 -0.11 +0.04    -0.334 N  
DOCKED: ATOM      4  C   UNL     1     143.876  71.265 219.439 -0.16 -0.00    +0.148 C  
DOCKED: ATOM      5  C   UNL     1     144.482  71.314 218.033 -0.09 +0.03    +0.184 C  
DOCKED: ATOM      6  O   UNL     1     145.745  71.961 218.030 -0.48 -0.35    -0.360 OA 
DOCKED: ENDROOT
DOCKED: BRANCH   1   7
DOCKED: ATOM      7  N   UNL     1     144.824  74.100 217.506 -0.04 +0.07    -0.291 NA 
DOCKED: ATOM      8  H   UNL     1     144.802  75.116 217.758 -0.52 -0.09    +0.125 HD 
DOCKED: BRANCH   7   9
DOCKED: ATOM      9  C   UNL     1     145.227  73.943 216.100 -0.13 -0.01    +0.080 C  
DOCKED: ATOM     10  C   UNL     1     146.637  74.472 215.833 -0.21 -0.00    +0.020 C  
DOCKED: ENDBRANCH   7   9
DOCKED: ENDBRANCH   1   7
DOCKED: BRANCH   3  11
DOCKED: ATOM     11  C   UNL     1     142.765  73.075 220.823 -0.17 -0.04    +0.232 A  
DOCKED: ATOM     12  N   UNL     1     142.406  74.384 220.807 -0.21 +0.05    -0.176 NA 
DOCKED: ATOM     13  N   UNL     1     142.063  72.202 221.593 -0.10 +0.01    -0.176 NA 
DOCKED: ATOM     14  C   UNL     1     141.357  74.827 221.548 -0.17 -0.05    +0.232 A  
DOCKED: ATOM     15  C   UNL     1     141.019  72.631 222.350 -0.11 -0.01    +0.232 A  
DOCKED: ATOM     16  N   UNL     1     140.671  73.946 222.321 -0.66 -0.02    -0.176 NA 
DOCKED: BRANCH  14  17
DOCKED: ATOM     17  N   UNL     1     140.961  76.214 221.487 -0.18 +0.12    -0.336 N  
DOCKED: ATOM     18  C   UNL     1     140.604  76.806 220.185 -0.15 -0.04    +0.125 C  
DOCKED: ATOM     19  C   UNL     1     141.038  77.023 222.720 -0.23 -0.06    +0.155 C  
DOCKED: ATOM     20  C   UNL     1     139.681  78.013 220.351 -0.12 -0.02    +0.057 C  
DOCKED: ATOM     21  C   UNL     1     140.938  78.507 222.462 -0.43 +0.01    -0.025 A  
DOCKED: ATOM     22  C   UNL     1     140.282  78.989 221.317 -0.22 +0.01    -0.041 A  
DOCKED: ATOM     23  C   UNL     1     141.457  79.416 223.397 -0.57 -0.00    +0.006 A  
DOCKED: ATOM     24  C   UNL     1     140.157  80.374 221.110 -0.20 -0.00    +0.004 A  
DOCKED: ATOM     25  C   UNL     1     141.343  80.793 223.179 -0.53 -0.00    +0.000 A  
DOCKED: ATOM     26  C   UNL     1     140.696  81.270 222.037 -0.36 -0.00    +0.000 A  
DOCKED: ENDBRANCH  14  17
DOCKED: BRANCH  15  27
DOCKED: ATOM     27  N   UNL     1     140.293  71.704 223.181 -0.19 +0.05    -0.336 N  
DOCKED: ATOM     28  C   UNL     1     139.212  70.903 222.579 -0.20 -0.02    +0.125 C  
DOCKED: ATOM     29  C   UNL     1     140.674  71.566 224.600 -0.33 -0.02    +0.155 C  
DOCKED: ATOM     30  C   UNL     1     138.236  70.367 223.632 -0.25 -0.01    +0.057 C  
DOCKED: ATOM     31  C   UNL     1     140.179  70.277 225.205 -0.45 +0.00    -0.025 A  
DOCKED: ATOM     32  C   UNL     1     138.988  69.696 224.740 -0.34 +0.01    -0.041 A  
DOCKED: ATOM     33  C   UNL     1     140.868  69.683 226.274 -0.53 -0.00    +0.006 A  
DOCKED: ATOM     34  C   UNL     1     138.495  68.528 225.345 -0.39 -0.00    +0.004 A  
DOCKED: ATOM     35  C   UNL     1     140.383  68.509 226.860 -0.64 -0.00    +0.000 A  
DOCKED: ATOM     36  C   UNL     1     139.197  67.934 226.397 -0.56 -0.00    +0.000 A  
DOCKED: ENDBRANCH  15  27
DOCKED: ENDBRANCH   3  11
DOCKED: TORSDOF 5
DOCKED: TER
DOCKED: ENDMDL
________________________________________________________________________________


    FINAL DOCKED STATE:
    ________________________


Run:   15 / 20
Time taken for this run:   0.036s

DOCKED: MODEL        15
DOCKED: USER    Run = 15
DOCKED: USER
DOCKED: USER    Estimated Free Energy of Binding    = -10.59 kcal/mol  [=(1)+(2)+(3)-(4)]
DOCKED: USER
DOCKED: USER    (1) Final Intermolecular Energy     = -12.08 kcal/mol
DOCKED: USER        vdW + Hbond + desolv Energy     = -11.81 kcal/mol
DOCKED: USER        Electrostatic Energy            =  -0.28 kcal/mol
DOCKED: USER        Moving Ligand-Fixed Receptor    = -12.08 kcal/mol
DOCKED: USER        Moving Ligand-Moving Receptor   =  +0.00 kcal/mol
DOCKED: USER    (2) Final Total Internal Energy     =  -1.03 kcal/mol
DOCKED: USER    (3) Torsional Free Energy           =  +1.49 kcal/mol
DOCKED: USER    (4) Unbound System's Energy         =  -1.03 kcal/mol
DOCKED: USER
DOCKED: USER
DOCKED: REMARK SMILES CCN[C@H]1CN(c2nc(N3CCc4ccccc4C3)nc(N3CCc4ccccc4C3)n2)CCO1
DOCKED: REMARK SMILES IDX 4 1 5 2 6 3 33 4 34 5 35 6 3 7 2 9 1 10 7 11 8 12 32 13 9 14
DOCKED: REMARK SMILES IDX 21 15 20 16 10 17 11 18 19 19 12 20 18 21 13 22 17 23 14 24
DOCKED: REMARK SMILES IDX 16 25 15 26 22 27 23 28 31 29 24 30 30 31 25 32 29 33 26 34
DOCKED: REMARK SMILES IDX 28 35 27 36
DOCKED: REMARK H PARENT 3 8
DOCKED: USER                              x       y       z     vdW  Elec       q    Type
DOCKED: USER                           _______ _______ _______ _____ _____    ______ ____
DOCKED: ROOT
DOCKED: ATOM      1  C   UNL     1     145.835  72.059 219.248 -0.01 +0.16    +0.205 C  
DOCKED: ATOM      2  C   UNL     1     144.584  71.658 220.057 -0.18 -0.00    +0.168 C  
DOCKED: ATOM      3  N   UNL     1     143.435  72.462 219.631 -0.06 +0.04    -0.334 N  
DOCKED: ATOM      4  C   UNL     1     143.211  72.581 218.188 -0.05 -0.02    +0.148 C  
DOCKED: ATOM      5  C   UNL     1     144.532  72.929 217.495 -0.09 +0.01    +0.184 C  
DOCKED: ATOM      6  O   UNL     1     145.565  72.024 217.852 -0.48 -0.27    -0.360 OA 
DOCKED: ENDROOT
DOCKED: BRANCH   1   7
DOCKED: ATOM      7  N   UNL     1     146.358  73.389 219.642 -0.58 -0.13    -0.291 NA 
DOCKED: ATOM      8  H   UNL     1     146.187  74.110 218.903 -0.51 -0.02    +0.125 HD 
DOCKED: BRANCH   7   9
DOCKED: ATOM      9  C   UNL     1     145.852  73.871 220.937 -0.58 -0.01    +0.080 C  
DOCKED: ATOM     10  C   UNL     1     146.703  73.391 222.113 -0.64 -0.00    +0.020 C  
DOCKED: ENDBRANCH   7   9
DOCKED: ENDBRANCH   1   7
DOCKED: BRANCH   3  11
DOCKED: ATOM     11  C   UNL     1     142.460  72.929 220.584 -0.16 -0.04    +0.232 A  
DOCKED: ATOM     12  N   UNL     1     142.121  74.243 220.625 -0.20 +0.05    -0.176 NA 
DOCKED: ATOM     13  N   UNL     1     141.853  72.059 221.432 -0.16 +0.02    -0.176 NA 
DOCKED: ATOM     14  C   UNL     1     141.184  74.693 221.499 -0.20 -0.04    +0.232 A  
DOCKED: ATOM     15  C   UNL     1     140.923  72.494 222.322 -0.16 -0.01    +0.232 A  
DOCKED: ATOM     16  N   UNL     1     140.591  73.813 222.348 -0.68 -0.01    -0.176 NA 
DOCKED: BRANCH  14  17
DOCKED: ATOM     17  N   UNL     1     140.803  76.085 221.501 -0.18 +0.11    -0.336 N  
DOCKED: ATOM     18  C   UNL     1     140.292  76.696 220.261 -0.13 -0.04    +0.125 C  
DOCKED: ATOM     19  C   UNL     1     141.046  76.880 222.722 -0.19 -0.06    +0.155 C  
DOCKED: ATOM     20  C   UNL     1     139.415  77.912 220.552 -0.12 -0.02    +0.057 C  
DOCKED: ATOM     21  C   UNL     1     140.935  78.368 222.491 -0.44 +0.01    -0.025 A  
DOCKED: ATOM     22  C   UNL     1     140.146  78.870 221.443 -0.22 +0.01    -0.041 A  
DOCKED: ATOM     23  C   UNL     1     141.581  79.261 223.361 -0.58 -0.00    +0.006 A  
DOCKED: ATOM     24  C   UNL     1     140.016  80.258 221.266 -0.20 -0.00    +0.004 A  
DOCKED: ATOM     25  C   UNL     1     141.460  80.641 223.172 -0.54 -0.00    +0.000 A  
DOCKED: ATOM     26  C   UNL     1     140.680  81.138 222.124 -0.36 -0.00    +0.000 A  
DOCKED: ENDBRANCH  14  17
DOCKED: BRANCH  15  27
DOCKED: ATOM     27  N   UNL     1     140.298  71.569 223.233 -0.19 +0.05    -0.336 N  
DOCKED: ATOM     28  C   UNL     1     139.304  70.613 222.710 -0.20 -0.02    +0.125 C  
DOCKED: ATOM     29  C   UNL     1     140.694  71.588 224.655 -0.32 -0.02    +0.155 C  
DOCKED: ATOM     30  C   UNL     1     138.391  70.069 223.814 -0.27 -0.01    +0.057 C  
DOCKED: ATOM     31  C   UNL     1     140.336  70.309 225.369 -0.48 +0.00    -0.025 A  
DOCKED: ATOM     32  C   UNL     1     139.211  69.572 224.965 -0.37 +0.01    -0.041 A  
DOCKED: ATOM     33  C   UNL     1     141.085  69.880 226.476 -0.56 -0.00    +0.006 A  
DOCKED: ATOM     34  C   UNL     1     138.843  68.414 225.668 -0.46 -0.00    +0.004 A  
DOCKED: ATOM     35  C   UNL     1     140.725  68.714 227.161 -0.64 -0.00    +0.000 A  
DOCKED: ATOM     36  C   UNL     1     139.604  67.984 226.759 -0.63 -0.00    +0.000 A  
DOCKED: ENDBRANCH  15  27
DOCKED: ENDBRANCH   3  11
DOCKED: TORSDOF 5
DOCKED: TER
DOCKED: ENDMDL
________________________________________________________________________________


    FINAL DOCKED STATE:
    ________________________


Run:   16 / 20
Time taken for this run:   0.036s

DOCKED: MODEL        16
DOCKED: USER    Run = 16
DOCKED: USER
DOCKED: USER    Estimated Free Energy of Binding    = -10.56 kcal/mol  [=(1)+(2)+(3)-(4)]
DOCKED: USER
DOCKED: USER    (1) Final Intermolecular Energy     = -12.05 kcal/mol
DOCKED: USER        vdW + Hbond + desolv Energy     = -11.83 kcal/mol
DOCKED: USER        Electrostatic Energy            =  -0.22 kcal/mol
DOCKED: USER        Moving Ligand-Fixed Receptor    = -12.05 kcal/mol
DOCKED: USER        Moving Ligand-Moving Receptor   =  +0.00 kcal/mol
DOCKED: USER    (2) Final Total Internal Energy     =  -1.02 kcal/mol
DOCKED: USER    (3) Torsional Free Energy           =  +1.49 kcal/mol
DOCKED: USER    (4) Unbound System's Energy         =  -1.02 kcal/mol
DOCKED: USER
DOCKED: USER
DOCKED: REMARK SMILES CCN[C@H]1CN(c2nc(N3CCc4ccccc4C3)nc(N3CCc4ccccc4C3)n2)CCO1
DOCKED: REMARK SMILES IDX 4 1 5 2 6 3 33 4 34 5 35 6 3 7 2 9 1 10 7 11 8 12 32 13 9 14
DOCKED: REMARK SMILES IDX 21 15 20 16 10 17 11 18 19 19 12 20 18 21 13 22 17 23 14 24
DOCKED: REMARK SMILES IDX 16 25 15 26 22 27 23 28 31 29 24 30 30 31 25 32 29 33 26 34
DOCKED: REMARK SMILES IDX 28 35 27 36
DOCKED: REMARK H PARENT 3 8
DOCKED: USER                              x       y       z     vdW  Elec       q    Type
DOCKED: USER                           _______ _______ _______ _____ _____    ______ ____
DOCKED: ROOT
DOCKED: ATOM      1  C   UNL     1     145.596  71.860 218.917 -0.10 +0.14    +0.205 C  
DOCKED: ATOM      2  C   UNL     1     144.343  71.555 219.766 -0.20 +0.00    +0.168 C  
DOCKED: ATOM      3  N   UNL     1     143.266  72.485 219.414 -0.04 +0.04    -0.334 N  
DOCKED: ATOM      4  C   UNL     1     142.998  72.677 217.987 -0.04 -0.02    +0.148 C  
DOCKED: ATOM      5  C   UNL     1     144.320  72.918 217.250 -0.07 -0.00    +0.184 C  
DOCKED: ATOM      6  O   UNL     1     145.270  71.902 217.534 -0.21 -0.17    -0.360 OA 
DOCKED: ENDROOT
DOCKED: BRANCH   1   7
DOCKED: ATOM      7  N   UNL     1     146.265  73.116 219.332 -0.67 -0.20    -0.291 NA 
DOCKED: ATOM      8  H   UNL     1     146.313  73.809 218.549 -0.50 +0.03    +0.125 HD 
DOCKED: BRANCH   7   9
DOCKED: ATOM      9  C   UNL     1     145.670  73.746 220.521 -0.57 -0.01    +0.080 C  
DOCKED: ATOM     10  C   UNL     1     146.419  73.392 221.807 -0.69 -0.00    +0.020 C  
DOCKED: ENDBRANCH   7   9
DOCKED: ENDBRANCH   1   7
DOCKED: BRANCH   3  11
DOCKED: ATOM     11  C   UNL     1     142.380  73.012 220.422 -0.15 -0.04    +0.232 A  
DOCKED: ATOM     12  N   UNL     1     142.134  74.345 220.485 -0.19 +0.05    -0.176 NA 
DOCKED: ATOM     13  N   UNL     1     141.764  72.180 221.302 -0.17 +0.02    -0.176 NA 
DOCKED: ATOM     14  C   UNL     1     141.281  74.853 221.412 -0.20 -0.05    +0.232 A  
DOCKED: ATOM     15  C   UNL     1     140.918  72.672 222.245 -0.15 -0.01    +0.232 A  
DOCKED: ATOM     16  N   UNL     1     140.679  74.010 222.292 -0.66 -0.02    -0.176 NA 
DOCKED: BRANCH  14  17
DOCKED: ATOM     17  N   UNL     1     140.997  76.267 221.438 -0.17 +0.12    -0.336 N  
DOCKED: ATOM     18  C   UNL     1     140.757  76.979 220.170 -0.16 -0.05    +0.125 C  
DOCKED: ATOM     19  C   UNL     1     141.068  76.976 222.732 -0.20 -0.06    +0.155 C  
DOCKED: ATOM     20  C   UNL     1     139.922  78.241 220.383 -0.13 -0.02    +0.057 C  
DOCKED: ATOM     21  C   UNL     1     141.096  78.478 222.583 -0.46 +0.01    -0.025 A  
DOCKED: ATOM     22  C   UNL     1     140.542  79.093 221.448 -0.25 +0.01    -0.041 A  
DOCKED: ATOM     23  C   UNL     1     141.632  79.273 223.610 -0.60 -0.00    +0.006 A  
DOCKED: ATOM     24  C   UNL     1     140.536  80.495 221.342 -0.26 -0.00    +0.004 A  
DOCKED: ATOM     25  C   UNL     1     141.637  80.666 223.493 -0.58 -0.00    +0.000 A  
DOCKED: ATOM     26  C   UNL     1     141.091  81.276 222.360 -0.43 -0.00    +0.000 A  
DOCKED: ENDBRANCH  14  17
DOCKED: BRANCH  15  27
DOCKED: ATOM     27  N   UNL     1     140.284  71.786 223.188 -0.20 +0.05    -0.336 N  
DOCKED: ATOM     28  C   UNL     1     139.306  70.799 222.694 -0.20 -0.02    +0.125 C  
DOCKED: ATOM     29  C   UNL     1     140.656  71.876 224.613 -0.17 -0.02    +0.155 C  
DOCKED: ATOM     30  C   UNL     1     138.378  70.301 223.807 -0.27 -0.01    +0.057 C  
DOCKED: ATOM     31  C   UNL     1     140.294  70.629 225.381 -0.51 +0.00    -0.025 A  
DOCKED: ATOM     32  C   UNL     1     139.181  69.866 224.994 -0.37 +0.01    -0.041 A  
DOCKED: ATOM     33  C   UNL     1     141.028  70.259 226.520 -0.58 -0.00    +0.006 A  
DOCKED: ATOM     34  C   UNL     1     138.809  68.739 225.746 -0.45 -0.00    +0.004 A  
DOCKED: ATOM     35  C   UNL     1     140.664  69.124 227.253 -0.62 -0.00    +0.000 A  
DOCKED: ATOM     36  C   UNL     1     139.555  68.367 226.868 -0.60 -0.00    +0.000 A  
DOCKED: ENDBRANCH  15  27
DOCKED: ENDBRANCH   3  11
DOCKED: TORSDOF 5
DOCKED: TER
DOCKED: ENDMDL
________________________________________________________________________________


    FINAL DOCKED STATE:
    ________________________


Run:   17 / 20
Time taken for this run:   0.036s

DOCKED: MODEL        17
DOCKED: USER    Run = 17
DOCKED: USER
DOCKED: USER    Estimated Free Energy of Binding    = -10.64 kcal/mol  [=(1)+(2)+(3)-(4)]
DOCKED: USER
DOCKED: USER    (1) Final Intermolecular Energy     = -12.13 kcal/mol
DOCKED: USER        vdW + Hbond + desolv Energy     = -11.88 kcal/mol
DOCKED: USER        Electrostatic Energy            =  -0.25 kcal/mol
DOCKED: USER        Moving Ligand-Fixed Receptor    = -12.13 kcal/mol
DOCKED: USER        Moving Ligand-Moving Receptor   =  +0.00 kcal/mol
DOCKED: USER    (2) Final Total Internal Energy     =  -1.02 kcal/mol
DOCKED: USER    (3) Torsional Free Energy           =  +1.49 kcal/mol
DOCKED: USER    (4) Unbound System's Energy         =  -1.02 kcal/mol
DOCKED: USER
DOCKED: USER
DOCKED: REMARK SMILES CCN[C@H]1CN(c2nc(N3CCc4ccccc4C3)nc(N3CCc4ccccc4C3)n2)CCO1
DOCKED: REMARK SMILES IDX 4 1 5 2 6 3 33 4 34 5 35 6 3 7 2 9 1 10 7 11 8 12 32 13 9 14
DOCKED: REMARK SMILES IDX 21 15 20 16 10 17 11 18 19 19 12 20 18 21 13 22 17 23 14 24
DOCKED: REMARK SMILES IDX 16 25 15 26 22 27 23 28 31 29 24 30 30 31 25 32 29 33 26 34
DOCKED: REMARK SMILES IDX 28 35 27 36
DOCKED: REMARK H PARENT 3 8
DOCKED: USER                              x       y       z     vdW  Elec       q    Type
DOCKED: USER                           _______ _______ _______ _____ _____    ______ ____
DOCKED: ROOT
DOCKED: ATOM      1  C   UNL     1     145.650  72.040 219.082 -0.08 +0.14    +0.205 C  
DOCKED: ATOM      2  C   UNL     1     144.331  71.701 219.807 -0.21 -0.00    +0.168 C  
DOCKED: ATOM      3  N   UNL     1     143.308  72.695 219.470 -0.05 +0.05    -0.334 N  
DOCKED: ATOM      4  C   UNL     1     143.151  73.027 218.052 -0.05 -0.02    +0.148 C  
DOCKED: ATOM      5  C   UNL     1     144.529  73.289 217.436 -0.10 -0.01    +0.184 C  
DOCKED: ATOM      6  O   UNL     1     145.427  72.221 217.689 -0.38 -0.21    -0.360 OA 
DOCKED: ENDROOT
DOCKED: BRANCH   1   7
DOCKED: ATOM      7  N   UNL     1     146.321  73.229 219.659 -0.62 -0.15    -0.291 NA 
DOCKED: ATOM      8  H   UNL     1     146.342  74.030 218.986 -0.51 -0.00    +0.125 HD 
DOCKED: BRANCH   7   9
DOCKED: ATOM      9  C   UNL     1     145.754  73.671 220.943 -0.61 -0.01    +0.080 C  
DOCKED: ATOM     10  C   UNL     1     146.686  73.386 222.122 -0.64 -0.00    +0.020 C  
DOCKED: ENDBRANCH   7   9
DOCKED: ENDBRANCH   1   7
DOCKED: BRANCH   3  11
DOCKED: ATOM     11  C   UNL     1     142.365  73.156 220.458 -0.16 -0.04    +0.232 A  
DOCKED: ATOM     12  N   UNL     1     142.058  74.475 220.545 -0.19 +0.05    -0.176 NA 
DOCKED: ATOM     13  N   UNL     1     141.756  72.275 221.295 -0.17 +0.02    -0.176 NA 
DOCKED: ATOM     14  C   UNL     1     141.152  74.921 221.453 -0.22 -0.05    +0.232 A  
DOCKED: ATOM     15  C   UNL     1     140.857  72.705 222.219 -0.17 -0.01    +0.232 A  
DOCKED: ATOM     16  N   UNL     1     140.558  74.030 222.290 -0.70 -0.01    -0.176 NA 
DOCKED: BRANCH  14  17
DOCKED: ATOM     17  N   UNL     1     140.804  76.320 221.504 -0.17 +0.11    -0.336 N  
DOCKED: ATOM     18  C   UNL     1     140.310  76.986 220.285 -0.13 -0.04    +0.125 C  
DOCKED: ATOM     19  C   UNL     1     141.063  77.066 222.752 -0.21 -0.06    +0.155 C  
DOCKED: ATOM     20  C   UNL     1     139.461  78.212 220.619 -0.12 -0.02    +0.057 C  
DOCKED: ATOM     21  C   UNL     1     140.988  78.563 222.575 -0.44 +0.01    -0.025 A  
DOCKED: ATOM     22  C   UNL     1     140.213  79.121 221.543 -0.23 +0.01    -0.041 A  
DOCKED: ATOM     23  C   UNL     1     141.653  79.409 223.477 -0.59 -0.00    +0.006 A  
DOCKED: ATOM     24  C   UNL     1     140.116  80.517 221.416 -0.23 -0.00    +0.004 A  
DOCKED: ATOM     25  C   UNL     1     141.565  80.797 223.336 -0.56 -0.00    +0.000 A  
DOCKED: ATOM     26  C   UNL     1     140.799  81.350 222.306 -0.39 -0.00    +0.000 A  
DOCKED: ENDBRANCH  14  17
DOCKED: BRANCH  15  27
DOCKED: ATOM     27  N   UNL     1     140.231  71.768 223.116 -0.19 +0.05    -0.336 N  
DOCKED: ATOM     28  C   UNL     1     139.178  70.876 222.597 -0.20 -0.02    +0.125 C  
DOCKED: ATOM     29  C   UNL     1     140.685  71.712 224.520 -0.25 -0.02    +0.155 C  
DOCKED: ATOM     30  C   UNL     1     138.289  70.322 223.715 -0.26 -0.01    +0.057 C  
DOCKED: ATOM     31  C   UNL     1     140.302  70.419 225.196 -0.47 +0.00    -0.025 A  
DOCKED: ATOM     32  C   UNL     1     139.132  69.745 224.810 -0.35 +0.01    -0.041 A  
DOCKED: ATOM     33  C   UNL     1     141.076  69.914 226.253 -0.55 -0.00    +0.006 A  
DOCKED: ATOM     34  C   UNL     1     138.745  68.574 225.481 -0.43 -0.00    +0.004 A  
DOCKED: ATOM     35  C   UNL     1     140.696  68.736 226.904 -0.63 -0.00    +0.000 A  
DOCKED: ATOM     36  C   UNL     1     139.531  68.069 226.521 -0.62 -0.00    +0.000 A  
DOCKED: ENDBRANCH  15  27
DOCKED: ENDBRANCH   3  11
DOCKED: TORSDOF 5
DOCKED: TER
DOCKED: ENDMDL
________________________________________________________________________________


    FINAL DOCKED STATE:
    ________________________


Run:   18 / 20
Time taken for this run:   0.036s

DOCKED: MODEL        18
DOCKED: USER    Run = 18
DOCKED: USER
DOCKED: USER    Estimated Free Energy of Binding    = -10.09 kcal/mol  [=(1)+(2)+(3)-(4)]
DOCKED: USER
DOCKED: USER    (1) Final Intermolecular Energy     = -11.58 kcal/mol
DOCKED: USER        vdW + Hbond + desolv Energy     = -11.33 kcal/mol
DOCKED: USER        Electrostatic Energy            =  -0.25 kcal/mol
DOCKED: USER        Moving Ligand-Fixed Receptor    = -11.58 kcal/mol
DOCKED: USER        Moving Ligand-Moving Receptor   =  +0.00 kcal/mol
DOCKED: USER    (2) Final Total Internal Energy     =  -1.18 kcal/mol
DOCKED: USER    (3) Torsional Free Energy           =  +1.49 kcal/mol
DOCKED: USER    (4) Unbound System's Energy         =  -1.18 kcal/mol
DOCKED: USER
DOCKED: USER
DOCKED: REMARK SMILES CCN[C@H]1CN(c2nc(N3CCc4ccccc4C3)nc(N3CCc4ccccc4C3)n2)CCO1
DOCKED: REMARK SMILES IDX 4 1 5 2 6 3 33 4 34 5 35 6 3 7 2 9 1 10 7 11 8 12 32 13 9 14
DOCKED: REMARK SMILES IDX 21 15 20 16 10 17 11 18 19 19 12 20 18 21 13 22 17 23 14 24
DOCKED: REMARK SMILES IDX 16 25 15 26 22 27 23 28 31 29 24 30 30 31 25 32 29 33 26 34
DOCKED: REMARK SMILES IDX 28 35 27 36
DOCKED: REMARK H PARENT 3 8
DOCKED: USER                              x       y       z     vdW  Elec       q    Type
DOCKED: USER                           _______ _______ _______ _____ _____    ______ ____
DOCKED: ROOT
DOCKED: ATOM      1  C   UNL     1     145.266  71.811 218.488 -0.14 +0.11    +0.205 C  
DOCKED: ATOM      2  C   UNL     1     143.959  71.599 219.280 -0.15 -0.00    +0.168 C  
DOCKED: ATOM      3  N   UNL     1     143.053  72.730 219.059 -0.02 +0.05    -0.334 N  
DOCKED: ATOM      4  C   UNL     1     142.858  73.159 217.672 -0.03 -0.03    +0.148 C  
DOCKED: ATOM      5  C   UNL     1     144.220  73.282 216.981 -0.06 -0.02    +0.184 C  
DOCKED: ATOM      6  O   UNL     1     144.987  72.097 217.123 -0.08 -0.10    -0.360 OA 
DOCKED: ENDROOT
DOCKED: BRANCH   1   7
DOCKED: ATOM      7  N   UNL     1     146.116  72.873 219.078 -0.67 -0.25    -0.291 NA 
DOCKED: ATOM      8  H   UNL     1     146.005  73.785 218.576 -0.44 +0.02    +0.125 HD 
DOCKED: BRANCH   7   9
DOCKED: ATOM      9  C   UNL     1     145.911  73.070 220.521 -0.56 +0.01    +0.080 C  
DOCKED: ATOM     10  C   UNL     1     145.280  74.426 220.843 -0.39 -0.01    +0.020 C  
DOCKED: ENDBRANCH   7   9
DOCKED: ENDBRANCH   1   7
DOCKED: BRANCH   3  11
DOCKED: ATOM     11  C   UNL     1     142.236  73.248 220.127 -0.13 -0.04    +0.232 A  
DOCKED: ATOM     12  N   UNL     1     142.081  74.588 220.279 -0.17 +0.05    -0.176 NA 
DOCKED: ATOM     13  N   UNL     1     141.595  72.404 220.977 -0.15 +0.02    -0.176 NA 
DOCKED: ATOM     14  C   UNL     1     141.293  75.091 221.265 -0.22 -0.06    +0.232 A  
DOCKED: ATOM     15  C   UNL     1     140.813  72.890 221.977 -0.21 -0.02    +0.232 A  
DOCKED: ATOM     16  N   UNL     1     140.665  74.235 222.113 -0.69 -0.00    -0.176 NA 
DOCKED: BRANCH  14  17
DOCKED: ATOM     17  N   UNL     1     141.103  76.516 221.386 -0.16 +0.14    -0.336 N  
DOCKED: ATOM     18  C   UNL     1     141.061  77.345 220.168 -0.19 -0.05    +0.125 C  
DOCKED: ATOM     19  C   UNL     1     141.072  77.110 222.738 -0.24 -0.06    +0.155 C  
DOCKED: ATOM     20  C   UNL     1     140.294  78.646 220.400 -0.16 -0.02    +0.057 C  
DOCKED: ATOM     21  C   UNL     1     141.218  78.612 222.729 -0.48 +0.01    -0.025 A  
DOCKED: ATOM     22  C   UNL     1     140.842  79.359 221.599 -0.30 +0.01    -0.041 A  
DOCKED: ATOM     23  C   UNL     1     141.684  79.277 223.874 -0.61 -0.00    +0.006 A  
DOCKED: ATOM     24  C   UNL     1     140.943  80.760 221.619 -0.34 -0.00    +0.004 A  
DOCKED: ATOM     25  C   UNL     1     141.796  80.671 223.884 -0.57 -0.00    +0.000 A  
DOCKED: ATOM     26  C   UNL     1     141.427  81.411 222.757 -0.50 -0.00    +0.000 A  
DOCKED: ENDBRANCH  14  17
DOCKED: BRANCH  15  27
DOCKED: ATOM     27  N   UNL     1     140.152  71.989 222.887 -0.19 +0.05    -0.336 N  
DOCKED: ATOM     28  C   UNL     1     139.009  71.195 222.402 -0.18 -0.02    +0.125 C  
DOCKED: ATOM     29  C   UNL     1     140.660  71.869 224.268 -0.17 -0.02    +0.155 C  
DOCKED: ATOM     30  C   UNL     1     138.126  70.694 223.549 -0.24 -0.01    +0.057 C  
DOCKED: ATOM     31  C   UNL     1     140.203  70.599 224.940 -0.46 +0.00    -0.025 A  
DOCKED: ATOM     32  C   UNL     1     138.966  70.030 224.596 -0.34 +0.01    -0.041 A  
DOCKED: ATOM     33  C   UNL     1     140.979  70.012 225.953 -0.53 -0.00    +0.006 A  
DOCKED: ATOM     34  C   UNL     1     138.514  68.881 225.265 -0.40 -0.00    +0.004 A  
DOCKED: ATOM     35  C   UNL     1     140.532  68.857 226.602 -0.59 -0.00    +0.000 A  
DOCKED: ATOM     36  C   UNL     1     139.301  68.293 226.260 -0.55 -0.00    +0.000 A  
DOCKED: ENDBRANCH  15  27
DOCKED: ENDBRANCH   3  11
DOCKED: TORSDOF 5
DOCKED: TER
DOCKED: ENDMDL
________________________________________________________________________________


    FINAL DOCKED STATE:
    ________________________


Run:   19 / 20
Time taken for this run:   0.036s

DOCKED: MODEL        19
DOCKED: USER    Run = 19
DOCKED: USER
DOCKED: USER    Estimated Free Energy of Binding    = -10.67 kcal/mol  [=(1)+(2)+(3)-(4)]
DOCKED: USER
DOCKED: USER    (1) Final Intermolecular Energy     = -12.16 kcal/mol
DOCKED: USER        vdW + Hbond + desolv Energy     = -11.88 kcal/mol
DOCKED: USER        Electrostatic Energy            =  -0.28 kcal/mol
DOCKED: USER        Moving Ligand-Fixed Receptor    = -12.16 kcal/mol
DOCKED: USER        Moving Ligand-Moving Receptor   =  +0.00 kcal/mol
DOCKED: USER    (2) Final Total Internal Energy     =  -1.02 kcal/mol
DOCKED: USER    (3) Torsional Free Energy           =  +1.49 kcal/mol
DOCKED: USER    (4) Unbound System's Energy         =  -1.02 kcal/mol
DOCKED: USER
DOCKED: USER
DOCKED: REMARK SMILES CCN[C@H]1CN(c2nc(N3CCc4ccccc4C3)nc(N3CCc4ccccc4C3)n2)CCO1
DOCKED: REMARK SMILES IDX 4 1 5 2 6 3 33 4 34 5 35 6 3 7 2 9 1 10 7 11 8 12 32 13 9 14
DOCKED: REMARK SMILES IDX 21 15 20 16 10 17 11 18 19 19 12 20 18 21 13 22 17 23 14 24
DOCKED: REMARK SMILES IDX 16 25 15 26 22 27 23 28 31 29 24 30 30 31 25 32 29 33 26 34
DOCKED: REMARK SMILES IDX 28 35 27 36
DOCKED: REMARK H PARENT 3 8
DOCKED: USER                              x       y       z     vdW  Elec       q    Type
DOCKED: USER                           _______ _______ _______ _____ _____    ______ ____
DOCKED: ROOT
DOCKED: ATOM      1  C   UNL     1     145.753  72.137 219.274 -0.09 +0.14    +0.205 C  
DOCKED: ATOM      2  C   UNL     1     144.423  71.799 219.981 -0.23 -0.01    +0.168 C  
DOCKED: ATOM      3  N   UNL     1     143.391  72.762 219.588 -0.06 +0.05    -0.334 N  
DOCKED: ATOM      4  C   UNL     1     143.261  73.045 218.156 -0.06 -0.02    +0.148 C  
DOCKED: ATOM      5  C   UNL     1     144.649  73.312 217.563 -0.11 -0.00    +0.184 C  
DOCKED: ATOM      6  O   UNL     1     145.559  72.268 217.872 -0.53 -0.26    -0.360 OA 
DOCKED: ENDROOT
DOCKED: BRANCH   1   7
DOCKED: ATOM      7  N   UNL     1     146.390  73.357 219.827 -0.52 -0.12    -0.291 NA 
DOCKED: ATOM      8  H   UNL     1     146.376  74.148 219.141 -0.53 -0.02    +0.125 HD 
DOCKED: BRANCH   7   9
DOCKED: ATOM      9  C   UNL     1     145.824  73.798 221.111 -0.59 -0.01    +0.080 C  
DOCKED: ATOM     10  C   UNL     1     146.692  73.392 222.303 -0.60 -0.00    +0.020 C  
DOCKED: ENDBRANCH   7   9
DOCKED: ENDBRANCH   1   7
DOCKED: BRANCH   3  11
DOCKED: ATOM     11  C   UNL     1     142.418  73.239 220.539 -0.17 -0.04    +0.232 A  
DOCKED: ATOM     12  N   UNL     1     142.130  74.563 220.614 -0.20 +0.05    -0.176 NA 
DOCKED: ATOM     13  N   UNL     1     141.764  72.368 221.351 -0.17 +0.02    -0.176 NA 
DOCKED: ATOM     14  C   UNL     1     141.196  75.024 221.487 -0.22 -0.05    +0.232 A  
DOCKED: ATOM     15  C   UNL     1     140.836  72.813 222.239 -0.15 -0.01    +0.232 A  
DOCKED: ATOM     16  N   UNL     1     140.556  74.143 222.300 -0.68 -0.02    -0.176 NA 
DOCKED: BRANCH  14  17
DOCKED: ATOM     17  N   UNL     1     140.869  76.429 221.524 -0.18 +0.12    -0.336 N  
DOCKED: ATOM     18  C   UNL     1     140.465  77.110 220.281 -0.15 -0.04    +0.125 C  
DOCKED: ATOM     19  C   UNL     1     141.061  77.163 222.791 -0.21 -0.06    +0.155 C  
DOCKED: ATOM     20  C   UNL     1     139.618  78.349 220.569 -0.12 -0.02    +0.057 C  
DOCKED: ATOM     21  C   UNL     1     141.023  78.662 222.619 -0.45 +0.01    -0.025 A  
DOCKED: ATOM     22  C   UNL     1     140.325  79.239 221.545 -0.23 +0.01    -0.041 A  
DOCKED: ATOM     23  C   UNL     1     141.644  79.491 223.567 -0.59 -0.00    +0.006 A  
DOCKED: ATOM     24  C   UNL     1     140.260  80.637 221.420 -0.24 -0.00    +0.004 A  
DOCKED: ATOM     25  C   UNL     1     141.588  80.882 223.430 -0.57 -0.00    +0.000 A  
DOCKED: ATOM     26  C   UNL     1     140.899  81.453 222.357 -0.41 -0.00    +0.000 A  
DOCKED: ENDBRANCH  14  17
DOCKED: BRANCH  15  27
DOCKED: ATOM     27  N   UNL     1     140.161  71.887 223.112 -0.19 +0.05    -0.336 N  
DOCKED: ATOM     28  C   UNL     1     138.982  71.160 222.606 -0.20 -0.03    +0.125 C  
DOCKED: ATOM     29  C   UNL     1     140.688  71.674 224.473 -0.26 -0.02    +0.155 C  
DOCKED: ATOM     30  C   UNL     1     138.103  70.626 223.742 -0.25 -0.01    +0.057 C  
DOCKED: ATOM     31  C   UNL     1     140.199  70.384 225.085 -0.45 +0.00    -0.025 A  
DOCKED: ATOM     32  C   UNL     1     138.938  69.877 224.734 -0.35 +0.01    -0.041 A  
DOCKED: ATOM     33  C   UNL     1     140.972  69.717 226.048 -0.52 -0.00    +0.006 A  
DOCKED: ATOM     34  C   UNL     1     138.458  68.709 225.348 -0.40 -0.00    +0.004 A  
DOCKED: ATOM     35  C   UNL     1     140.497  68.543 226.642 -0.62 -0.00    +0.000 A  
DOCKED: ATOM     36  C   UNL     1     139.241  68.042 226.295 -0.56 -0.00    +0.000 A  
DOCKED: ENDBRANCH  15  27
DOCKED: ENDBRANCH   3  11
DOCKED: TORSDOF 5
DOCKED: TER
DOCKED: ENDMDL
________________________________________________________________________________


    FINAL DOCKED STATE:
    ________________________


Run:   20 / 20
Time taken for this run:   0.036s

DOCKED: MODEL        20
DOCKED: USER    Run = 20
DOCKED: USER
DOCKED: USER    Estimated Free Energy of Binding    = -10.53 kcal/mol  [=(1)+(2)+(3)-(4)]
DOCKED: USER
DOCKED: USER    (1) Final Intermolecular Energy     = -12.02 kcal/mol
DOCKED: USER        vdW + Hbond + desolv Energy     = -11.78 kcal/mol
DOCKED: USER        Electrostatic Energy            =  -0.24 kcal/mol
DOCKED: USER        Moving Ligand-Fixed Receptor    = -12.02 kcal/mol
DOCKED: USER        Moving Ligand-Moving Receptor   =  +0.00 kcal/mol
DOCKED: USER    (2) Final Total Internal Energy     =  -1.00 kcal/mol
DOCKED: USER    (3) Torsional Free Energy           =  +1.49 kcal/mol
DOCKED: USER    (4) Unbound System's Energy         =  -1.00 kcal/mol
DOCKED: USER
DOCKED: USER
DOCKED: REMARK SMILES CCN[C@H]1CN(c2nc(N3CCc4ccccc4C3)nc(N3CCc4ccccc4C3)n2)CCO1
DOCKED: REMARK SMILES IDX 4 1 5 2 6 3 33 4 34 5 35 6 3 7 2 9 1 10 7 11 8 12 32 13 9 14
DOCKED: REMARK SMILES IDX 21 15 20 16 10 17 11 18 19 19 12 20 18 21 13 22 17 23 14 24
DOCKED: REMARK SMILES IDX 16 25 15 26 22 27 23 28 31 29 24 30 30 31 25 32 29 33 26 34
DOCKED: REMARK SMILES IDX 28 35 27 36
DOCKED: REMARK H PARENT 3 8
DOCKED: USER                              x       y       z     vdW  Elec       q    Type
DOCKED: USER                           _______ _______ _______ _____ _____    ______ ____
DOCKED: ROOT
DOCKED: ATOM      1  C   UNL     1     145.505  72.065 218.987 -0.16 +0.12    +0.205 C  
DOCKED: ATOM      2  C   UNL     1     144.113  71.760 219.578 -0.19 -0.00    +0.168 C  
DOCKED: ATOM      3  N   UNL     1     143.235  72.921 219.408 -0.04 +0.05    -0.334 N  
DOCKED: ATOM      4  C   UNL     1     143.208  73.540 218.080 -0.07 -0.03    +0.148 C  
DOCKED: ATOM      5  C   UNL     1     144.643  73.742 217.584 -0.10 -0.03    +0.184 C  
DOCKED: ATOM      6  O   UNL     1     145.394  72.539 217.652 -0.37 -0.18    -0.360 OA 
DOCKED: ENDROOT
DOCKED: BRANCH   1   7
DOCKED: ATOM      7  N   UNL     1     146.272  73.024 219.818 -0.59 -0.15    -0.291 NA 
DOCKED: ATOM      8  H   UNL     1     146.465  73.916 219.304 -0.43 +0.02    +0.125 HD 
DOCKED: BRANCH   7   9
DOCKED: ATOM      9  C   UNL     1     145.648  73.322 221.117 -0.60 -0.01    +0.080 C  
DOCKED: ATOM     10  C   UNL     1     146.670  73.393 222.253 -0.60 -0.00    +0.020 C  
DOCKED: ENDBRANCH   7   9
DOCKED: ENDBRANCH   1   7
DOCKED: BRANCH   3  11
DOCKED: ATOM     11  C   UNL     1     142.291  73.296 220.431 -0.16 -0.04    +0.232 A  
DOCKED: ATOM     12  N   UNL     1     141.940  74.598 220.591 -0.20 +0.05    -0.176 NA 
DOCKED: ATOM     13  N   UNL     1     141.726  72.352 221.227 -0.17 +0.02    -0.176 NA 
DOCKED: ATOM     14  C   UNL     1     141.032  74.963 221.533 -0.24 -0.05    +0.232 A  
DOCKED: ATOM     15  C   UNL     1     140.826  72.701 222.184 -0.18 -0.01    +0.232 A  
DOCKED: ATOM     16  N   UNL     1     140.482  74.009 222.329 -0.72 -0.01    -0.176 NA 
DOCKED: BRANCH  14  17
DOCKED: ATOM     17  N   UNL     1     140.637  76.344 221.662 -0.18 +0.10    -0.336 N  
DOCKED: ATOM     18  C   UNL     1     139.916  76.996 220.554 -0.13 -0.04    +0.125 C  
DOCKED: ATOM     19  C   UNL     1     141.071  77.092 222.860 -0.12 -0.06    +0.155 C  
DOCKED: ATOM     20  C   UNL     1     139.082  78.180 221.044 -0.14 -0.01    +0.057 C  
DOCKED: ATOM     21  C   UNL     1     140.901  78.585 222.719 -0.45 +0.01    -0.025 A  
DOCKED: ATOM     22  C   UNL     1     139.940  79.115 221.842 -0.24 +0.01    -0.041 A  
DOCKED: ATOM     23  C   UNL     1     141.672  79.455 223.508 -0.59 -0.00    +0.006 A  
DOCKED: ATOM     24  C   UNL     1     139.762  80.506 221.753 -0.23 -0.00    +0.004 A  
DOCKED: ATOM     25  C   UNL     1     141.501  80.839 223.405 -0.56 -0.00    +0.000 A  
DOCKED: ATOM     26  C   UNL     1     140.548  81.363 222.527 -0.38 -0.00    +0.000 A  
DOCKED: ENDBRANCH  14  17
DOCKED: BRANCH  15  27
DOCKED: ATOM     27  N   UNL     1     140.246  71.696 223.039 -0.19 +0.05    -0.336 N  
DOCKED: ATOM     28  C   UNL     1     139.428  70.629 222.434 -0.18 -0.02    +0.125 C  
DOCKED: ATOM     29  C   UNL     1     140.512  71.753 224.489 -0.25 -0.02    +0.155 C  
DOCKED: ATOM     30  C   UNL     1     138.500  69.964 223.455 -0.24 -0.01    +0.057 C  
DOCKED: ATOM     31  C   UNL     1     140.257  70.432 225.172 -0.47 +0.00    -0.025 A  
DOCKED: ATOM     32  C   UNL     1     139.272  69.564 224.674 -0.34 +0.01    -0.041 A  
DOCKED: ATOM     33  C   UNL     1     140.956  70.090 226.341 -0.56 -0.00    +0.006 A  
DOCKED: ATOM     34  C   UNL     1     138.993  68.362 225.345 -0.44 -0.00    +0.004 A  
DOCKED: ATOM     35  C   UNL     1     140.687  68.883 226.994 -0.62 -0.00    +0.000 A  
DOCKED: ATOM     36  C   UNL     1     139.706  68.022 226.498 -0.64 -0.00    +0.000 A  
DOCKED: ENDBRANCH  15  27
DOCKED: ENDBRANCH   3  11
DOCKED: TORSDOF 5
DOCKED: TER
DOCKED: ENDMDL
________________________________________________________________________________


    CLUSTERING HISTOGRAM
    ____________________


________________________________________________________________________________
     |           |     |           |     |
Clus | Lowest    | Run | Mean      | Num | Histogram
-ter | Binding   |     | Binding   | in  |
Rank | Energy    |     | Energy    | Clus|    5    10   15   20   25   30   35
_____|___________|_____|___________|_____|____:____|____:____|____:____|____:___
   1 |    -10.67 |  19 |    -10.31 |  20 |####################
_____|___________|_____|___________|_____|______________________________________


    RMSD TABLE
    __________


_______________________________________________________________________
     |      |      |           |         |                 |
Rank | Sub- | Run  | Binding   | Cluster | Reference       | Grep
     | Rank |      | Energy    | RMSD    | RMSD            | Pattern
_____|______|______|___________|_________|_________________|___________
   1      1     19      -10.67      0.00    269.81           RANKING
   1      2     13      -10.67      0.33    269.78           RANKING
   1      3      5      -10.66      0.24    269.80           RANKING
   1      4     11      -10.65      0.26    269.78           RANKING
   1      5     17      -10.64      0.21    269.76           RANKING
   1      6      1      -10.63      0.20    269.78           RANKING
   1      7      3      -10.61      0.26    269.83           RANKING
   1      8     15      -10.59      0.40    269.78           RANKING
   1      9     16      -10.56      0.43    269.76           RANKING
   1     10     20      -10.53      0.42    269.78           RANKING
   1     11      6      -10.15      0.53    269.65           RANKING
   1     12     10      -10.15      0.54    269.67           RANKING
   1     13     12      -10.13      1.19    269.89           RANKING
   1     14      2      -10.12      1.22    269.83           RANKING
   1     15      4      -10.10      1.22    269.83           RANKING
   1     16     18      -10.09      0.56    269.59           RANKING
   1     17      9      -10.01      0.84    269.70           RANKING
   1     18      8      -10.01      0.81    269.71           RANKING
   1     19      7      -10.00      1.08    269.66           RANKING
   1     20     14       -9.27      1.01    269.46           RANKING

Run time 0.670 sec
Idle time 0.000 sec
