AutoDock-GPU version: v1.6

**********************************************************
**    AutoDock-GPU AUTODOCKTOOLS-COMPATIBLE DLG FILE    **
**********************************************************


    DOCKING PARAMETERS
    ________________________


Ligand file:                               /home/a/REINVENT4/ReinventStudies/scoringData/graph-dock-34dfml/graph-DockGPU/node-autodockgpu/inputs/DXBLBRQFZRPGTN-DALTWKCFNA-O.pdbqt
Grid fld file:                             /home/a/REINVENT4/ReinventStudies/mols/Rad51/maps/rad51_receptor.maps.fld

Random seed:                               42
Number of runs:                            20
Number of energy evaluations:              1132076
Number of generations:                     42000
Size of population:                        150
Rate of crossover:                         80.000000%
Tournament selection probability limit:    60.000000%
Rate of mutation:                          2.000000%
Maximal allowed delta movement:            +/- 6.000000A
Maximal allowed delta angle:               +/- 90.000000

Rate of local search:                      100.000000%
Maximal number of local search iterations: 300
Rho lower bound:                           0.010000
Spread of local search delta movement:     2.000000A
Spread of local search delta angle:        74.999999
Limit of consecutive successes/failures:   4

Handle symmetry during clustering:         YES
RMSD tolerance:                            2.000000A

Program call in command line was:          /home/a/REINVENT4/ReinventStudies/adgpu-v1.6_linux_x64_cuda12_128wi --filelist batch.txt --heuristics 1 --nrun 20 --psize 150 --lsit 300 --seed 42 --heurmax 12000000 


    GRID PARAMETERS
    ________________________


Receptor name:                             rad51_receptor
Number of grid points (x, y, z):           53, 53, 53
Grid center (x, y, z):                     139.950000, 75.640000, 221.970000A
Grid size (x, y, z):                       19.500000, 19.500000, 19.500000A
Grid spacing:                              0.375000A


    LIGAND PARAMETERS
    ________________________


Ligand name:                               /home/a/REINVENT4/ReinventStudies/scoringData/graph-dock-34dfml/graph-DockGPU/node-autodockgpu/inputs/DXBLBRQFZRPGTN-DALTWKCFNA-O
Number of atoms:                           37
Number of rotatable bonds:                 5
Number of atom types:                      6


    DUMMY DATA (only for ADT-compatibility)
    ________________________


DPF> outlev 1
DPF> ga_run 20
DPF> fld /home/a/REINVENT4/ReinventStudies/mols/Rad51/maps/rad51_receptor.maps.fld
DPF> move /home/a/REINVENT4/ReinventStudies/scoringData/graph-dock-34dfml/graph-DockGPU/node-autodockgpu/inputs/DXBLBRQFZRPGTN-DALTWKCFNA-O.pdbqt


    COUNTER STATES
    ________________________


Number of energy evaluations performed:    446940
Number of generations used:                35


    INPUT LIGAND PDBQT FILE:
    ________________________


INPUT-LIGAND-PDBQT: REMARK SMILES CC[NH2+][C@H]1CN(c2nc(N3CCc4ccccc4C3)nc(N3CCc4ccccc4C3)n2)CCO1
INPUT-LIGAND-PDBQT: REMARK SMILES IDX 4 1 5 2 6 3 33 4 34 5 35 6 3 7 2 10 1 11 7 12 8 13 32 14
INPUT-LIGAND-PDBQT: REMARK SMILES IDX 9 15 21 16 20 17 10 18 11 19 19 20 12 21 18 22 13 23 17 24
INPUT-LIGAND-PDBQT: REMARK SMILES IDX 14 25 16 26 15 27 22 28 23 29 31 30 24 31 30 32 25 33 29 34
INPUT-LIGAND-PDBQT: REMARK SMILES IDX 26 35 28 36 27 37
INPUT-LIGAND-PDBQT: REMARK H PARENT 3 8 3 9
INPUT-LIGAND-PDBQT: ROOT
INPUT-LIGAND-PDBQT: ATOM      1  C   UNL     1       4.492  -0.045   1.415  1.00  0.00     0.340 C 
INPUT-LIGAND-PDBQT: ATOM      2  C   UNL     1       3.168   0.549   0.890  1.00  0.00     0.217 C 
INPUT-LIGAND-PDBQT: ATOM      3  N   UNL     1       2.330  -0.522   0.340  1.00  0.00    -0.330 N 
INPUT-LIGAND-PDBQT: ATOM      4  C   UNL     1       2.982  -1.525  -0.510  1.00  0.00     0.148 C 
INPUT-LIGAND-PDBQT: ATOM      5  C   UNL     1       4.321  -1.953   0.100  1.00  0.00     0.188 C 
INPUT-LIGAND-PDBQT: ATOM      6  O   UNL     1       5.121  -0.827   0.410  1.00  0.00    -0.326 OA
INPUT-LIGAND-PDBQT: ENDROOT
INPUT-LIGAND-PDBQT: BRANCH   1   7
INPUT-LIGAND-PDBQT: ATOM      7  N   UNL     1       5.418   0.997   1.907  1.00  0.00    -0.320 N 
INPUT-LIGAND-PDBQT: ATOM      8  H   UNL     1       4.927   1.589   2.617  1.00  0.00     0.348 HD
INPUT-LIGAND-PDBQT: ATOM      9  H   UNL     1       6.211   0.511   2.389  1.00  0.00     0.348 HD
INPUT-LIGAND-PDBQT: BRANCH   7  10
INPUT-LIGAND-PDBQT: ATOM     10  C   UNL     1       5.960   1.865   0.844  1.00  0.00     0.259 C 
INPUT-LIGAND-PDBQT: ATOM     11  C   UNL     1       7.076   2.757   1.386  1.00  0.00     0.071 C 
INPUT-LIGAND-PDBQT: ENDBRANCH   7  10
INPUT-LIGAND-PDBQT: ENDBRANCH   1   7
INPUT-LIGAND-PDBQT: BRANCH   3  12
INPUT-LIGAND-PDBQT: ATOM     12  C   UNL     1       0.899  -0.354   0.274  1.00  0.00     0.232 A 
INPUT-LIGAND-PDBQT: ATOM     13  N   UNL     1       0.336   0.853   0.543  1.00  0.00    -0.176 NA
INPUT-LIGAND-PDBQT: ATOM     14  N   UNL     1       0.101  -1.395  -0.075  1.00  0.00    -0.176 NA
INPUT-LIGAND-PDBQT: ATOM     15  C   UNL     1      -1.008   1.030   0.452  1.00  0.00     0.232 A 
INPUT-LIGAND-PDBQT: ATOM     16  C   UNL     1      -1.247  -1.243  -0.158  1.00  0.00     0.232 A 
INPUT-LIGAND-PDBQT: ATOM     17  N   UNL     1      -1.792  -0.024   0.100  1.00  0.00    -0.176 NA
INPUT-LIGAND-PDBQT: BRANCH  15  18
INPUT-LIGAND-PDBQT: ATOM     18  N   UNL     1      -1.597   2.320   0.721  1.00  0.00    -0.336 N 
INPUT-LIGAND-PDBQT: ATOM     19  C   UNL     1      -2.947   2.654   0.258  1.00  0.00     0.125 C 
INPUT-LIGAND-PDBQT: ATOM     20  C   UNL     1      -0.798   3.443   1.229  1.00  0.00     0.155 C 
INPUT-LIGAND-PDBQT: ATOM     21  C   UNL     1      -2.840   3.580  -0.955  1.00  0.00     0.057 C 
INPUT-LIGAND-PDBQT: ATOM     22  C   UNL     1      -0.813   4.584   0.243  1.00  0.00    -0.025 A 
INPUT-LIGAND-PDBQT: ATOM     23  C   UNL     1      -1.823   4.683  -0.747  1.00  0.00    -0.041 A 
INPUT-LIGAND-PDBQT: ATOM     24  C   UNL     1       0.138   5.610   0.366  1.00  0.00     0.006 A 
INPUT-LIGAND-PDBQT: ATOM     25  C   UNL     1      -1.825   5.782  -1.621  1.00  0.00     0.004 A 
INPUT-LIGAND-PDBQT: ATOM     26  C   UNL     1       0.113   6.704  -0.503  1.00  0.00     0.000 A 
INPUT-LIGAND-PDBQT: ATOM     27  C   UNL     1      -0.864   6.788  -1.497  1.00  0.00     0.000 A 
INPUT-LIGAND-PDBQT: ENDBRANCH  15  18
INPUT-LIGAND-PDBQT: BRANCH  16  28
INPUT-LIGAND-PDBQT: ATOM     28  N   UNL     1      -2.093  -2.361  -0.505  1.00  0.00    -0.336 N 
INPUT-LIGAND-PDBQT: ATOM     29  C   UNL     1      -1.523  -3.698  -0.724  1.00  0.00     0.125 C 
INPUT-LIGAND-PDBQT: ATOM     30  C   UNL     1      -3.504  -2.128  -0.857  1.00  0.00     0.155 C 
INPUT-LIGAND-PDBQT: ATOM     31  C   UNL     1      -2.355  -4.735   0.022  1.00  0.00     0.057 C 
INPUT-LIGAND-PDBQT: ATOM     32  C   UNL     1      -4.359  -3.367  -0.716  1.00  0.00    -0.025 A 
INPUT-LIGAND-PDBQT: ATOM     33  C   UNL     1      -3.812  -4.611  -0.328  1.00  0.00    -0.041 A 
INPUT-LIGAND-PDBQT: ATOM     34  C   UNL     1      -5.733  -3.277  -0.995  1.00  0.00     0.006 A 
INPUT-LIGAND-PDBQT: ATOM     35  C   UNL     1      -4.652  -5.728  -0.192  1.00  0.00     0.004 A 
INPUT-LIGAND-PDBQT: ATOM     36  C   UNL     1      -6.555  -4.400  -0.872  1.00  0.00     0.000 A 
INPUT-LIGAND-PDBQT: ATOM     37  C   UNL     1      -6.016  -5.623  -0.470  1.00  0.00     0.000 A 
INPUT-LIGAND-PDBQT: ENDBRANCH  16  28
INPUT-LIGAND-PDBQT: ENDBRANCH   3  12
INPUT-LIGAND-PDBQT: TORSDOF 5


    FINAL DOCKED STATE:
    ________________________


Run:   1 / 20
Time taken for this run:   0.026s

DOCKED: MODEL        1
DOCKED: USER    Run = 1
DOCKED: USER
DOCKED: USER    Estimated Free Energy of Binding    =  -9.95 kcal/mol  [=(1)+(2)+(3)-(4)]
DOCKED: USER
DOCKED: USER    (1) Final Intermolecular Energy     = -11.44 kcal/mol
DOCKED: USER        vdW + Hbond + desolv Energy     = -10.63 kcal/mol
DOCKED: USER        Electrostatic Energy            =  -0.81 kcal/mol
DOCKED: USER        Moving Ligand-Fixed Receptor    = -11.44 kcal/mol
DOCKED: USER        Moving Ligand-Moving Receptor   =  +0.00 kcal/mol
DOCKED: USER    (2) Final Total Internal Energy     =  -0.86 kcal/mol
DOCKED: USER    (3) Torsional Free Energy           =  +1.49 kcal/mol
DOCKED: USER    (4) Unbound System's Energy         =  -0.86 kcal/mol
DOCKED: USER
DOCKED: USER
DOCKED: REMARK SMILES CC[NH2+][C@H]1CN(c2nc(N3CCc4ccccc4C3)nc(N3CCc4ccccc4C3)n2)CCO1
DOCKED: REMARK SMILES IDX 4 1 5 2 6 3 33 4 34 5 35 6 3 7 2 10 1 11 7 12 8 13 32 14
DOCKED: REMARK SMILES IDX 9 15 21 16 20 17 10 18 11 19 19 20 12 21 18 22 13 23 17 24
DOCKED: REMARK SMILES IDX 14 25 16 26 15 27 22 28 23 29 31 30 24 31 30 32 25 33 29 34
DOCKED: REMARK SMILES IDX 26 35 28 36 27 37
DOCKED: REMARK H PARENT 3 8 3 9
DOCKED: USER                              x       y       z     vdW  Elec       q    Type
DOCKED: USER                           _______ _______ _______ _____ _____    ______ ____
DOCKED: ROOT
DOCKED: ATOM      1  C   UNL     1     141.114  77.481 220.977 -0.15 -0.16    +0.340 C  
DOCKED: ATOM      2  C   UNL     1     141.447  76.135 221.654 +0.01 -0.10    +0.217 C  
DOCKED: ATOM      3  N   UNL     1     140.301  75.226 221.535 -0.18 +0.06    -0.330 N  
DOCKED: ATOM      4  C   UNL     1     138.967  75.779 221.795 -0.23 -0.03    +0.148 C  
DOCKED: ATOM      5  C   UNL     1     138.819  77.152 221.130 -0.11 -0.04    +0.188 C  
DOCKED: ATOM      6  O   UNL     1     139.893  78.005 221.481 -0.09 +0.09    -0.326 OA 
DOCKED: ENDROOT
DOCKED: BRANCH   1   7
DOCKED: ATOM      7  N   UNL     1     142.200  78.472 221.136 -0.10 +0.23    -0.320 N  
DOCKED: ATOM      8  H   UNL     1     142.959  78.061 221.727 -0.34 -0.42    +0.348 HD 
DOCKED: ATOM      9  H   UNL     1     142.598  78.657 220.185 -0.18 -0.32    +0.348 HD 
DOCKED: BRANCH   7  10
DOCKED: ATOM     10  C   UNL     1     141.761  79.749 221.730 -0.29 -0.11    +0.259 C  
DOCKED: ATOM     11  C   UNL     1     142.318  79.912 223.143 -0.59 -0.02    +0.071 C  
DOCKED: ENDBRANCH   7  10
DOCKED: ENDBRANCH   1   7
DOCKED: BRANCH   3  12
DOCKED: ATOM     12  C   UNL     1     140.505  73.800 221.595 -0.21 -0.03    +0.232 A  
DOCKED: ATOM     13  N   UNL     1     141.057  73.140 220.543 -0.12 +0.03    -0.176 NA 
DOCKED: ATOM     14  N   UNL     1     140.165  73.104 222.710 -0.66 +0.01    -0.176 NA 
DOCKED: ATOM     15  C   UNL     1     141.283  71.802 220.602 -0.11 -0.03    +0.232 A  
DOCKED: ATOM     16  C   UNL     1     140.369  71.762 222.784 -0.24 -0.03    +0.232 A  
DOCKED: ATOM     17  N   UNL     1     140.937  71.121 221.727 -0.06 +0.02    -0.176 NA 
DOCKED: BRANCH  15  18
DOCKED: ATOM     18  N   UNL     1     141.887  71.111 219.488 -0.03 +0.05    -0.336 N  
DOCKED: ATOM     19  C   UNL     1     141.261  69.926 218.894 -0.06 -0.02    +0.125 C  
DOCKED: ATOM     20  C   UNL     1     143.267  71.386 219.065 -0.10 -0.01    +0.155 C  
DOCKED: ATOM     21  C   UNL     1     142.020  68.681 219.355 -0.14 -0.01    +0.057 C  
DOCKED: ATOM     22  C   UNL     1     144.113  70.146 219.202 -0.21 -0.00    -0.025 A  
DOCKED: ATOM     23  C   UNL     1     143.522  68.859 219.269 -0.22 +0.00    -0.041 A  
DOCKED: ATOM     24  C   UNL     1     145.513  70.263 219.173 -0.30 +0.00    +0.006 A  
DOCKED: ATOM     25  C   UNL     1     144.346  67.726 219.356 -0.36 -0.00    +0.004 A  
DOCKED: ATOM     26  C   UNL     1     146.318  69.124 219.246 -0.38 +0.00    +0.000 A  
DOCKED: ATOM     27  C   UNL     1     145.736  67.858 219.341 -0.52 +0.00    +0.000 A  
DOCKED: ENDBRANCH  15  18
DOCKED: BRANCH  16  28
DOCKED: ATOM     28  N   UNL     1     139.981  71.023 223.962 -0.20 +0.06    -0.336 N  
DOCKED: ATOM     29  C   UNL     1     138.817  70.127 223.940 -0.26 -0.02    +0.125 C  
DOCKED: ATOM     30  C   UNL     1     140.615  71.327 225.257 -0.44 -0.02    +0.155 C  
DOCKED: ATOM     31  C   UNL     1     139.185  68.797 224.589 -0.34 -0.01    +0.057 C  
DOCKED: ATOM     32  C   UNL     1     140.488  70.198 226.254 -0.53 +0.00    -0.025 A  
DOCKED: ATOM     33  C   UNL     1     139.785  69.009 225.951 -0.47 +0.01    -0.041 A  
DOCKED: ATOM     34  C   UNL     1     141.074  70.346 227.523 -0.60 -0.00    +0.006 A  
DOCKED: ATOM     35  C   UNL     1     139.713  67.982 226.905 -0.64 -0.00    +0.004 A  
DOCKED: ATOM     36  C   UNL     1     140.980  69.322 228.469 -0.55 -0.00    +0.000 A  
DOCKED: ATOM     37  C   UNL     1     140.302  68.142 228.161 -0.61 -0.00    +0.000 A  
DOCKED: ENDBRANCH  16  28
DOCKED: ENDBRANCH   3  12
DOCKED: TORSDOF 5
DOCKED: TER
DOCKED: ENDMDL
________________________________________________________________________________


    FINAL DOCKED STATE:
    ________________________


Run:   2 / 20
Time taken for this run:   0.026s

DOCKED: MODEL        2
DOCKED: USER    Run = 2
DOCKED: USER
DOCKED: USER    Estimated Free Energy of Binding    =  -9.55 kcal/mol  [=(1)+(2)+(3)-(4)]
DOCKED: USER
DOCKED: USER    (1) Final Intermolecular Energy     = -11.04 kcal/mol
DOCKED: USER        vdW + Hbond + desolv Energy     = -10.23 kcal/mol
DOCKED: USER        Electrostatic Energy            =  -0.81 kcal/mol
DOCKED: USER        Moving Ligand-Fixed Receptor    = -11.04 kcal/mol
DOCKED: USER        Moving Ligand-Moving Receptor   =  +0.00 kcal/mol
DOCKED: USER    (2) Final Total Internal Energy     =  -0.88 kcal/mol
DOCKED: USER    (3) Torsional Free Energy           =  +1.49 kcal/mol
DOCKED: USER    (4) Unbound System's Energy         =  -0.88 kcal/mol
DOCKED: USER
DOCKED: USER
DOCKED: REMARK SMILES CC[NH2+][C@H]1CN(c2nc(N3CCc4ccccc4C3)nc(N3CCc4ccccc4C3)n2)CCO1
DOCKED: REMARK SMILES IDX 4 1 5 2 6 3 33 4 34 5 35 6 3 7 2 10 1 11 7 12 8 13 32 14
DOCKED: REMARK SMILES IDX 9 15 21 16 20 17 10 18 11 19 19 20 12 21 18 22 13 23 17 24
DOCKED: REMARK SMILES IDX 14 25 16 26 15 27 22 28 23 29 31 30 24 31 30 32 25 33 29 34
DOCKED: REMARK SMILES IDX 26 35 28 36 27 37
DOCKED: REMARK H PARENT 3 8 3 9
DOCKED: USER                              x       y       z     vdW  Elec       q    Type
DOCKED: USER                           _______ _______ _______ _____ _____    ______ ____
DOCKED: ROOT
DOCKED: ATOM      1  C   UNL     1     141.865  77.220 219.766 -0.15 -0.19    +0.340 C  
DOCKED: ATOM      2  C   UNL     1     142.327  75.823 220.231 -0.16 -0.11    +0.217 C  
DOCKED: ATOM      3  N   UNL     1     141.290  75.215 221.072 -0.16 +0.10    -0.330 N  
DOCKED: ATOM      4  C   UNL     1     140.651  76.065 222.083 -0.28 -0.04    +0.148 C  
DOCKED: ATOM      5  C   UNL     1     140.329  77.443 221.496 -0.22 -0.06    +0.188 C  
DOCKED: ATOM      6  O   UNL     1     141.470  78.011 220.878 -0.17 +0.17    -0.326 OA 
DOCKED: ENDROOT
DOCKED: BRANCH   1   7
DOCKED: ATOM      7  N   UNL     1     142.903  77.922 218.983 -0.08 +0.26    -0.320 N  
DOCKED: ATOM      8  H   UNL     1     142.895  78.939 219.230 -0.05 -0.33    +0.348 HD 
DOCKED: ATOM      9  H   UNL     1     143.832  77.531 219.269 -0.35 -0.34    +0.348 HD 
DOCKED: BRANCH   7  10
DOCKED: ATOM     10  C   UNL     1     142.749  77.778 217.522 -0.19 -0.21    +0.259 C  
DOCKED: ATOM     11  C   UNL     1     143.320  76.443 217.044 -0.22 -0.04    +0.071 C  
DOCKED: ENDBRANCH   7  10
DOCKED: ENDBRANCH   1   7
DOCKED: BRANCH   3  12
DOCKED: ATOM     12  C   UNL     1     141.216  73.780 221.197 -0.19 -0.03    +0.232 A  
DOCKED: ATOM     13  N   UNL     1     141.654  72.979 220.191 -0.10 +0.03    -0.176 NA 
DOCKED: ATOM     14  N   UNL     1     140.724  73.214 222.329 -0.66 -0.00    -0.176 NA 
DOCKED: ATOM     15  C   UNL     1     141.619  71.626 220.313 -0.10 -0.03    +0.232 A  
DOCKED: ATOM     16  C   UNL     1     140.666  71.863 222.465 -0.22 -0.02    +0.232 A  
DOCKED: ATOM     17  N   UNL     1     141.124  71.077 221.454 -0.02 +0.02    -0.176 NA 
DOCKED: BRANCH  15  18
DOCKED: ATOM     18  N   UNL     1     142.104  70.782 219.248 -0.02 +0.05    -0.336 N  
DOCKED: ATOM     19  C   UNL     1     141.312  69.655 218.746 -0.06 -0.02    +0.125 C  
DOCKED: ATOM     20  C   UNL     1     143.501  70.834 218.796 -0.10 -0.01    +0.155 C  
DOCKED: ATOM     21  C   UNL     1     141.902  68.353 219.291 -0.14 -0.01    +0.057 C  
DOCKED: ATOM     22  C   UNL     1     144.173  69.502 219.016 -0.22 -0.00    -0.025 A  
DOCKED: ATOM     23  C   UNL     1     143.413  68.317 219.181 -0.22 +0.01    -0.041 A  
DOCKED: ATOM     24  C   UNL     1     145.574  69.424 218.969 -0.35 +0.00    +0.006 A  
DOCKED: ATOM     25  C   UNL     1     144.076  67.091 219.344 -0.34 -0.00    +0.004 A  
DOCKED: ATOM     26  C   UNL     1     146.218  68.194 219.118 -0.45 +0.00    +0.000 A  
DOCKED: ATOM     27  C   UNL     1     145.471  67.030 219.310 -0.54 -0.00    +0.000 A  
DOCKED: ENDBRANCH  15  18
DOCKED: BRANCH  16  28
DOCKED: ATOM     28  N   UNL     1     140.118  71.267 223.661 -0.20 +0.05    -0.336 N  
DOCKED: ATOM     29  C   UNL     1     138.870  70.493 223.614 -0.25 -0.02    +0.125 C  
DOCKED: ATOM     30  C   UNL     1     140.686  71.613 224.976 -0.34 -0.02    +0.155 C  
DOCKED: ATOM     31  C   UNL     1     139.047  69.192 224.388 -0.32 -0.01    +0.057 C  
DOCKED: ATOM     32  C   UNL     1     140.368  70.589 226.042 -0.55 +0.00    -0.025 A  
DOCKED: ATOM     33  C   UNL     1     139.567  69.456 225.774 -0.43 +0.01    -0.041 A  
DOCKED: ATOM     34  C   UNL     1     140.873  70.783 227.339 -0.66 -0.00    +0.006 A  
DOCKED: ATOM     35  C   UNL     1     139.317  68.524 226.794 -0.51 -0.00    +0.004 A  
DOCKED: ATOM     36  C   UNL     1     140.604  69.856 228.349 -0.58 -0.00    +0.000 A  
DOCKED: ATOM     37  C   UNL     1     139.828  68.728 228.077 -0.61 -0.00    +0.000 A  
DOCKED: ENDBRANCH  16  28
DOCKED: ENDBRANCH   3  12
DOCKED: TORSDOF 5
DOCKED: TER
DOCKED: ENDMDL
________________________________________________________________________________


    FINAL DOCKED STATE:
    ________________________


Run:   3 / 20
Time taken for this run:   0.026s

DOCKED: MODEL        3
DOCKED: USER    Run = 3
DOCKED: USER
DOCKED: USER    Estimated Free Energy of Binding    =  -9.97 kcal/mol  [=(1)+(2)+(3)-(4)]
DOCKED: USER
DOCKED: USER    (1) Final Intermolecular Energy     = -11.46 kcal/mol
DOCKED: USER        vdW + Hbond + desolv Energy     = -11.11 kcal/mol
DOCKED: USER        Electrostatic Energy            =  -0.35 kcal/mol
DOCKED: USER        Moving Ligand-Fixed Receptor    = -11.46 kcal/mol
DOCKED: USER        Moving Ligand-Moving Receptor   =  +0.00 kcal/mol
DOCKED: USER    (2) Final Total Internal Energy     =  -0.89 kcal/mol
DOCKED: USER    (3) Torsional Free Energy           =  +1.49 kcal/mol
DOCKED: USER    (4) Unbound System's Energy         =  -0.89 kcal/mol
DOCKED: USER
DOCKED: USER
DOCKED: REMARK SMILES CC[NH2+][C@H]1CN(c2nc(N3CCc4ccccc4C3)nc(N3CCc4ccccc4C3)n2)CCO1
DOCKED: REMARK SMILES IDX 4 1 5 2 6 3 33 4 34 5 35 6 3 7 2 10 1 11 7 12 8 13 32 14
DOCKED: REMARK SMILES IDX 9 15 21 16 20 17 10 18 11 19 19 20 12 21 18 22 13 23 17 24
DOCKED: REMARK SMILES IDX 14 25 16 26 15 27 22 28 23 29 31 30 24 31 30 32 25 33 29 34
DOCKED: REMARK SMILES IDX 26 35 28 36 27 37
DOCKED: REMARK H PARENT 3 8 3 9
DOCKED: USER                              x       y       z     vdW  Elec       q    Type
DOCKED: USER                           _______ _______ _______ _____ _____    ______ ____
DOCKED: ROOT
DOCKED: ATOM      1  C   UNL     1     145.167  73.505 218.240 +0.01 +0.01    +0.340 C  
DOCKED: ATOM      2  C   UNL     1     143.685  73.617 218.654 -0.11 -0.05    +0.217 C  
DOCKED: ATOM      3  N   UNL     1     143.471  72.912 219.922 -0.09 +0.05    -0.330 N  
DOCKED: ATOM      4  C   UNL     1     144.099  71.595 220.081 -0.22 -0.01    +0.148 C  
DOCKED: ATOM      5  C   UNL     1     145.536  71.621 219.549 -0.20 +0.08    +0.188 C  
DOCKED: ATOM      6  O   UNL     1     145.582  72.146 218.236 -0.60 -0.25    -0.326 OA 
DOCKED: ENDROOT
DOCKED: BRANCH   1   7
DOCKED: ATOM      7  N   UNL     1     145.431  74.124 216.924 -0.03 +0.05    -0.320 N  
DOCKED: ATOM      8  H   UNL     1     145.655  75.138 217.058 -0.43 -0.24    +0.348 HD 
DOCKED: ATOM      9  H   UNL     1     146.279  73.660 216.522 +0.07 +0.09    +0.348 HD 
DOCKED: BRANCH   7  10
DOCKED: ATOM     10  C   UNL     1     144.314  73.997 215.969 -0.05 -0.06    +0.259 C  
DOCKED: ATOM     11  C   UNL     1     144.370  72.654 215.242 -0.01 -0.01    +0.071 C  
DOCKED: ENDBRANCH   7  10
DOCKED: ENDBRANCH   1   7
DOCKED: BRANCH   3  12
DOCKED: ATOM     12  C   UNL     1     142.369  73.283 220.775 -0.17 -0.04    +0.232 A  
DOCKED: ATOM     13  N   UNL     1     141.872  74.548 220.744 -0.21 +0.05    -0.176 NA 
DOCKED: ATOM     14  N   UNL     1     141.804  72.369 221.604 -0.16 +0.01    -0.176 NA 
DOCKED: ATOM     15  C   UNL     1     140.813  74.898 221.519 -0.24 -0.04    +0.232 A  
DOCKED: ATOM     16  C   UNL     1     140.753  72.703 222.398 -0.17 -0.01    +0.232 A  
DOCKED: ATOM     17  N   UNL     1     140.259  73.969 222.343 -0.79 -0.01    -0.176 NA 
DOCKED: BRANCH  15  18
DOCKED: ATOM     18  N   UNL     1     140.278  76.238 221.467 -0.15 +0.09    -0.336 N  
DOCKED: ATOM     19  C   UNL     1     140.169  76.968 220.200 -0.12 -0.04    +0.125 C  
DOCKED: ATOM     20  C   UNL     1     140.067  77.033 222.684 -0.17 -0.03    +0.155 C  
DOCKED: ATOM     21  C   UNL     1     141.286  78.011 220.132 -0.24 -0.03    +0.057 C  
DOCKED: ATOM     22  C   UNL     1     140.917  78.278 222.650 -0.46 +0.01    -0.025 A  
DOCKED: ATOM     23  C   UNL     1     141.435  78.778 221.429 -0.35 +0.02    -0.041 A  
DOCKED: ATOM     24  C   UNL     1     141.123  79.001 223.837 -0.55 -0.00    +0.006 A  
DOCKED: ATOM     25  C   UNL     1     142.190  79.962 221.435 -0.40 -0.00    +0.004 A  
DOCKED: ATOM     26  C   UNL     1     141.864  80.186 223.822 -0.61 -0.00    +0.000 A  
DOCKED: ATOM     27  C   UNL     1     142.400  80.663 222.625 -0.58 -0.00    +0.000 A  
DOCKED: ENDBRANCH  15  18
DOCKED: BRANCH  16  28
DOCKED: ATOM     28  N   UNL     1     140.173  71.733 223.297 -0.20 +0.05    -0.336 N  
DOCKED: ATOM     29  C   UNL     1     138.935  71.024 222.943 -0.22 -0.03    +0.125 C  
DOCKED: ATOM     30  C   UNL     1     140.694  71.603 224.668 -0.32 -0.02    +0.155 C  
DOCKED: ATOM     31  C   UNL     1     139.101  69.535 223.228 -0.22 -0.01    +0.057 C  
DOCKED: ATOM     32  C   UNL     1     140.353  70.276 225.306 -0.47 +0.00    -0.025 A  
DOCKED: ATOM     33  C   UNL     1     139.573  69.305 224.637 -0.34 +0.01    -0.041 A  
DOCKED: ATOM     34  C   UNL     1     140.814  70.010 226.606 -0.56 -0.00    +0.006 A  
DOCKED: ATOM     35  C   UNL     1     139.301  68.079 225.265 -0.46 -0.00    +0.004 A  
DOCKED: ATOM     36  C   UNL     1     140.522  68.793 227.226 -0.64 -0.00    +0.000 A  
DOCKED: ATOM     37  C   UNL     1     139.768  67.828 226.556 -0.66 -0.00    +0.000 A  
DOCKED: ENDBRANCH  16  28
DOCKED: ENDBRANCH   3  12
DOCKED: TORSDOF 5
DOCKED: TER
DOCKED: ENDMDL
________________________________________________________________________________


    FINAL DOCKED STATE:
    ________________________


Run:   4 / 20
Time taken for this run:   0.026s

DOCKED: MODEL        4
DOCKED: USER    Run = 4
DOCKED: USER
DOCKED: USER    Estimated Free Energy of Binding    =  -9.61 kcal/mol  [=(1)+(2)+(3)-(4)]
DOCKED: USER
DOCKED: USER    (1) Final Intermolecular Energy     = -11.10 kcal/mol
DOCKED: USER        vdW + Hbond + desolv Energy     = -10.28 kcal/mol
DOCKED: USER        Electrostatic Energy            =  -0.82 kcal/mol
DOCKED: USER        Moving Ligand-Fixed Receptor    = -11.10 kcal/mol
DOCKED: USER        Moving Ligand-Moving Receptor   =  +0.00 kcal/mol
DOCKED: USER    (2) Final Total Internal Energy     =  -0.88 kcal/mol
DOCKED: USER    (3) Torsional Free Energy           =  +1.49 kcal/mol
DOCKED: USER    (4) Unbound System's Energy         =  -0.88 kcal/mol
DOCKED: USER
DOCKED: USER
DOCKED: REMARK SMILES CC[NH2+][C@H]1CN(c2nc(N3CCc4ccccc4C3)nc(N3CCc4ccccc4C3)n2)CCO1
DOCKED: REMARK SMILES IDX 4 1 5 2 6 3 33 4 34 5 35 6 3 7 2 10 1 11 7 12 8 13 32 14
DOCKED: REMARK SMILES IDX 9 15 21 16 20 17 10 18 11 19 19 20 12 21 18 22 13 23 17 24
DOCKED: REMARK SMILES IDX 14 25 16 26 15 27 22 28 23 29 31 30 24 31 30 32 25 33 29 34
DOCKED: REMARK SMILES IDX 26 35 28 36 27 37
DOCKED: REMARK H PARENT 3 8 3 9
DOCKED: USER                              x       y       z     vdW  Elec       q    Type
DOCKED: USER                           _______ _______ _______ _____ _____    ______ ____
DOCKED: ROOT
DOCKED: ATOM      1  C   UNL     1     141.496  77.311 219.938 -0.13 -0.17    +0.340 C  
DOCKED: ATOM      2  C   UNL     1     142.017  75.960 220.474 -0.16 -0.11    +0.217 C  
DOCKED: ATOM      3  N   UNL     1     140.923  75.234 221.128 -0.15 +0.09    -0.330 N  
DOCKED: ATOM      4  C   UNL     1     140.039  75.996 222.017 -0.29 -0.03    +0.148 C  
DOCKED: ATOM      5  C   UNL     1     139.679  77.344 221.385 -0.17 -0.05    +0.188 C  
DOCKED: ATOM      6  O   UNL     1     140.841  78.036 220.968 -0.12 +0.13    -0.326 OA 
DOCKED: ENDROOT
DOCKED: BRANCH   1   7
DOCKED: ATOM      7  N   UNL     1     142.573  78.129 219.340 -0.07 +0.25    -0.320 N  
DOCKED: ATOM      8  H   UNL     1     142.587  79.070 219.799 -0.06 -0.30    +0.348 HD 
DOCKED: ATOM      9  H   UNL     1     143.483  77.656 219.553 -0.34 -0.36    +0.348 HD 
DOCKED: BRANCH   7  10
DOCKED: ATOM     10  C   UNL     1     142.450  78.304 217.880 -0.20 -0.21    +0.259 C  
DOCKED: ATOM     11  C   UNL     1     142.953  77.066 217.140 -0.24 -0.05    +0.071 C  
DOCKED: ENDBRANCH   7  10
DOCKED: ENDBRANCH   1   7
DOCKED: BRANCH   3  12
DOCKED: ATOM     12  C   UNL     1     140.979  73.797 221.239 -0.20 -0.03    +0.232 A  
DOCKED: ATOM     13  N   UNL     1     141.475  73.048 220.220 -0.10 +0.03    -0.176 NA 
DOCKED: ATOM     14  N   UNL     1     140.553  73.179 222.370 -0.69 +0.00    -0.176 NA 
DOCKED: ATOM     15  C   UNL     1     141.562  71.696 220.327 -0.10 -0.03    +0.232 A  
DOCKED: ATOM     16  C   UNL     1     140.618  71.827 222.492 -0.22 -0.02    +0.232 A  
DOCKED: ATOM     17  N   UNL     1     141.132  71.094 221.468 -0.03 +0.02    -0.176 NA 
DOCKED: BRANCH  15  18
DOCKED: ATOM     18  N   UNL     1     142.108  70.909 219.248 -0.02 +0.05    -0.336 N  
DOCKED: ATOM     19  C   UNL     1     141.378  69.766 218.692 -0.06 -0.02    +0.125 C  
DOCKED: ATOM     20  C   UNL     1     143.510  71.037 218.831 -0.10 -0.01    +0.155 C  
DOCKED: ATOM     21  C   UNL     1     142.013  68.473 219.209 -0.14 -0.01    +0.057 C  
DOCKED: ATOM     22  C   UNL     1     144.236  69.729 219.025 -0.22 -0.00    -0.025 A  
DOCKED: ATOM     23  C   UNL     1     143.525  68.507 219.134 -0.22 +0.01    -0.041 A  
DOCKED: ATOM     24  C   UNL     1     145.640  69.714 219.008 -0.34 +0.00    +0.006 A  
DOCKED: ATOM     25  C   UNL     1     144.239  67.306 219.275 -0.36 -0.00    +0.004 A  
DOCKED: ATOM     26  C   UNL     1     146.334  68.508 219.134 -0.40 +0.00    +0.000 A  
DOCKED: ATOM     27  C   UNL     1     145.635  67.307 219.271 -0.55 -0.00    +0.000 A  
DOCKED: ENDBRANCH  15  18
DOCKED: BRANCH  16  28
DOCKED: ATOM     28  N   UNL     1     140.140  71.173 223.688 -0.19 +0.05    -0.336 N  
DOCKED: ATOM     29  C   UNL     1     138.928  70.342 223.659 -0.25 -0.02    +0.125 C  
DOCKED: ATOM     30  C   UNL     1     140.736  71.509 224.993 -0.39 -0.02    +0.155 C  
DOCKED: ATOM     31  C   UNL     1     139.193  69.030 224.390 -0.32 -0.01    +0.057 C  
DOCKED: ATOM     32  C   UNL     1     140.503  70.442 226.039 -0.54 +0.00    -0.025 A  
DOCKED: ATOM     33  C   UNL     1     139.747  69.280 225.765 -0.44 +0.01    -0.041 A  
DOCKED: ATOM     34  C   UNL     1     141.043  70.625 227.323 -0.63 -0.00    +0.006 A  
DOCKED: ATOM     35  C   UNL     1     139.577  68.309 226.765 -0.60 -0.00    +0.004 A  
DOCKED: ATOM     36  C   UNL     1     140.851  69.659 228.314 -0.59 -0.00    +0.000 A  
DOCKED: ATOM     37  C   UNL     1     140.121  68.503 228.036 -0.65 -0.00    +0.000 A  
DOCKED: ENDBRANCH  16  28
DOCKED: ENDBRANCH   3  12
DOCKED: TORSDOF 5
DOCKED: TER
DOCKED: ENDMDL
________________________________________________________________________________


    FINAL DOCKED STATE:
    ________________________


Run:   5 / 20
Time taken for this run:   0.026s

DOCKED: MODEL        5
DOCKED: USER    Run = 5
DOCKED: USER
DOCKED: USER    Estimated Free Energy of Binding    =  -9.96 kcal/mol  [=(1)+(2)+(3)-(4)]
DOCKED: USER
DOCKED: USER    (1) Final Intermolecular Energy     = -11.45 kcal/mol
DOCKED: USER        vdW + Hbond + desolv Energy     = -11.29 kcal/mol
DOCKED: USER        Electrostatic Energy            =  -0.17 kcal/mol
DOCKED: USER        Moving Ligand-Fixed Receptor    = -11.45 kcal/mol
DOCKED: USER        Moving Ligand-Moving Receptor   =  +0.00 kcal/mol
DOCKED: USER    (2) Final Total Internal Energy     =  -0.84 kcal/mol
DOCKED: USER    (3) Torsional Free Energy           =  +1.49 kcal/mol
DOCKED: USER    (4) Unbound System's Energy         =  -0.84 kcal/mol
DOCKED: USER
DOCKED: USER
DOCKED: REMARK SMILES CC[NH2+][C@H]1CN(c2nc(N3CCc4ccccc4C3)nc(N3CCc4ccccc4C3)n2)CCO1
DOCKED: REMARK SMILES IDX 4 1 5 2 6 3 33 4 34 5 35 6 3 7 2 10 1 11 7 12 8 13 32 14
DOCKED: REMARK SMILES IDX 9 15 21 16 20 17 10 18 11 19 19 20 12 21 18 22 13 23 17 24
DOCKED: REMARK SMILES IDX 14 25 16 26 15 27 22 28 23 29 31 30 24 31 30 32 25 33 29 34
DOCKED: REMARK SMILES IDX 26 35 28 36 27 37
DOCKED: REMARK H PARENT 3 8 3 9
DOCKED: USER                              x       y       z     vdW  Elec       q    Type
DOCKED: USER                           _______ _______ _______ _____ _____    ______ ____
DOCKED: ROOT
DOCKED: ATOM      1  C   UNL     1     144.507  70.972 218.422 -0.06 +0.06    +0.340 C  
DOCKED: ATOM      2  C   UNL     1     143.648  71.105 219.698 -0.14 -0.01    +0.217 C  
DOCKED: ATOM      3  N   UNL     1     143.536  72.519 220.072 -0.10 +0.04    -0.330 N  
DOCKED: ATOM      4  C   UNL     1     144.755  73.335 220.012 -0.37 -0.02    +0.148 C  
DOCKED: ATOM      5  C   UNL     1     145.541  73.029 218.733 -0.20 +0.07    +0.188 C  
DOCKED: ATOM      6  O   UNL     1     145.751  71.637 218.587 -0.49 -0.31    -0.326 OA 
DOCKED: ENDROOT
DOCKED: BRANCH   1   7
DOCKED: ATOM      7  N   UNL     1     144.728  69.561 218.040 -0.04 -0.03    -0.320 N  
DOCKED: ATOM      8  H   UNL     1     143.886  68.996 218.301 +0.12 -0.04    +0.348 HD 
DOCKED: ATOM      9  H   UNL     1     144.824  69.529 216.997 +0.09 +0.00    +0.348 HD 
DOCKED: BRANCH   7  10
DOCKED: ATOM     10  C   UNL     1     145.926  68.956 218.653 -0.24 +0.08    +0.259 C  
DOCKED: ATOM     11  C   UNL     1     145.566  67.670 219.397 -0.48 -0.00    +0.071 C  
DOCKED: ENDBRANCH   7  10
DOCKED: ENDBRANCH   1   7
DOCKED: BRANCH   3  12
DOCKED: ATOM     12  C   UNL     1     142.416  72.968 220.862 -0.16 -0.03    +0.232 A  
DOCKED: ATOM     13  N   UNL     1     141.927  74.226 220.707 -0.20 +0.04    -0.176 NA 
DOCKED: ATOM     14  N   UNL     1     141.827  72.132 221.754 -0.10 +0.01    -0.176 NA 
DOCKED: ATOM     15  C   UNL     1     140.852  74.648 221.423 -0.22 -0.04    +0.232 A  
DOCKED: ATOM     16  C   UNL     1     140.760  72.539 222.491 -0.17 -0.01    +0.232 A  
DOCKED: ATOM     17  N   UNL     1     140.274  73.797 222.312 -0.80 -0.00    -0.176 NA 
DOCKED: BRANCH  15  18
DOCKED: ATOM     18  N   UNL     1     140.327  75.980 221.240 -0.14 +0.09    -0.336 N  
DOCKED: ATOM     19  C   UNL     1     140.423  76.667 219.949 -0.11 -0.04    +0.125 C  
DOCKED: ATOM     20  C   UNL     1     139.915  76.811 222.379 -0.28 -0.03    +0.155 C  
DOCKED: ATOM     21  C   UNL     1     141.530  77.720 220.029 -0.25 -0.03    +0.057 C  
DOCKED: ATOM     22  C   UNL     1     140.753  78.063 222.443 -0.42 +0.01    -0.025 A  
DOCKED: ATOM     23  C   UNL     1     141.462  78.529 221.307 -0.34 +0.02    -0.041 A  
DOCKED: ATOM     24  C   UNL     1     140.759  78.825 223.623 -0.43 -0.00    +0.006 A  
DOCKED: ATOM     25  C   UNL     1     142.199  79.721 221.396 -0.36 -0.00    +0.004 A  
DOCKED: ATOM     26  C   UNL     1     141.486  80.017 223.690 -0.57 -0.00    +0.000 A  
DOCKED: ATOM     27  C   UNL     1     142.208  80.461 222.580 -0.58 -0.00    +0.000 A  
DOCKED: ENDBRANCH  15  18
DOCKED: BRANCH  16  28
DOCKED: ATOM     28  N   UNL     1     140.153  71.654 223.458 -0.20 +0.05    -0.336 N  
DOCKED: ATOM     29  C   UNL     1     138.891  70.962 223.158 -0.23 -0.03    +0.125 C  
DOCKED: ATOM     30  C   UNL     1     140.677  71.606 224.833 -0.33 -0.02    +0.155 C  
DOCKED: ATOM     31  C   UNL     1     139.011  69.493 223.548 -0.25 -0.01    +0.057 C  
DOCKED: ATOM     32  C   UNL     1     140.296  70.338 225.565 -0.49 +0.00    -0.025 A  
DOCKED: ATOM     33  C   UNL     1     139.483  69.348 224.968 -0.37 +0.01    -0.041 A  
DOCKED: ATOM     34  C   UNL     1     140.755  70.151 226.879 -0.58 -0.00    +0.006 A  
DOCKED: ATOM     35  C   UNL     1     139.174  68.179 225.682 -0.51 -0.00    +0.004 A  
DOCKED: ATOM     36  C   UNL     1     140.426  68.991 227.585 -0.64 -0.00    +0.000 A  
DOCKED: ATOM     37  C   UNL     1     139.639  68.006 226.987 -0.63 -0.00    +0.000 A  
DOCKED: ENDBRANCH  16  28
DOCKED: ENDBRANCH   3  12
DOCKED: TORSDOF 5
DOCKED: TER
DOCKED: ENDMDL
________________________________________________________________________________


    FINAL DOCKED STATE:
    ________________________


Run:   6 / 20
Time taken for this run:   0.026s

DOCKED: MODEL        6
DOCKED: USER    Run = 6
DOCKED: USER
DOCKED: USER    Estimated Free Energy of Binding    =  -9.71 kcal/mol  [=(1)+(2)+(3)-(4)]
DOCKED: USER
DOCKED: USER    (1) Final Intermolecular Energy     = -11.20 kcal/mol
DOCKED: USER        vdW + Hbond + desolv Energy     = -10.42 kcal/mol
DOCKED: USER        Electrostatic Energy            =  -0.78 kcal/mol
DOCKED: USER        Moving Ligand-Fixed Receptor    = -11.20 kcal/mol
DOCKED: USER        Moving Ligand-Moving Receptor   =  +0.00 kcal/mol
DOCKED: USER    (2) Final Total Internal Energy     =  -0.85 kcal/mol
DOCKED: USER    (3) Torsional Free Energy           =  +1.49 kcal/mol
DOCKED: USER    (4) Unbound System's Energy         =  -0.85 kcal/mol
DOCKED: USER
DOCKED: USER
DOCKED: REMARK SMILES CC[NH2+][C@H]1CN(c2nc(N3CCc4ccccc4C3)nc(N3CCc4ccccc4C3)n2)CCO1
DOCKED: REMARK SMILES IDX 4 1 5 2 6 3 33 4 34 5 35 6 3 7 2 10 1 11 7 12 8 13 32 14
DOCKED: REMARK SMILES IDX 9 15 21 16 20 17 10 18 11 19 19 20 12 21 18 22 13 23 17 24
DOCKED: REMARK SMILES IDX 14 25 16 26 15 27 22 28 23 29 31 30 24 31 30 32 25 33 29 34
DOCKED: REMARK SMILES IDX 26 35 28 36 27 37
DOCKED: REMARK H PARENT 3 8 3 9
DOCKED: USER                              x       y       z     vdW  Elec       q    Type
DOCKED: USER                           _______ _______ _______ _____ _____    ______ ____
DOCKED: ROOT
DOCKED: ATOM      1  C   UNL     1     141.125  77.508 221.103 -0.16 -0.16    +0.340 C  
DOCKED: ATOM      2  C   UNL     1     141.383  76.150 221.789 +0.05 -0.09    +0.217 C  
DOCKED: ATOM      3  N   UNL     1     140.268  75.238 221.514 -0.17 +0.06    -0.330 N  
DOCKED: ATOM      4  C   UNL     1     138.908  75.779 221.620 -0.21 -0.03    +0.148 C  
DOCKED: ATOM      5  C   UNL     1     138.831  77.164 220.968 -0.10 -0.04    +0.188 C  
DOCKED: ATOM      6  O   UNL     1     139.848  78.015 221.464 -0.09 +0.09    -0.326 OA 
DOCKED: ENDROOT
DOCKED: BRANCH   1   7
DOCKED: ATOM      7  N   UNL     1     142.176  78.501 221.412 -0.12 +0.23    -0.320 N  
DOCKED: ATOM      8  H   UNL     1     143.084  78.006 221.570 -0.36 -0.45    +0.348 HD 
DOCKED: ATOM      9  H   UNL     1     142.288  79.113 220.569 -0.04 -0.25    +0.348 HD 
DOCKED: BRANCH   7  10
DOCKED: ATOM     10  C   UNL     1     141.873  79.346 222.583 -0.37 -0.10    +0.259 C  
DOCKED: ATOM     11  C   UNL     1     142.192  80.812 222.293 -0.49 -0.02    +0.071 C  
DOCKED: ENDBRANCH   7  10
DOCKED: ENDBRANCH   1   7
DOCKED: BRANCH   3  12
DOCKED: ATOM     12  C   UNL     1     140.474  73.812 221.571 -0.21 -0.03    +0.232 A  
DOCKED: ATOM     13  N   UNL     1     141.018  73.154 220.514 -0.11 +0.03    -0.176 NA 
DOCKED: ATOM     14  N   UNL     1     140.143  73.114 222.687 -0.66 +0.01    -0.176 NA 
DOCKED: ATOM     15  C   UNL     1     141.247  71.816 220.570 -0.10 -0.03    +0.232 A  
DOCKED: ATOM     16  C   UNL     1     140.350  71.773 222.758 -0.24 -0.03    +0.232 A  
DOCKED: ATOM     17  N   UNL     1     140.910  71.133 221.697 -0.08 +0.02    -0.176 NA 
DOCKED: BRANCH  15  18
DOCKED: ATOM     18  N   UNL     1     141.843  71.127 219.450 -0.03 +0.05    -0.336 N  
DOCKED: ATOM     19  C   UNL     1     141.240  69.912 218.893 -0.06 -0.02    +0.125 C  
DOCKED: ATOM     20  C   UNL     1     143.200  71.440 218.984 -0.09 -0.01    +0.155 C  
DOCKED: ATOM     21  C   UNL     1     142.053  68.700 219.352 -0.14 -0.01    +0.057 C  
DOCKED: ATOM     22  C   UNL     1     144.091  70.230 219.117 -0.20 -0.00    -0.025 A  
DOCKED: ATOM     23  C   UNL     1     143.545  68.926 219.221 -0.21 +0.00    -0.041 A  
DOCKED: ATOM     24  C   UNL     1     145.484  70.393 219.047 -0.31 +0.00    +0.006 A  
DOCKED: ATOM     25  C   UNL     1     144.408  67.822 219.303 -0.36 -0.00    +0.004 A  
DOCKED: ATOM     26  C   UNL     1     146.329  69.282 219.116 -0.38 +0.00    +0.000 A  
DOCKED: ATOM     27  C   UNL     1     145.793  68.000 219.247 -0.51 +0.00    +0.000 A  
DOCKED: ENDBRANCH  15  18
DOCKED: BRANCH  16  28
DOCKED: ATOM     28  N   UNL     1     139.972  71.032 223.939 -0.20 +0.06    -0.336 N  
DOCKED: ATOM     29  C   UNL     1     138.817  70.124 223.922 -0.26 -0.02    +0.125 C  
DOCKED: ATOM     30  C   UNL     1     140.606  71.344 225.232 -0.43 -0.02    +0.155 C  
DOCKED: ATOM     31  C   UNL     1     139.200  68.799 224.572 -0.34 -0.01    +0.057 C  
DOCKED: ATOM     32  C   UNL     1     140.492  70.216 226.232 -0.53 +0.00    -0.025 A  
DOCKED: ATOM     33  C   UNL     1     139.801  69.020 225.932 -0.47 +0.01    -0.041 A  
DOCKED: ATOM     34  C   UNL     1     141.079  70.372 227.498 -0.60 -0.00    +0.006 A  
DOCKED: ATOM     35  C   UNL     1     139.741  67.994 226.888 -0.64 -0.00    +0.004 A  
DOCKED: ATOM     36  C   UNL     1     140.998  69.350 228.447 -0.56 -0.00    +0.000 A  
DOCKED: ATOM     37  C   UNL     1     140.331  68.162 228.142 -0.62 -0.00    +0.000 A  
DOCKED: ENDBRANCH  16  28
DOCKED: ENDBRANCH   3  12
DOCKED: TORSDOF 5
DOCKED: TER
DOCKED: ENDMDL
________________________________________________________________________________


    FINAL DOCKED STATE:
    ________________________


Run:   7 / 20
Time taken for this run:   0.026s

DOCKED: MODEL        7
DOCKED: USER    Run = 7
DOCKED: USER
DOCKED: USER    Estimated Free Energy of Binding    =  -9.99 kcal/mol  [=(1)+(2)+(3)-(4)]
DOCKED: USER
DOCKED: USER    (1) Final Intermolecular Energy     = -11.48 kcal/mol
DOCKED: USER        vdW + Hbond + desolv Energy     = -11.32 kcal/mol
DOCKED: USER        Electrostatic Energy            =  -0.15 kcal/mol
DOCKED: USER        Moving Ligand-Fixed Receptor    = -11.48 kcal/mol
DOCKED: USER        Moving Ligand-Moving Receptor   =  +0.00 kcal/mol
DOCKED: USER    (2) Final Total Internal Energy     =  -0.84 kcal/mol
DOCKED: USER    (3) Torsional Free Energy           =  +1.49 kcal/mol
DOCKED: USER    (4) Unbound System's Energy         =  -0.84 kcal/mol
DOCKED: USER
DOCKED: USER
DOCKED: REMARK SMILES CC[NH2+][C@H]1CN(c2nc(N3CCc4ccccc4C3)nc(N3CCc4ccccc4C3)n2)CCO1
DOCKED: REMARK SMILES IDX 4 1 5 2 6 3 33 4 34 5 35 6 3 7 2 10 1 11 7 12 8 13 32 14
DOCKED: REMARK SMILES IDX 9 15 21 16 20 17 10 18 11 19 19 20 12 21 18 22 13 23 17 24
DOCKED: REMARK SMILES IDX 14 25 16 26 15 27 22 28 23 29 31 30 24 31 30 32 25 33 29 34
DOCKED: REMARK SMILES IDX 26 35 28 36 27 37
DOCKED: REMARK H PARENT 3 8 3 9
DOCKED: USER                              x       y       z     vdW  Elec       q    Type
DOCKED: USER                           _______ _______ _______ _____ _____    ______ ____
DOCKED: ROOT
DOCKED: ATOM      1  C   UNL     1     144.581  71.103 218.452 -0.07 +0.06    +0.340 C  
DOCKED: ATOM      2  C   UNL     1     143.740  71.231 219.740 -0.15 -0.01    +0.217 C  
DOCKED: ATOM      3  N   UNL     1     143.548  72.648 220.065 -0.10 +0.05    -0.330 N  
DOCKED: ATOM      4  C   UNL     1     144.711  73.535 219.950 -0.37 -0.02    +0.148 C  
DOCKED: ATOM      5  C   UNL     1     145.490  73.231 218.666 -0.15 +0.05    +0.188 C  
DOCKED: ATOM      6  O   UNL     1     145.784  71.850 218.565 -0.55 -0.33    -0.326 OA 
DOCKED: ENDROOT
DOCKED: BRANCH   1   7
DOCKED: ATOM      7  N   UNL     1     144.882  69.695 218.116 -0.06 -0.04    -0.320 N  
DOCKED: ATOM      8  H   UNL     1     144.003  69.129 218.178 +0.12 -0.03    +0.348 HD 
DOCKED: ATOM      9  H   UNL     1     145.208  69.672 217.121 +0.10 +0.05    +0.348 HD 
DOCKED: BRANCH   7  10
DOCKED: ATOM     10  C   UNL     1     145.914  69.084 218.975 -0.25 +0.10    +0.259 C  
DOCKED: ATOM     11  C   UNL     1     145.801  67.560 218.961 -0.48 -0.01    +0.071 C  
DOCKED: ENDBRANCH   7  10
DOCKED: ENDBRANCH   1   7
DOCKED: BRANCH   3  12
DOCKED: ATOM     12  C   UNL     1     142.417  73.056 220.863 -0.16 -0.03    +0.232 A  
DOCKED: ATOM     13  N   UNL     1     141.920  74.316 220.756 -0.21 +0.04    -0.176 NA 
DOCKED: ATOM     14  N   UNL     1     141.826  72.181 221.715 -0.11 +0.01    -0.176 NA 
DOCKED: ATOM     15  C   UNL     1     140.836  74.701 221.478 -0.23 -0.04    +0.232 A  
DOCKED: ATOM     16  C   UNL     1     140.749  72.549 222.457 -0.18 -0.01    +0.232 A  
DOCKED: ATOM     17  N   UNL     1     140.256  73.810 222.326 -0.80 -0.00    -0.176 NA 
DOCKED: BRANCH  15  18
DOCKED: ATOM     18  N   UNL     1     140.302  76.035 221.345 -0.15 +0.09    -0.336 N  
DOCKED: ATOM     19  C   UNL     1     140.306  76.734 220.057 -0.11 -0.04    +0.125 C  
DOCKED: ATOM     20  C   UNL     1     139.977  76.857 222.518 -0.22 -0.03    +0.155 C  
DOCKED: ATOM     21  C   UNL     1     141.419  77.783 220.064 -0.25 -0.03    +0.057 C  
DOCKED: ATOM     22  C   UNL     1     140.821  78.107 222.532 -0.43 +0.01    -0.025 A  
DOCKED: ATOM     23  C   UNL     1     141.446  78.581 221.351 -0.34 +0.02    -0.041 A  
DOCKED: ATOM     24  C   UNL     1     140.914  78.859 223.714 -0.46 -0.00    +0.006 A  
DOCKED: ATOM     25  C   UNL     1     142.191  79.771 221.397 -0.37 -0.00    +0.004 A  
DOCKED: ATOM     26  C   UNL     1     141.648  80.048 223.739 -0.59 -0.00    +0.000 A  
DOCKED: ATOM     27  C   UNL     1     142.288  80.501 222.584 -0.58 -0.00    +0.000 A  
DOCKED: ENDBRANCH  15  18
DOCKED: BRANCH  16  28
DOCKED: ATOM     28  N   UNL     1     140.141  71.621 223.381 -0.20 +0.05    -0.336 N  
DOCKED: ATOM     29  C   UNL     1     138.925  70.880 223.015 -0.22 -0.03    +0.125 C  
DOCKED: ATOM     30  C   UNL     1     140.605  71.569 224.778 -0.35 -0.02    +0.155 C  
DOCKED: ATOM     31  C   UNL     1     139.092  69.411 223.385 -0.23 -0.01    +0.057 C  
DOCKED: ATOM     32  C   UNL     1     140.250  70.273 225.470 -0.48 +0.00    -0.025 A  
DOCKED: ATOM     33  C   UNL     1     139.507  69.260 224.822 -0.36 +0.01    -0.041 A  
DOCKED: ATOM     34  C   UNL     1     140.658  70.082 226.801 -0.57 -0.00    +0.006 A  
DOCKED: ATOM     35  C   UNL     1     139.220  68.066 225.502 -0.50 -0.00    +0.004 A  
DOCKED: ATOM     36  C   UNL     1     140.351  68.895 227.472 -0.64 -0.00    +0.000 A  
DOCKED: ATOM     37  C   UNL     1     139.634  67.888 226.823 -0.64 -0.00    +0.000 A  
DOCKED: ENDBRANCH  16  28
DOCKED: ENDBRANCH   3  12
DOCKED: TORSDOF 5
DOCKED: TER
DOCKED: ENDMDL
________________________________________________________________________________


    FINAL DOCKED STATE:
    ________________________


Run:   8 / 20
Time taken for this run:   0.026s

DOCKED: MODEL        8
DOCKED: USER    Run = 8
DOCKED: USER
DOCKED: USER    Estimated Free Energy of Binding    =  -9.95 kcal/mol  [=(1)+(2)+(3)-(4)]
DOCKED: USER
DOCKED: USER    (1) Final Intermolecular Energy     = -11.44 kcal/mol
DOCKED: USER        vdW + Hbond + desolv Energy     = -10.64 kcal/mol
DOCKED: USER        Electrostatic Energy            =  -0.80 kcal/mol
DOCKED: USER        Moving Ligand-Fixed Receptor    = -11.44 kcal/mol
DOCKED: USER        Moving Ligand-Moving Receptor   =  +0.00 kcal/mol
DOCKED: USER    (2) Final Total Internal Energy     =  -0.85 kcal/mol
DOCKED: USER    (3) Torsional Free Energy           =  +1.49 kcal/mol
DOCKED: USER    (4) Unbound System's Energy         =  -0.85 kcal/mol
DOCKED: USER
DOCKED: USER
DOCKED: REMARK SMILES CC[NH2+][C@H]1CN(c2nc(N3CCc4ccccc4C3)nc(N3CCc4ccccc4C3)n2)CCO1
DOCKED: REMARK SMILES IDX 4 1 5 2 6 3 33 4 34 5 35 6 3 7 2 10 1 11 7 12 8 13 32 14
DOCKED: REMARK SMILES IDX 9 15 21 16 20 17 10 18 11 19 19 20 12 21 18 22 13 23 17 24
DOCKED: REMARK SMILES IDX 14 25 16 26 15 27 22 28 23 29 31 30 24 31 30 32 25 33 29 34
DOCKED: REMARK SMILES IDX 26 35 28 36 27 37
DOCKED: REMARK H PARENT 3 8 3 9
DOCKED: USER                              x       y       z     vdW  Elec       q    Type
DOCKED: USER                           _______ _______ _______ _____ _____    ______ ____
DOCKED: ROOT
DOCKED: ATOM      1  C   UNL     1     141.100  77.500 221.018 -0.16 -0.15    +0.340 C  
DOCKED: ATOM      2  C   UNL     1     141.417  76.150 221.694 +0.02 -0.10    +0.217 C  
DOCKED: ATOM      3  N   UNL     1     140.278  75.239 221.538 -0.18 +0.06    -0.330 N  
DOCKED: ATOM      4  C   UNL     1     138.936  75.787 221.764 -0.23 -0.03    +0.148 C  
DOCKED: ATOM      5  C   UNL     1     138.803  77.164 221.104 -0.11 -0.04    +0.188 C  
DOCKED: ATOM      6  O   UNL     1     139.864  78.017 221.491 -0.09 +0.09    -0.326 OA 
DOCKED: ENDROOT
DOCKED: BRANCH   1   7
DOCKED: ATOM      7  N   UNL     1     142.178  78.493 221.213 -0.11 +0.23    -0.320 N  
DOCKED: ATOM      8  H   UNL     1     142.937  78.069 221.796 -0.34 -0.42    +0.348 HD 
DOCKED: ATOM      9  H   UNL     1     142.581  78.709 220.271 -0.18 -0.31    +0.348 HD 
DOCKED: BRANCH   7  10
DOCKED: ATOM     10  C   UNL     1     141.727  79.748 221.844 -0.30 -0.10    +0.259 C  
DOCKED: ATOM     11  C   UNL     1     142.520  80.033 223.118 -0.60 -0.02    +0.071 C  
DOCKED: ENDBRANCH   7  10
DOCKED: ENDBRANCH   1   7
DOCKED: BRANCH   3  12
DOCKED: ATOM     12  C   UNL     1     140.484  73.813 221.594 -0.21 -0.03    +0.232 A  
DOCKED: ATOM     13  N   UNL     1     141.034  73.156 220.539 -0.12 +0.03    -0.176 NA 
DOCKED: ATOM     14  N   UNL     1     140.148  73.114 222.708 -0.66 +0.01    -0.176 NA 
DOCKED: ATOM     15  C   UNL     1     141.263  71.818 220.594 -0.11 -0.03    +0.232 A  
DOCKED: ATOM     16  C   UNL     1     140.355  71.772 222.778 -0.24 -0.03    +0.232 A  
DOCKED: ATOM     17  N   UNL     1     140.920  71.134 221.718 -0.07 +0.02    -0.176 NA 
DOCKED: BRANCH  15  18
DOCKED: ATOM     18  N   UNL     1     141.865  71.131 219.476 -0.03 +0.05    -0.336 N  
DOCKED: ATOM     19  C   UNL     1     141.259  69.924 218.907 -0.06 -0.02    +0.125 C  
DOCKED: ATOM     20  C   UNL     1     143.228  71.437 219.025 -0.10 -0.01    +0.155 C  
DOCKED: ATOM     21  C   UNL     1     142.059  68.704 219.368 -0.13 -0.01    +0.057 C  
DOCKED: ATOM     22  C   UNL     1     144.110  70.221 219.160 -0.21 -0.00    -0.025 A  
DOCKED: ATOM     23  C   UNL     1     143.554  68.920 219.252 -0.22 +0.00    -0.041 A  
DOCKED: ATOM     24  C   UNL     1     145.505  70.375 219.104 -0.31 +0.00    +0.006 A  
DOCKED: ATOM     25  C   UNL     1     144.409  67.810 219.336 -0.37 -0.00    +0.004 A  
DOCKED: ATOM     26  C   UNL     1     146.341  69.258 219.175 -0.37 +0.00    +0.000 A  
DOCKED: ATOM     27  C   UNL     1     145.795  67.979 219.294 -0.51 +0.00    +0.000 A  
DOCKED: ENDBRANCH  15  18
DOCKED: BRANCH  16  28
DOCKED: ATOM     28  N   UNL     1     139.971  71.030 223.956 -0.20 +0.06    -0.336 N  
DOCKED: ATOM     29  C   UNL     1     138.814  70.124 223.932 -0.26 -0.02    +0.125 C  
DOCKED: ATOM     30  C   UNL     1     140.600  71.339 225.251 -0.43 -0.02    +0.155 C  
DOCKED: ATOM     31  C   UNL     1     139.193  68.797 224.581 -0.34 -0.01    +0.057 C  
DOCKED: ATOM     32  C   UNL     1     140.481  70.209 226.249 -0.53 +0.00    -0.025 A  
DOCKED: ATOM     33  C   UNL     1     139.789  69.015 225.944 -0.47 +0.01    -0.041 A  
DOCKED: ATOM     34  C   UNL     1     141.063  70.362 227.518 -0.61 -0.00    +0.006 A  
DOCKED: ATOM     35  C   UNL     1     139.724  67.986 226.898 -0.64 -0.00    +0.004 A  
DOCKED: ATOM     36  C   UNL     1     140.977  69.337 228.464 -0.55 -0.00    +0.000 A  
DOCKED: ATOM     37  C   UNL     1     140.310  68.151 228.155 -0.61 -0.00    +0.000 A  
DOCKED: ENDBRANCH  16  28
DOCKED: ENDBRANCH   3  12
DOCKED: TORSDOF 5
DOCKED: TER
DOCKED: ENDMDL
________________________________________________________________________________


    FINAL DOCKED STATE:
    ________________________


Run:   9 / 20
Time taken for this run:   0.026s

DOCKED: MODEL        9
DOCKED: USER    Run = 9
DOCKED: USER
DOCKED: USER    Estimated Free Energy of Binding    =  -9.95 kcal/mol  [=(1)+(2)+(3)-(4)]
DOCKED: USER
DOCKED: USER    (1) Final Intermolecular Energy     = -11.44 kcal/mol
DOCKED: USER        vdW + Hbond + desolv Energy     = -10.64 kcal/mol
DOCKED: USER        Electrostatic Energy            =  -0.81 kcal/mol
DOCKED: USER        Moving Ligand-Fixed Receptor    = -11.44 kcal/mol
DOCKED: USER        Moving Ligand-Moving Receptor   =  +0.00 kcal/mol
DOCKED: USER    (2) Final Total Internal Energy     =  -0.85 kcal/mol
DOCKED: USER    (3) Torsional Free Energy           =  +1.49 kcal/mol
DOCKED: USER    (4) Unbound System's Energy         =  -0.85 kcal/mol
DOCKED: USER
DOCKED: USER
DOCKED: REMARK SMILES CC[NH2+][C@H]1CN(c2nc(N3CCc4ccccc4C3)nc(N3CCc4ccccc4C3)n2)CCO1
DOCKED: REMARK SMILES IDX 4 1 5 2 6 3 33 4 34 5 35 6 3 7 2 10 1 11 7 12 8 13 32 14
DOCKED: REMARK SMILES IDX 9 15 21 16 20 17 10 18 11 19 19 20 12 21 18 22 13 23 17 24
DOCKED: REMARK SMILES IDX 14 25 16 26 15 27 22 28 23 29 31 30 24 31 30 32 25 33 29 34
DOCKED: REMARK SMILES IDX 26 35 28 36 27 37
DOCKED: REMARK H PARENT 3 8 3 9
DOCKED: USER                              x       y       z     vdW  Elec       q    Type
DOCKED: USER                           _______ _______ _______ _____ _____    ______ ____
DOCKED: ROOT
DOCKED: ATOM      1  C   UNL     1     141.111  77.498 220.998 -0.16 -0.16    +0.340 C  
DOCKED: ATOM      2  C   UNL     1     141.426  76.151 221.682 +0.02 -0.10    +0.217 C  
DOCKED: ATOM      3  N   UNL     1     140.292  75.236 221.516 -0.17 +0.06    -0.330 N  
DOCKED: ATOM      4  C   UNL     1     138.945  75.780 221.726 -0.22 -0.03    +0.148 C  
DOCKED: ATOM      5  C   UNL     1     138.814  77.154 221.062 -0.11 -0.04    +0.188 C  
DOCKED: ATOM      6  O   UNL     1     139.869  78.012 221.457 -0.09 +0.09    -0.326 OA 
DOCKED: ENDROOT
DOCKED: BRANCH   1   7
DOCKED: ATOM      7  N   UNL     1     142.184  78.494 221.202 -0.11 +0.23    -0.320 N  
DOCKED: ATOM      8  H   UNL     1     142.946  78.069 221.780 -0.34 -0.42    +0.348 HD 
DOCKED: ATOM      9  H   UNL     1     142.585  78.722 220.262 -0.18 -0.31    +0.348 HD 
DOCKED: BRANCH   7  10
DOCKED: ATOM     10  C   UNL     1     141.727  79.741 221.846 -0.30 -0.10    +0.259 C  
DOCKED: ATOM     11  C   UNL     1     142.573  80.058 223.079 -0.61 -0.02    +0.071 C  
DOCKED: ENDBRANCH   7  10
DOCKED: ENDBRANCH   1   7
DOCKED: BRANCH   3  12
DOCKED: ATOM     12  C   UNL     1     140.502  73.810 221.577 -0.21 -0.03    +0.232 A  
DOCKED: ATOM     13  N   UNL     1     141.060  73.152 220.528 -0.12 +0.03    -0.176 NA 
DOCKED: ATOM     14  N   UNL     1     140.161  73.113 222.691 -0.66 +0.01    -0.176 NA 
DOCKED: ATOM     15  C   UNL     1     141.292  71.815 220.588 -0.11 -0.03    +0.232 A  
DOCKED: ATOM     16  C   UNL     1     140.371  71.773 222.767 -0.24 -0.03    +0.232 A  
DOCKED: ATOM     17  N   UNL     1     140.945  71.133 221.713 -0.07 +0.02    -0.176 NA 
DOCKED: BRANCH  15  18
DOCKED: ATOM     18  N   UNL     1     141.903  71.126 219.476 -0.03 +0.05    -0.336 N  
DOCKED: ATOM     19  C   UNL     1     141.269  69.956 218.863 -0.06 -0.02    +0.125 C  
DOCKED: ATOM     20  C   UNL     1     143.292  71.386 219.076 -0.10 -0.01    +0.155 C  
DOCKED: ATOM     21  C   UNL     1     142.004  68.695 219.323 -0.14 -0.01    +0.057 C  
DOCKED: ATOM     22  C   UNL     1     144.119  70.133 219.213 -0.21 -0.00    -0.025 A  
DOCKED: ATOM     23  C   UNL     1     143.509  68.854 219.260 -0.22 +0.00    -0.041 A  
DOCKED: ATOM     24  C   UNL     1     145.520  70.231 219.206 -0.29 +0.00    +0.006 A  
DOCKED: ATOM     25  C   UNL     1     144.317  67.709 219.349 -0.36 -0.00    +0.004 A  
DOCKED: ATOM     26  C   UNL     1     146.309  69.080 219.280 -0.39 +0.00    +0.000 A  
DOCKED: ATOM     27  C   UNL     1     145.709  67.822 219.355 -0.52 +0.00    +0.000 A  
DOCKED: ENDBRANCH  15  18
DOCKED: BRANCH  16  28
DOCKED: ATOM     28  N   UNL     1     139.982  71.033 223.945 -0.20 +0.06    -0.336 N  
DOCKED: ATOM     29  C   UNL     1     138.822  70.131 223.920 -0.26 -0.02    +0.125 C  
DOCKED: ATOM     30  C   UNL     1     140.611  71.341 225.241 -0.43 -0.02    +0.155 C  
DOCKED: ATOM     31  C   UNL     1     139.195  68.804 224.571 -0.34 -0.01    +0.057 C  
DOCKED: ATOM     32  C   UNL     1     140.485  70.212 226.239 -0.53 +0.00    -0.025 A  
DOCKED: ATOM     33  C   UNL     1     139.790  69.020 225.935 -0.47 +0.01    -0.041 A  
DOCKED: ATOM     34  C   UNL     1     141.066  70.364 227.509 -0.61 -0.00    +0.006 A  
DOCKED: ATOM     35  C   UNL     1     139.719  67.993 226.889 -0.64 -0.00    +0.004 A  
DOCKED: ATOM     36  C   UNL     1     140.974  69.341 228.456 -0.55 -0.00    +0.000 A  
DOCKED: ATOM     37  C   UNL     1     140.303  68.157 228.147 -0.61 -0.00    +0.000 A  
DOCKED: ENDBRANCH  16  28
DOCKED: ENDBRANCH   3  12
DOCKED: TORSDOF 5
DOCKED: TER
DOCKED: ENDMDL
________________________________________________________________________________


    FINAL DOCKED STATE:
    ________________________


Run:   10 / 20
Time taken for this run:   0.026s

DOCKED: MODEL        10
DOCKED: USER    Run = 10
DOCKED: USER
DOCKED: USER    Estimated Free Energy of Binding    =  -9.83 kcal/mol  [=(1)+(2)+(3)-(4)]
DOCKED: USER
DOCKED: USER    (1) Final Intermolecular Energy     = -11.32 kcal/mol
DOCKED: USER        vdW + Hbond + desolv Energy     = -11.02 kcal/mol
DOCKED: USER        Electrostatic Energy            =  -0.31 kcal/mol
DOCKED: USER        Moving Ligand-Fixed Receptor    = -11.32 kcal/mol
DOCKED: USER        Moving Ligand-Moving Receptor   =  +0.00 kcal/mol
DOCKED: USER    (2) Final Total Internal Energy     =  -0.87 kcal/mol
DOCKED: USER    (3) Torsional Free Energy           =  +1.49 kcal/mol
DOCKED: USER    (4) Unbound System's Energy         =  -0.87 kcal/mol
DOCKED: USER
DOCKED: USER
DOCKED: REMARK SMILES CC[NH2+][C@H]1CN(c2nc(N3CCc4ccccc4C3)nc(N3CCc4ccccc4C3)n2)CCO1
DOCKED: REMARK SMILES IDX 4 1 5 2 6 3 33 4 34 5 35 6 3 7 2 10 1 11 7 12 8 13 32 14
DOCKED: REMARK SMILES IDX 9 15 21 16 20 17 10 18 11 19 19 20 12 21 18 22 13 23 17 24
DOCKED: REMARK SMILES IDX 14 25 16 26 15 27 22 28 23 29 31 30 24 31 30 32 25 33 29 34
DOCKED: REMARK SMILES IDX 26 35 28 36 27 37
DOCKED: REMARK H PARENT 3 8 3 9
DOCKED: USER                              x       y       z     vdW  Elec       q    Type
DOCKED: USER                           _______ _______ _______ _____ _____    ______ ____
DOCKED: ROOT
DOCKED: ATOM      1  C   UNL     1     144.852  73.427 217.911 -0.07 -0.01    +0.340 C  
DOCKED: ATOM      2  C   UNL     1     143.440  73.255 218.508 -0.08 -0.04    +0.217 C  
DOCKED: ATOM      3  N   UNL     1     143.533  73.130 219.967 -0.11 +0.06    -0.330 N  
DOCKED: ATOM      4  C   UNL     1     144.585  72.262 220.508 -0.29 -0.02    +0.148 C  
DOCKED: ATOM      5  C   UNL     1     145.903  72.488 219.758 -0.29 +0.09    +0.188 C  
DOCKED: ATOM      6  O   UNL     1     145.714  72.391 218.359 -0.66 -0.28    -0.326 OA 
DOCKED: ENDROOT
DOCKED: BRANCH   1   7
DOCKED: ATOM      7  N   UNL     1     144.834  73.474 216.433 -0.04 +0.02    -0.320 N  
DOCKED: ATOM      8  H   UNL     1     145.534  72.793 216.057 +0.07 +0.06    +0.348 HD 
DOCKED: ATOM      9  H   UNL     1     143.884  73.163 216.120 +0.06 -0.05    +0.348 HD 
DOCKED: BRANCH   7  10
DOCKED: ATOM     10  C   UNL     1     145.110  74.812 215.874 -0.10 -0.09    +0.259 C  
DOCKED: ATOM     11  C   UNL     1     144.071  75.825 216.350 -0.19 -0.04    +0.071 C  
DOCKED: ENDBRANCH   7  10
DOCKED: ENDBRANCH   1   7
DOCKED: BRANCH   3  12
DOCKED: ATOM     12  C   UNL     1     142.403  73.479 220.793 -0.17 -0.04    +0.232 A  
DOCKED: ATOM     13  N   UNL     1     141.902  74.742 220.772 -0.22 +0.05    -0.176 NA 
DOCKED: ATOM     14  N   UNL     1     141.818  72.546 221.585 -0.16 +0.01    -0.176 NA 
DOCKED: ATOM     15  C   UNL     1     140.817  75.072 221.521 -0.24 -0.05    +0.232 A  
DOCKED: ATOM     16  C   UNL     1     140.741  72.859 222.353 -0.16 -0.01    +0.232 A  
DOCKED: ATOM     17  N   UNL     1     140.243  74.124 222.309 -0.78 -0.01    -0.176 NA 
DOCKED: BRANCH  15  18
DOCKED: ATOM     18  N   UNL     1     140.279  76.411 221.480 -0.15 +0.10    -0.336 N  
DOCKED: ATOM     19  C   UNL     1     140.154  77.144 220.217 -0.12 -0.04    +0.125 C  
DOCKED: ATOM     20  C   UNL     1     140.078  77.200 222.702 -0.19 -0.03    +0.155 C  
DOCKED: ATOM     21  C   UNL     1     141.267  78.191 220.140 -0.24 -0.03    +0.057 C  
DOCKED: ATOM     22  C   UNL     1     140.924  78.448 222.664 -0.45 +0.01    -0.025 A  
DOCKED: ATOM     23  C   UNL     1     141.428  78.954 221.439 -0.35 +0.02    -0.041 A  
DOCKED: ATOM     24  C   UNL     1     141.141  79.167 223.851 -0.56 -0.00    +0.006 A  
DOCKED: ATOM     25  C   UNL     1     142.179  80.140 221.441 -0.42 -0.00    +0.004 A  
DOCKED: ATOM     26  C   UNL     1     141.878  80.354 223.833 -0.61 -0.00    +0.000 A  
DOCKED: ATOM     27  C   UNL     1     142.399  80.838 222.631 -0.57 -0.00    +0.000 A  
DOCKED: ENDBRANCH  15  18
DOCKED: BRANCH  16  28
DOCKED: ATOM     28  N   UNL     1     140.138  71.868 223.214 -0.20 +0.05    -0.336 N  
DOCKED: ATOM     29  C   UNL     1     138.905  71.174 222.816 -0.21 -0.03    +0.125 C  
DOCKED: ATOM     30  C   UNL     1     140.630  71.701 224.592 -0.26 -0.02    +0.155 C  
DOCKED: ATOM     31  C   UNL     1     139.059  69.678 223.066 -0.21 -0.01    +0.057 C  
DOCKED: ATOM     32  C   UNL     1     140.270  70.359 225.188 -0.46 +0.00    -0.025 A  
DOCKED: ATOM     33  C   UNL     1     139.501  69.409 224.478 -0.32 +0.01    -0.041 A  
DOCKED: ATOM     34  C   UNL     1     140.702  70.058 226.490 -0.56 -0.00    +0.006 A  
DOCKED: ATOM     35  C   UNL     1     139.210  68.169 225.067 -0.44 -0.00    +0.004 A  
DOCKED: ATOM     36  C   UNL     1     140.392  68.826 227.072 -0.63 -0.00    +0.000 A  
DOCKED: ATOM     37  C   UNL     1     139.649  67.882 226.361 -0.64 -0.00    +0.000 A  
DOCKED: ENDBRANCH  16  28
DOCKED: ENDBRANCH   3  12
DOCKED: TORSDOF 5
DOCKED: TER
DOCKED: ENDMDL
________________________________________________________________________________


    FINAL DOCKED STATE:
    ________________________


Run:   11 / 20
Time taken for this run:   0.026s

DOCKED: MODEL        11
DOCKED: USER    Run = 11
DOCKED: USER
DOCKED: USER    Estimated Free Energy of Binding    =  -9.80 kcal/mol  [=(1)+(2)+(3)-(4)]
DOCKED: USER
DOCKED: USER    (1) Final Intermolecular Energy     = -11.29 kcal/mol
DOCKED: USER        vdW + Hbond + desolv Energy     = -11.28 kcal/mol
DOCKED: USER        Electrostatic Energy            =  -0.01 kcal/mol
DOCKED: USER        Moving Ligand-Fixed Receptor    = -11.29 kcal/mol
DOCKED: USER        Moving Ligand-Moving Receptor   =  +0.00 kcal/mol
DOCKED: USER    (2) Final Total Internal Energy     =  -0.86 kcal/mol
DOCKED: USER    (3) Torsional Free Energy           =  +1.49 kcal/mol
DOCKED: USER    (4) Unbound System's Energy         =  -0.86 kcal/mol
DOCKED: USER
DOCKED: USER
DOCKED: REMARK SMILES CC[NH2+][C@H]1CN(c2nc(N3CCc4ccccc4C3)nc(N3CCc4ccccc4C3)n2)CCO1
DOCKED: REMARK SMILES IDX 4 1 5 2 6 3 33 4 34 5 35 6 3 7 2 10 1 11 7 12 8 13 32 14
DOCKED: REMARK SMILES IDX 9 15 21 16 20 17 10 18 11 19 19 20 12 21 18 22 13 23 17 24
DOCKED: REMARK SMILES IDX 14 25 16 26 15 27 22 28 23 29 31 30 24 31 30 32 25 33 29 34
DOCKED: REMARK SMILES IDX 26 35 28 36 27 37
DOCKED: REMARK H PARENT 3 8 3 9
DOCKED: USER                              x       y       z     vdW  Elec       q    Type
DOCKED: USER                           _______ _______ _______ _____ _____    ______ ____
DOCKED: ROOT
DOCKED: ATOM      1  C   UNL     1     144.755  71.077 218.679 -0.09 +0.08    +0.340 C  
DOCKED: ATOM      2  C   UNL     1     144.002  71.360 219.996 -0.17 -0.01    +0.217 C  
DOCKED: ATOM      3  N   UNL     1     143.559  72.758 220.020 -0.10 +0.05    -0.330 N  
DOCKED: ATOM      4  C   UNL     1     144.514  73.781 219.577 -0.30 -0.03    +0.148 C  
DOCKED: ATOM      5  C   UNL     1     145.241  73.319 218.310 -0.14 +0.03    +0.188 C  
DOCKED: ATOM      6  O   UNL     1     145.793  72.026 218.484 -0.58 -0.33    -0.326 OA 
DOCKED: ENDROOT
DOCKED: BRANCH   1   7
DOCKED: ATOM      7  N   UNL     1     145.301  69.704 218.631 -0.12 -0.09    -0.320 N  
DOCKED: ATOM      8  H   UNL     1     145.277  69.357 217.643 +0.12 +0.05    +0.348 HD 
DOCKED: ATOM      9  H   UNL     1     146.305  69.754 218.928 +0.16 +0.25    +0.348 HD 
DOCKED: BRANCH   7  10
DOCKED: ATOM     10  C   UNL     1     144.589  68.746 219.498 -0.20 +0.03    +0.259 C  
DOCKED: ATOM     11  C   UNL     1     145.405  67.467 219.680 -0.46 -0.00    +0.071 C  
DOCKED: ENDBRANCH   7  10
DOCKED: ENDBRANCH   1   7
DOCKED: BRANCH   3  12
DOCKED: ATOM     12  C   UNL     1     142.431  73.142 220.834 -0.17 -0.04    +0.232 A  
DOCKED: ATOM     13  N   UNL     1     141.928  74.402 220.761 -0.21 +0.05    -0.176 NA 
DOCKED: ATOM     14  N   UNL     1     141.849  72.243 221.668 -0.12 +0.01    -0.176 NA 
DOCKED: ATOM     15  C   UNL     1     140.846  74.764 221.498 -0.23 -0.04    +0.232 A  
DOCKED: ATOM     16  C   UNL     1     140.775  72.589 222.425 -0.17 -0.01    +0.232 A  
DOCKED: ATOM     17  N   UNL     1     140.275  73.850 222.328 -0.79 -0.00    -0.176 NA 
DOCKED: BRANCH  15  18
DOCKED: ATOM     18  N   UNL     1     140.306  76.099 221.401 -0.15 +0.09    -0.336 N  
DOCKED: ATOM     19  C   UNL     1     140.257  76.811 220.121 -0.12 -0.04    +0.125 C  
DOCKED: ATOM     20  C   UNL     1     140.027  76.908 222.595 -0.19 -0.03    +0.155 C  
DOCKED: ATOM     21  C   UNL     1     141.368  77.862 220.095 -0.24 -0.03    +0.057 C  
DOCKED: ATOM     22  C   UNL     1     140.869  78.159 222.588 -0.44 +0.01    -0.025 A  
DOCKED: ATOM     23  C   UNL     1     141.446  78.646 221.388 -0.35 +0.02    -0.041 A  
DOCKED: ATOM     24  C   UNL     1     141.009  78.898 223.773 -0.49 -0.00    +0.006 A  
DOCKED: ATOM     25  C   UNL     1     142.191  79.836 221.417 -0.38 -0.00    +0.004 A  
DOCKED: ATOM     26  C   UNL     1     141.742  80.088 223.781 -0.60 -0.00    +0.000 A  
DOCKED: ATOM     27  C   UNL     1     142.334  80.554 222.606 -0.59 -0.00    +0.000 A  
DOCKED: ENDBRANCH  15  18
DOCKED: BRANCH  16  28
DOCKED: ATOM     28  N   UNL     1     140.175  71.635 223.330 -0.20 +0.05    -0.336 N  
DOCKED: ATOM     29  C   UNL     1     138.953  70.908 222.958 -0.22 -0.03    +0.125 C  
DOCKED: ATOM     30  C   UNL     1     140.657  71.543 224.718 -0.35 -0.02    +0.155 C  
DOCKED: ATOM     31  C   UNL     1     139.122  69.428 223.283 -0.23 -0.01    +0.057 C  
DOCKED: ATOM     32  C   UNL     1     140.307  70.228 225.377 -0.47 +0.00    -0.025 A  
DOCKED: ATOM     33  C   UNL     1     139.554  69.236 224.710 -0.34 +0.01    -0.041 A  
DOCKED: ATOM     34  C   UNL     1     140.732  69.997 226.697 -0.56 -0.00    +0.006 A  
DOCKED: ATOM     35  C   UNL     1     139.272  68.023 225.359 -0.47 -0.00    +0.004 A  
DOCKED: ATOM     36  C   UNL     1     140.430  68.793 227.337 -0.64 -0.00    +0.000 A  
DOCKED: ATOM     37  C   UNL     1     139.703  67.806 226.669 -0.65 -0.00    +0.000 A  
DOCKED: ENDBRANCH  16  28
DOCKED: ENDBRANCH   3  12
DOCKED: TORSDOF 5
DOCKED: TER
DOCKED: ENDMDL
________________________________________________________________________________


    FINAL DOCKED STATE:
    ________________________


Run:   12 / 20
Time taken for this run:   0.026s

DOCKED: MODEL        12
DOCKED: USER    Run = 12
DOCKED: USER
DOCKED: USER    Estimated Free Energy of Binding    = -10.19 kcal/mol  [=(1)+(2)+(3)-(4)]
DOCKED: USER
DOCKED: USER    (1) Final Intermolecular Energy     = -11.68 kcal/mol
DOCKED: USER        vdW + Hbond + desolv Energy     = -11.28 kcal/mol
DOCKED: USER        Electrostatic Energy            =  -0.40 kcal/mol
DOCKED: USER        Moving Ligand-Fixed Receptor    = -11.68 kcal/mol
DOCKED: USER        Moving Ligand-Moving Receptor   =  +0.00 kcal/mol
DOCKED: USER    (2) Final Total Internal Energy     =  -0.89 kcal/mol
DOCKED: USER    (3) Torsional Free Energy           =  +1.49 kcal/mol
DOCKED: USER    (4) Unbound System's Energy         =  -0.89 kcal/mol
DOCKED: USER
DOCKED: USER
DOCKED: REMARK SMILES CC[NH2+][C@H]1CN(c2nc(N3CCc4ccccc4C3)nc(N3CCc4ccccc4C3)n2)CCO1
DOCKED: REMARK SMILES IDX 4 1 5 2 6 3 33 4 34 5 35 6 3 7 2 10 1 11 7 12 8 13 32 14
DOCKED: REMARK SMILES IDX 9 15 21 16 20 17 10 18 11 19 19 20 12 21 18 22 13 23 17 24
DOCKED: REMARK SMILES IDX 14 25 16 26 15 27 22 28 23 29 31 30 24 31 30 32 25 33 29 34
DOCKED: REMARK SMILES IDX 26 35 28 36 27 37
DOCKED: REMARK H PARENT 3 8 3 9
DOCKED: USER                              x       y       z     vdW  Elec       q    Type
DOCKED: USER                           _______ _______ _______ _____ _____    ______ ____
DOCKED: ROOT
DOCKED: ATOM      1  C   UNL     1     145.063  73.624 218.153 +0.04 -0.02    +0.340 C  
DOCKED: ATOM      2  C   UNL     1     143.587  73.654 218.602 -0.10 -0.05    +0.217 C  
DOCKED: ATOM      3  N   UNL     1     143.465  73.066 219.940 -0.10 +0.06    -0.330 N  
DOCKED: ATOM      4  C   UNL     1     144.207  71.828 220.207 -0.23 -0.01    +0.148 C  
DOCKED: ATOM      5  C   UNL     1     145.624  71.920 219.629 -0.23 +0.08    +0.188 C  
DOCKED: ATOM      6  O   UNL     1     145.593  72.312 218.270 -0.64 -0.24    -0.326 OA 
DOCKED: ENDROOT
DOCKED: BRANCH   1   7
DOCKED: ATOM      7  N   UNL     1     145.241  74.128 216.775 -0.06 +0.06    -0.320 N  
DOCKED: ATOM      8  H   UNL     1     145.955  74.894 216.775 -0.40 -0.17    +0.348 HD 
DOCKED: ATOM      9  H   UNL     1     145.618  73.339 216.198 +0.08 +0.04    +0.348 HD 
DOCKED: BRANCH   7  10
DOCKED: ATOM     10  C   UNL     1     143.997  74.625 216.155 -0.07 -0.09    +0.259 C  
DOCKED: ATOM     11  C   UNL     1     143.852  76.133 216.361 -0.19 -0.04    +0.071 C  
DOCKED: ENDBRANCH   7  10
DOCKED: ENDBRANCH   1   7
DOCKED: BRANCH   3  12
DOCKED: ATOM     12  C   UNL     1     142.355  73.428 220.787 -0.17 -0.04    +0.232 A  
DOCKED: ATOM     13  N   UNL     1     141.860  74.693 220.767 -0.21 +0.05    -0.176 NA 
DOCKED: ATOM     14  N   UNL     1     141.782  72.504 221.599 -0.16 +0.01    -0.176 NA 
DOCKED: ATOM     15  C   UNL     1     140.794  75.035 221.537 -0.24 -0.04    +0.232 A  
DOCKED: ATOM     16  C   UNL     1     140.724  72.829 222.388 -0.15 -0.01    +0.232 A  
DOCKED: ATOM     17  N   UNL     1     140.232  74.096 222.344 -0.78 -0.01    -0.176 NA 
DOCKED: BRANCH  15  18
DOCKED: ATOM     18  N   UNL     1     140.262  76.377 221.497 -0.15 +0.09    -0.336 N  
DOCKED: ATOM     19  C   UNL     1     140.134  77.109 220.234 -0.12 -0.04    +0.125 C  
DOCKED: ATOM     20  C   UNL     1     140.073  77.169 222.719 -0.17 -0.03    +0.155 C  
DOCKED: ATOM     21  C   UNL     1     141.252  78.150 220.149 -0.24 -0.03    +0.057 C  
DOCKED: ATOM     22  C   UNL     1     140.925  78.412 222.674 -0.46 +0.01    -0.025 A  
DOCKED: ATOM     23  C   UNL     1     141.425  78.914 221.446 -0.35 +0.02    -0.041 A  
DOCKED: ATOM     24  C   UNL     1     141.152  79.132 223.859 -0.56 -0.00    +0.006 A  
DOCKED: ATOM     25  C   UNL     1     142.181  80.096 221.442 -0.42 -0.00    +0.004 A  
DOCKED: ATOM     26  C   UNL     1     141.896  80.315 223.835 -0.61 -0.00    +0.000 A  
DOCKED: ATOM     27  C   UNL     1     142.413  80.794 222.630 -0.57 -0.00    +0.000 A  
DOCKED: ENDBRANCH  15  18
DOCKED: BRANCH  16  28
DOCKED: ATOM     28  N   UNL     1     140.134  71.848 223.269 -0.20 +0.05    -0.336 N  
DOCKED: ATOM     29  C   UNL     1     138.903  71.140 222.892 -0.21 -0.03    +0.125 C  
DOCKED: ATOM     30  C   UNL     1     140.638  71.706 224.645 -0.26 -0.02    +0.155 C  
DOCKED: ATOM     31  C   UNL     1     139.068  69.649 223.164 -0.22 -0.01    +0.057 C  
DOCKED: ATOM     32  C   UNL     1     140.291  70.371 225.265 -0.47 +0.00    -0.025 A  
DOCKED: ATOM     33  C   UNL     1     139.522  69.406 224.576 -0.33 +0.01    -0.041 A  
DOCKED: ATOM     34  C   UNL     1     140.735  70.094 226.569 -0.56 -0.00    +0.006 A  
DOCKED: ATOM     35  C   UNL     1     139.244  68.173 225.188 -0.46 -0.00    +0.004 A  
DOCKED: ATOM     36  C   UNL     1     140.438  68.870 227.172 -0.63 -0.00    +0.000 A  
DOCKED: ATOM     37  C   UNL     1     139.695  67.910 226.483 -0.65 -0.00    +0.000 A  
DOCKED: ENDBRANCH  16  28
DOCKED: ENDBRANCH   3  12
DOCKED: TORSDOF 5
DOCKED: TER
DOCKED: ENDMDL
________________________________________________________________________________


    FINAL DOCKED STATE:
    ________________________


Run:   13 / 20
Time taken for this run:   0.026s

DOCKED: MODEL        13
DOCKED: USER    Run = 13
DOCKED: USER
DOCKED: USER    Estimated Free Energy of Binding    =  -9.73 kcal/mol  [=(1)+(2)+(3)-(4)]
DOCKED: USER
DOCKED: USER    (1) Final Intermolecular Energy     = -11.22 kcal/mol
DOCKED: USER        vdW + Hbond + desolv Energy     = -10.44 kcal/mol
DOCKED: USER        Electrostatic Energy            =  -0.78 kcal/mol
DOCKED: USER        Moving Ligand-Fixed Receptor    = -11.22 kcal/mol
DOCKED: USER        Moving Ligand-Moving Receptor   =  +0.00 kcal/mol
DOCKED: USER    (2) Final Total Internal Energy     =  -0.84 kcal/mol
DOCKED: USER    (3) Torsional Free Energy           =  +1.49 kcal/mol
DOCKED: USER    (4) Unbound System's Energy         =  -0.84 kcal/mol
DOCKED: USER
DOCKED: USER
DOCKED: REMARK SMILES CC[NH2+][C@H]1CN(c2nc(N3CCc4ccccc4C3)nc(N3CCc4ccccc4C3)n2)CCO1
DOCKED: REMARK SMILES IDX 4 1 5 2 6 3 33 4 34 5 35 6 3 7 2 10 1 11 7 12 8 13 32 14
DOCKED: REMARK SMILES IDX 9 15 21 16 20 17 10 18 11 19 19 20 12 21 18 22 13 23 17 24
DOCKED: REMARK SMILES IDX 14 25 16 26 15 27 22 28 23 29 31 30 24 31 30 32 25 33 29 34
DOCKED: REMARK SMILES IDX 26 35 28 36 27 37
DOCKED: REMARK H PARENT 3 8 3 9
DOCKED: USER                              x       y       z     vdW  Elec       q    Type
DOCKED: USER                           _______ _______ _______ _____ _____    ______ ____
DOCKED: ROOT
DOCKED: ATOM      1  C   UNL     1     141.192  77.545 221.035 -0.16 -0.16    +0.340 C  
DOCKED: ATOM      2  C   UNL     1     141.321  76.191 221.765 -0.01 -0.09    +0.217 C  
DOCKED: ATOM      3  N   UNL     1     140.297  75.264 221.272 -0.15 +0.07    -0.330 N  
DOCKED: ATOM      4  C   UNL     1     138.937  75.787 221.094 -0.15 -0.03    +0.148 C  
DOCKED: ATOM      5  C   UNL     1     138.979  77.170 220.435 -0.06 -0.05    +0.188 C  
DOCKED: ATOM      6  O   UNL     1     139.862  78.035 221.124 -0.07 +0.10    -0.326 OA 
DOCKED: ENDROOT
DOCKED: BRANCH   1   7
DOCKED: ATOM      7  N   UNL     1     142.145  78.552 221.548 -0.14 +0.22    -0.320 N  
DOCKED: ATOM      8  H   UNL     1     142.955  78.065 221.997 -0.30 -0.42    +0.348 HD 
DOCKED: ATOM      9  H   UNL     1     142.510  79.088 220.725 -0.17 -0.29    +0.348 HD 
DOCKED: BRANCH   7  10
DOCKED: ATOM     10  C   UNL     1     141.552  79.497 222.513 -0.34 -0.09    +0.259 C  
DOCKED: ATOM     11  C   UNL     1     142.192  80.879 222.385 -0.50 -0.02    +0.071 C  
DOCKED: ENDBRANCH   7  10
DOCKED: ENDBRANCH   1   7
DOCKED: BRANCH   3  12
DOCKED: ATOM     12  C   UNL     1     140.505  73.841 221.375 -0.20 -0.03    +0.232 A  
DOCKED: ATOM     13  N   UNL     1     141.073  73.153 220.351 -0.10 +0.03    -0.176 NA 
DOCKED: ATOM     14  N   UNL     1     140.152  73.176 222.505 -0.69 +0.01    -0.176 NA 
DOCKED: ATOM     15  C   UNL     1     141.303  71.818 220.452 -0.10 -0.03    +0.232 A  
DOCKED: ATOM     16  C   UNL     1     140.360  71.838 222.621 -0.23 -0.03    +0.232 A  
DOCKED: ATOM     17  N   UNL     1     140.944  71.168 221.591 -0.09 +0.02    -0.176 NA 
DOCKED: BRANCH  15  18
DOCKED: ATOM     18  N   UNL     1     141.925  71.097 219.366 -0.02 +0.05    -0.336 N  
DOCKED: ATOM     19  C   UNL     1     141.296  69.911 218.778 -0.05 -0.02    +0.125 C  
DOCKED: ATOM     20  C   UNL     1     143.319  71.344 218.973 -0.10 -0.01    +0.155 C  
DOCKED: ATOM     21  C   UNL     1     142.024  68.663 219.281 -0.14 -0.01    +0.057 C  
DOCKED: ATOM     22  C   UNL     1     144.142  70.094 219.155 -0.21 -0.00    -0.025 A  
DOCKED: ATOM     23  C   UNL     1     143.529  68.818 219.231 -0.22 +0.00    -0.041 A  
DOCKED: ATOM     24  C   UNL     1     145.543  70.190 219.160 -0.30 +0.00    +0.006 A  
DOCKED: ATOM     25  C   UNL     1     144.334  67.674 219.360 -0.36 -0.00    +0.004 A  
DOCKED: ATOM     26  C   UNL     1     146.330  69.040 219.274 -0.39 +0.00    +0.000 A  
DOCKED: ATOM     27  C   UNL     1     145.726  67.785 219.378 -0.53 +0.00    +0.000 A  
DOCKED: ENDBRANCH  15  18
DOCKED: BRANCH  16  28
DOCKED: ATOM     28  N   UNL     1     139.958  71.132 223.815 -0.20 +0.06    -0.336 N  
DOCKED: ATOM     29  C   UNL     1     138.784  70.247 223.809 -0.25 -0.02    +0.125 C  
DOCKED: ATOM     30  C   UNL     1     140.589  71.460 225.105 -0.41 -0.02    +0.155 C  
DOCKED: ATOM     31  C   UNL     1     139.136  68.930 224.491 -0.33 -0.01    +0.057 C  
DOCKED: ATOM     32  C   UNL     1     140.445  70.357 226.129 -0.54 +0.00    -0.025 A  
DOCKED: ATOM     33  C   UNL     1     139.732  69.169 225.851 -0.45 +0.01    -0.041 A  
DOCKED: ATOM     34  C   UNL     1     141.026  70.530 227.396 -0.62 -0.00    +0.006 A  
DOCKED: ATOM     35  C   UNL     1     139.644  68.166 226.829 -0.62 -0.00    +0.004 A  
DOCKED: ATOM     36  C   UNL     1     140.916  69.531 228.367 -0.58 -0.00    +0.000 A  
DOCKED: ATOM     37  C   UNL     1     140.228  68.351 228.084 -0.64 -0.00    +0.000 A  
DOCKED: ENDBRANCH  16  28
DOCKED: ENDBRANCH   3  12
DOCKED: TORSDOF 5
DOCKED: TER
DOCKED: ENDMDL
________________________________________________________________________________


    FINAL DOCKED STATE:
    ________________________


Run:   14 / 20
Time taken for this run:   0.026s

DOCKED: MODEL        14
DOCKED: USER    Run = 14
DOCKED: USER
DOCKED: USER    Estimated Free Energy of Binding    =  -9.96 kcal/mol  [=(1)+(2)+(3)-(4)]
DOCKED: USER
DOCKED: USER    (1) Final Intermolecular Energy     = -11.45 kcal/mol
DOCKED: USER        vdW + Hbond + desolv Energy     = -11.31 kcal/mol
DOCKED: USER        Electrostatic Energy            =  -0.14 kcal/mol
DOCKED: USER        Moving Ligand-Fixed Receptor    = -11.45 kcal/mol
DOCKED: USER        Moving Ligand-Moving Receptor   =  +0.00 kcal/mol
DOCKED: USER    (2) Final Total Internal Energy     =  -0.85 kcal/mol
DOCKED: USER    (3) Torsional Free Energy           =  +1.49 kcal/mol
DOCKED: USER    (4) Unbound System's Energy         =  -0.85 kcal/mol
DOCKED: USER
DOCKED: USER
DOCKED: REMARK SMILES CC[NH2+][C@H]1CN(c2nc(N3CCc4ccccc4C3)nc(N3CCc4ccccc4C3)n2)CCO1
DOCKED: REMARK SMILES IDX 4 1 5 2 6 3 33 4 34 5 35 6 3 7 2 10 1 11 7 12 8 13 32 14
DOCKED: REMARK SMILES IDX 9 15 21 16 20 17 10 18 11 19 19 20 12 21 18 22 13 23 17 24
DOCKED: REMARK SMILES IDX 14 25 16 26 15 27 22 28 23 29 31 30 24 31 30 32 25 33 29 34
DOCKED: REMARK SMILES IDX 26 35 28 36 27 37
DOCKED: REMARK H PARENT 3 8 3 9
DOCKED: USER                              x       y       z     vdW  Elec       q    Type
DOCKED: USER                           _______ _______ _______ _____ _____    ______ ____
DOCKED: ROOT
DOCKED: ATOM      1  C   UNL     1     144.548  70.963 218.486 -0.07 +0.06    +0.340 C  
DOCKED: ATOM      2  C   UNL     1     143.703  71.116 219.769 -0.15 -0.01    +0.217 C  
DOCKED: ATOM      3  N   UNL     1     143.544  72.539 220.089 -0.10 +0.04    -0.330 N  
DOCKED: ATOM      4  C   UNL     1     144.730  73.396 219.978 -0.37 -0.02    +0.148 C  
DOCKED: ATOM      5  C   UNL     1     145.509  73.068 218.700 -0.19 +0.07    +0.188 C  
DOCKED: ATOM      6  O   UNL     1     145.769  71.680 218.605 -0.51 -0.32    -0.326 OA 
DOCKED: ENDROOT
DOCKED: BRANCH   1   7
DOCKED: ATOM      7  N   UNL     1     144.816  69.547 218.156 -0.06 -0.03    -0.320 N  
DOCKED: ATOM      8  H   UNL     1     144.014  69.163 217.604 +0.10 -0.04    +0.348 HD 
DOCKED: ATOM      9  H   UNL     1     145.666  69.522 217.545 +0.12 +0.09    +0.348 HD 
DOCKED: BRANCH   7  10
DOCKED: ATOM     10  C   UNL     1     145.045  68.692 219.337 -0.24 +0.04    +0.259 C  
DOCKED: ATOM     11  C   UNL     1     145.918  67.490 218.976 -0.49 -0.01    +0.071 C  
DOCKED: ENDBRANCH   7  10
DOCKED: ENDBRANCH   1   7
DOCKED: BRANCH   3  12
DOCKED: ATOM     12  C   UNL     1     142.419  72.977 220.878 -0.16 -0.03    +0.232 A  
DOCKED: ATOM     13  N   UNL     1     141.927  74.235 220.733 -0.20 +0.04    -0.176 NA 
DOCKED: ATOM     14  N   UNL     1     141.828  72.132 221.760 -0.09 +0.01    -0.176 NA 
DOCKED: ATOM     15  C   UNL     1     140.848  74.648 221.447 -0.22 -0.04    +0.232 A  
DOCKED: ATOM     16  C   UNL     1     140.756  72.529 222.495 -0.17 -0.01    +0.232 A  
DOCKED: ATOM     17  N   UNL     1     140.268  73.787 222.326 -0.80 -0.00    -0.176 NA 
DOCKED: BRANCH  15  18
DOCKED: ATOM     18  N   UNL     1     140.320  75.980 221.274 -0.14 +0.09    -0.336 N  
DOCKED: ATOM     19  C   UNL     1     140.397  76.670 219.983 -0.12 -0.04    +0.125 C  
DOCKED: ATOM     20  C   UNL     1     139.923  76.808 222.421 -0.26 -0.03    +0.155 C  
DOCKED: ATOM     21  C   UNL     1     141.505  77.722 220.050 -0.25 -0.03    +0.057 C  
DOCKED: ATOM     22  C   UNL     1     140.762  78.060 222.476 -0.42 +0.01    -0.025 A  
DOCKED: ATOM     23  C   UNL     1     141.455  78.529 221.331 -0.34 +0.02    -0.041 A  
DOCKED: ATOM     24  C   UNL     1     140.784  78.820 223.657 -0.42 -0.00    +0.006 A  
DOCKED: ATOM     25  C   UNL     1     142.192  79.721 221.412 -0.37 -0.00    +0.004 A  
DOCKED: ATOM     26  C   UNL     1     141.511  80.012 223.716 -0.57 -0.00    +0.000 A  
DOCKED: ATOM     27  C   UNL     1     142.218  80.459 222.598 -0.58 -0.00    +0.000 A  
DOCKED: ENDBRANCH  15  18
DOCKED: BRANCH  16  28
DOCKED: ATOM     28  N   UNL     1     140.148  71.633 223.451 -0.20 +0.05    -0.336 N  
DOCKED: ATOM     29  C   UNL     1     138.896  70.931 223.135 -0.23 -0.03    +0.125 C  
DOCKED: ATOM     30  C   UNL     1     140.657  71.582 224.832 -0.34 -0.02    +0.155 C  
DOCKED: ATOM     31  C   UNL     1     139.025  69.461 223.518 -0.25 -0.01    +0.057 C  
DOCKED: ATOM     32  C   UNL     1     140.281  70.307 225.553 -0.49 +0.00    -0.025 A  
DOCKED: ATOM     33  C   UNL     1     139.483  69.313 224.943 -0.37 +0.01    -0.041 A  
DOCKED: ATOM     34  C   UNL     1     140.727  70.118 226.871 -0.58 -0.00    +0.006 A  
DOCKED: ATOM     35  C   UNL     1     139.177  68.138 225.647 -0.51 -0.00    +0.004 A  
DOCKED: ATOM     36  C   UNL     1     140.402  68.951 227.567 -0.64 -0.00    +0.000 A  
DOCKED: ATOM     37  C   UNL     1     139.630  67.962 226.956 -0.63 -0.00    +0.000 A  
DOCKED: ENDBRANCH  16  28
DOCKED: ENDBRANCH   3  12
DOCKED: TORSDOF 5
DOCKED: TER
DOCKED: ENDMDL
________________________________________________________________________________


    FINAL DOCKED STATE:
    ________________________


Run:   15 / 20
Time taken for this run:   0.026s

DOCKED: MODEL        15
DOCKED: USER    Run = 15
DOCKED: USER
DOCKED: USER    Estimated Free Energy of Binding    =  -9.82 kcal/mol  [=(1)+(2)+(3)-(4)]
DOCKED: USER
DOCKED: USER    (1) Final Intermolecular Energy     = -11.32 kcal/mol
DOCKED: USER        vdW + Hbond + desolv Energy     = -11.02 kcal/mol
DOCKED: USER        Electrostatic Energy            =  -0.30 kcal/mol
DOCKED: USER        Moving Ligand-Fixed Receptor    = -11.32 kcal/mol
DOCKED: USER        Moving Ligand-Moving Receptor   =  +0.00 kcal/mol
DOCKED: USER    (2) Final Total Internal Energy     =  -0.87 kcal/mol
DOCKED: USER    (3) Torsional Free Energy           =  +1.49 kcal/mol
DOCKED: USER    (4) Unbound System's Energy         =  -0.87 kcal/mol
DOCKED: USER
DOCKED: USER
DOCKED: REMARK SMILES CC[NH2+][C@H]1CN(c2nc(N3CCc4ccccc4C3)nc(N3CCc4ccccc4C3)n2)CCO1
DOCKED: REMARK SMILES IDX 4 1 5 2 6 3 33 4 34 5 35 6 3 7 2 10 1 11 7 12 8 13 32 14
DOCKED: REMARK SMILES IDX 9 15 21 16 20 17 10 18 11 19 19 20 12 21 18 22 13 23 17 24
DOCKED: REMARK SMILES IDX 14 25 16 26 15 27 22 28 23 29 31 30 24 31 30 32 25 33 29 34
DOCKED: REMARK SMILES IDX 26 35 28 36 27 37
DOCKED: REMARK H PARENT 3 8 3 9
DOCKED: USER                              x       y       z     vdW  Elec       q    Type
DOCKED: USER                           _______ _______ _______ _____ _____    ______ ____
DOCKED: ROOT
DOCKED: ATOM      1  C   UNL     1     144.849  73.402 217.912 -0.07 -0.00    +0.340 C  
DOCKED: ATOM      2  C   UNL     1     143.443  73.216 218.520 -0.08 -0.04    +0.217 C  
DOCKED: ATOM      3  N   UNL     1     143.544  73.135 219.981 -0.11 +0.06    -0.330 N  
DOCKED: ATOM      4  C   UNL     1     144.616  72.305 220.542 -0.29 -0.02    +0.148 C  
DOCKED: ATOM      5  C   UNL     1     145.926  72.539 219.781 -0.30 +0.09    +0.188 C  
DOCKED: ATOM      6  O   UNL     1     145.734  72.397 218.385 -0.66 -0.29    -0.326 OA 
DOCKED: ENDROOT
DOCKED: BRANCH   1   7
DOCKED: ATOM      7  N   UNL     1     144.825  73.406 216.433 -0.03 +0.02    -0.320 N  
DOCKED: ATOM      8  H   UNL     1     145.526  72.718 216.074 +0.07 +0.07    +0.348 HD 
DOCKED: ATOM      9  H   UNL     1     143.875  73.082 216.134 +0.06 -0.05    +0.348 HD 
DOCKED: BRANCH   7  10
DOCKED: ATOM     10  C   UNL     1     145.092  74.728 215.836 -0.10 -0.09    +0.259 C  
DOCKED: ATOM     11  C   UNL     1     144.109  75.773 216.361 -0.19 -0.04    +0.071 C  
DOCKED: ENDBRANCH   7  10
DOCKED: ENDBRANCH   1   7
DOCKED: BRANCH   3  12
DOCKED: ATOM     12  C   UNL     1     142.409  73.483 220.801 -0.17 -0.04    +0.232 A  
DOCKED: ATOM     13  N   UNL     1     141.908  74.746 220.779 -0.22 +0.05    -0.176 NA 
DOCKED: ATOM     14  N   UNL     1     141.820  72.549 221.589 -0.16 +0.01    -0.176 NA 
DOCKED: ATOM     15  C   UNL     1     140.819  75.075 221.523 -0.24 -0.05    +0.232 A  
DOCKED: ATOM     16  C   UNL     1     140.739  72.861 222.352 -0.16 -0.01    +0.232 A  
DOCKED: ATOM     17  N   UNL     1     140.241  74.126 222.306 -0.78 -0.01    -0.176 NA 
DOCKED: BRANCH  15  18
DOCKED: ATOM     18  N   UNL     1     140.281  76.414 221.480 -0.15 +0.10    -0.336 N  
DOCKED: ATOM     19  C   UNL     1     140.168  77.151 220.218 -0.12 -0.04    +0.125 C  
DOCKED: ATOM     20  C   UNL     1     140.068  77.200 222.702 -0.19 -0.03    +0.155 C  
DOCKED: ATOM     21  C   UNL     1     141.281  78.198 220.155 -0.24 -0.03    +0.057 C  
DOCKED: ATOM     22  C   UNL     1     140.914  78.448 222.675 -0.45 +0.01    -0.025 A  
DOCKED: ATOM     23  C   UNL     1     141.429  78.957 221.457 -0.35 +0.02    -0.041 A  
DOCKED: ATOM     24  C   UNL     1     141.119  79.164 223.866 -0.56 -0.00    +0.006 A  
DOCKED: ATOM     25  C   UNL     1     142.180  80.144 221.470 -0.43 -0.00    +0.004 A  
DOCKED: ATOM     26  C   UNL     1     141.856  80.351 223.859 -0.60 -0.00    +0.000 A  
DOCKED: ATOM     27  C   UNL     1     142.388  80.838 222.664 -0.57 -0.00    +0.000 A  
DOCKED: ENDBRANCH  15  18
DOCKED: BRANCH  16  28
DOCKED: ATOM     28  N   UNL     1     140.132  71.869 223.208 -0.20 +0.05    -0.336 N  
DOCKED: ATOM     29  C   UNL     1     138.906  71.169 222.799 -0.21 -0.03    +0.125 C  
DOCKED: ATOM     30  C   UNL     1     140.610  71.707 224.592 -0.26 -0.02    +0.155 C  
DOCKED: ATOM     31  C   UNL     1     139.065  69.674 223.054 -0.21 -0.01    +0.057 C  
DOCKED: ATOM     32  C   UNL     1     140.250  70.365 225.187 -0.46 +0.00    -0.025 A  
DOCKED: ATOM     33  C   UNL     1     139.493  69.410 224.471 -0.32 +0.01    -0.041 A  
DOCKED: ATOM     34  C   UNL     1     140.670  70.069 226.494 -0.56 -0.00    +0.006 A  
DOCKED: ATOM     35  C   UNL     1     139.202  68.169 225.060 -0.44 -0.00    +0.004 A  
DOCKED: ATOM     36  C   UNL     1     140.359  68.837 227.075 -0.63 -0.00    +0.000 A  
DOCKED: ATOM     37  C   UNL     1     139.628  67.888 226.359 -0.64 -0.00    +0.000 A  
DOCKED: ENDBRANCH  16  28
DOCKED: ENDBRANCH   3  12
DOCKED: TORSDOF 5
DOCKED: TER
DOCKED: ENDMDL
________________________________________________________________________________


    FINAL DOCKED STATE:
    ________________________


Run:   16 / 20
Time taken for this run:   0.026s

DOCKED: MODEL        16
DOCKED: USER    Run = 16
DOCKED: USER
DOCKED: USER    Estimated Free Energy of Binding    =  -9.95 kcal/mol  [=(1)+(2)+(3)-(4)]
DOCKED: USER
DOCKED: USER    (1) Final Intermolecular Energy     = -11.44 kcal/mol
DOCKED: USER        vdW + Hbond + desolv Energy     = -10.63 kcal/mol
DOCKED: USER        Electrostatic Energy            =  -0.81 kcal/mol
DOCKED: USER        Moving Ligand-Fixed Receptor    = -11.44 kcal/mol
DOCKED: USER        Moving Ligand-Moving Receptor   =  +0.00 kcal/mol
DOCKED: USER    (2) Final Total Internal Energy     =  -0.86 kcal/mol
DOCKED: USER    (3) Torsional Free Energy           =  +1.49 kcal/mol
DOCKED: USER    (4) Unbound System's Energy         =  -0.86 kcal/mol
DOCKED: USER
DOCKED: USER
DOCKED: REMARK SMILES CC[NH2+][C@H]1CN(c2nc(N3CCc4ccccc4C3)nc(N3CCc4ccccc4C3)n2)CCO1
DOCKED: REMARK SMILES IDX 4 1 5 2 6 3 33 4 34 5 35 6 3 7 2 10 1 11 7 12 8 13 32 14
DOCKED: REMARK SMILES IDX 9 15 21 16 20 17 10 18 11 19 19 20 12 21 18 22 13 23 17 24
DOCKED: REMARK SMILES IDX 14 25 16 26 15 27 22 28 23 29 31 30 24 31 30 32 25 33 29 34
DOCKED: REMARK SMILES IDX 26 35 28 36 27 37
DOCKED: REMARK H PARENT 3 8 3 9
DOCKED: USER                              x       y       z     vdW  Elec       q    Type
DOCKED: USER                           _______ _______ _______ _____ _____    ______ ____
DOCKED: ROOT
DOCKED: ATOM      1  C   UNL     1     141.110  77.500 220.979 -0.15 -0.16    +0.340 C  
DOCKED: ATOM      2  C   UNL     1     141.431  76.154 221.661 +0.01 -0.10    +0.217 C  
DOCKED: ATOM      3  N   UNL     1     140.291  75.241 221.513 -0.17 +0.07    -0.330 N  
DOCKED: ATOM      4  C   UNL     1     138.949  75.789 221.741 -0.23 -0.03    +0.148 C  
DOCKED: ATOM      5  C   UNL     1     138.813  77.163 221.075 -0.11 -0.04    +0.188 C  
DOCKED: ATOM      6  O   UNL     1     139.875  78.018 221.453 -0.09 +0.09    -0.326 OA 
DOCKED: ENDROOT
DOCKED: BRANCH   1   7
DOCKED: ATOM      7  N   UNL     1     142.188  78.494 221.165 -0.11 +0.23    -0.320 N  
DOCKED: ATOM      8  H   UNL     1     142.936  78.083 221.771 -0.34 -0.41    +0.348 HD 
DOCKED: ATOM      9  H   UNL     1     142.606  78.685 220.224 -0.18 -0.32    +0.348 HD 
DOCKED: BRANCH   7  10
DOCKED: ATOM     10  C   UNL     1     141.731  79.767 221.756 -0.30 -0.11    +0.259 C  
DOCKED: ATOM     11  C   UNL     1     142.405  80.013 223.106 -0.60 -0.02    +0.071 C  
DOCKED: ENDBRANCH   7  10
DOCKED: ENDBRANCH   1   7
DOCKED: BRANCH   3  12
DOCKED: ATOM     12  C   UNL     1     140.499  73.815 221.575 -0.21 -0.03    +0.232 A  
DOCKED: ATOM     13  N   UNL     1     141.055  73.156 220.526 -0.12 +0.03    -0.176 NA 
DOCKED: ATOM     14  N   UNL     1     140.158  73.120 222.690 -0.66 +0.01    -0.176 NA 
DOCKED: ATOM     15  C   UNL     1     141.284  71.818 220.587 -0.11 -0.03    +0.232 A  
DOCKED: ATOM     16  C   UNL     1     140.366  71.779 222.766 -0.24 -0.03    +0.232 A  
DOCKED: ATOM     17  N   UNL     1     140.937  71.138 221.712 -0.07 +0.02    -0.176 NA 
DOCKED: BRANCH  15  18
DOCKED: ATOM     18  N   UNL     1     141.892  71.127 219.475 -0.03 +0.05    -0.336 N  
DOCKED: ATOM     19  C   UNL     1     141.268  69.943 218.878 -0.06 -0.02    +0.125 C  
DOCKED: ATOM     20  C   UNL     1     143.273  71.402 219.057 -0.10 -0.01    +0.155 C  
DOCKED: ATOM     21  C   UNL     1     142.025  68.697 219.342 -0.14 -0.01    +0.057 C  
DOCKED: ATOM     22  C   UNL     1     144.119  70.161 219.197 -0.21 -0.00    -0.025 A  
DOCKED: ATOM     23  C   UNL     1     143.527  68.875 219.262 -0.22 +0.00    -0.041 A  
DOCKED: ATOM     24  C   UNL     1     145.518  70.278 219.173 -0.30 +0.00    +0.006 A  
DOCKED: ATOM     25  C   UNL     1     144.350  67.741 219.352 -0.36 -0.00    +0.004 A  
DOCKED: ATOM     26  C   UNL     1     146.323  69.138 219.249 -0.38 +0.00    +0.000 A  
DOCKED: ATOM     27  C   UNL     1     145.741  67.873 219.342 -0.52 +0.00    +0.000 A  
DOCKED: ENDBRANCH  15  18
DOCKED: BRANCH  16  28
DOCKED: ATOM     28  N   UNL     1     139.977  71.041 223.945 -0.20 +0.06    -0.336 N  
DOCKED: ATOM     29  C   UNL     1     138.812  70.144 223.923 -0.26 -0.02    +0.125 C  
DOCKED: ATOM     30  C   UNL     1     140.610  71.345 225.240 -0.43 -0.02    +0.155 C  
DOCKED: ATOM     31  C   UNL     1     139.180  68.815 224.573 -0.34 -0.01    +0.057 C  
DOCKED: ATOM     32  C   UNL     1     140.482  70.217 226.238 -0.53 +0.00    -0.025 A  
DOCKED: ATOM     33  C   UNL     1     139.780  69.028 225.935 -0.47 +0.01    -0.041 A  
DOCKED: ATOM     34  C   UNL     1     141.067  70.366 227.507 -0.61 -0.00    +0.006 A  
DOCKED: ATOM     35  C   UNL     1     139.707  68.001 226.890 -0.64 -0.00    +0.004 A  
DOCKED: ATOM     36  C   UNL     1     140.973  69.343 228.454 -0.55 -0.00    +0.000 A  
DOCKED: ATOM     37  C   UNL     1     140.295  68.162 228.146 -0.61 -0.00    +0.000 A  
DOCKED: ENDBRANCH  16  28
DOCKED: ENDBRANCH   3  12
DOCKED: TORSDOF 5
DOCKED: TER
DOCKED: ENDMDL
________________________________________________________________________________


    FINAL DOCKED STATE:
    ________________________


Run:   17 / 20
Time taken for this run:   0.026s

DOCKED: MODEL        17
DOCKED: USER    Run = 17
DOCKED: USER
DOCKED: USER    Estimated Free Energy of Binding    =  -9.95 kcal/mol  [=(1)+(2)+(3)-(4)]
DOCKED: USER
DOCKED: USER    (1) Final Intermolecular Energy     = -11.44 kcal/mol
DOCKED: USER        vdW + Hbond + desolv Energy     = -11.31 kcal/mol
DOCKED: USER        Electrostatic Energy            =  -0.13 kcal/mol
DOCKED: USER        Moving Ligand-Fixed Receptor    = -11.44 kcal/mol
DOCKED: USER        Moving Ligand-Moving Receptor   =  +0.00 kcal/mol
DOCKED: USER    (2) Final Total Internal Energy     =  -0.87 kcal/mol
DOCKED: USER    (3) Torsional Free Energy           =  +1.49 kcal/mol
DOCKED: USER    (4) Unbound System's Energy         =  -0.87 kcal/mol
DOCKED: USER
DOCKED: USER
DOCKED: REMARK SMILES CC[NH2+][C@H]1CN(c2nc(N3CCc4ccccc4C3)nc(N3CCc4ccccc4C3)n2)CCO1
DOCKED: REMARK SMILES IDX 4 1 5 2 6 3 33 4 34 5 35 6 3 7 2 10 1 11 7 12 8 13 32 14
DOCKED: REMARK SMILES IDX 9 15 21 16 20 17 10 18 11 19 19 20 12 21 18 22 13 23 17 24
DOCKED: REMARK SMILES IDX 14 25 16 26 15 27 22 28 23 29 31 30 24 31 30 32 25 33 29 34
DOCKED: REMARK SMILES IDX 26 35 28 36 27 37
DOCKED: REMARK H PARENT 3 8 3 9
DOCKED: USER                              x       y       z     vdW  Elec       q    Type
DOCKED: USER                           _______ _______ _______ _____ _____    ______ ____
DOCKED: ROOT
DOCKED: ATOM      1  C   UNL     1     144.536  70.940 218.488 -0.07 +0.06    +0.340 C  
DOCKED: ATOM      2  C   UNL     1     143.698  71.095 219.775 -0.15 -0.01    +0.217 C  
DOCKED: ATOM      3  N   UNL     1     143.537  72.518 220.091 -0.10 +0.04    -0.330 N  
DOCKED: ATOM      4  C   UNL     1     144.720  73.378 219.970 -0.36 -0.02    +0.148 C  
DOCKED: ATOM      5  C   UNL     1     145.492  73.048 218.689 -0.19 +0.07    +0.188 C  
DOCKED: ATOM      6  O   UNL     1     145.755  71.660 218.597 -0.50 -0.31    -0.326 OA 
DOCKED: ENDROOT
DOCKED: BRANCH   1   7
DOCKED: ATOM      7  N   UNL     1     144.806  69.524 218.162 -0.06 -0.03    -0.320 N  
DOCKED: ATOM      8  H   UNL     1     144.120  69.198 217.441 +0.09 -0.04    +0.348 HD 
DOCKED: ATOM      9  H   UNL     1     145.763  69.475 217.739 +0.12 +0.11    +0.348 HD 
DOCKED: BRANCH   7  10
DOCKED: ATOM     10  C   UNL     1     144.748  68.620 219.327 -0.23 +0.02    +0.259 C  
DOCKED: ATOM     11  C   UNL     1     145.916  67.636 219.311 -0.50 -0.00    +0.071 C  
DOCKED: ENDBRANCH   7  10
DOCKED: ENDBRANCH   1   7
DOCKED: BRANCH   3  12
DOCKED: ATOM     12  C   UNL     1     142.416  72.957 220.885 -0.16 -0.03    +0.232 A  
DOCKED: ATOM     13  N   UNL     1     141.924  74.216 220.743 -0.20 +0.04    -0.176 NA 
DOCKED: ATOM     14  N   UNL     1     141.828  72.111 221.769 -0.09 +0.01    -0.176 NA 
DOCKED: ATOM     15  C   UNL     1     140.848  74.628 221.463 -0.22 -0.04    +0.232 A  
DOCKED: ATOM     16  C   UNL     1     140.759  72.508 222.509 -0.17 -0.01    +0.232 A  
DOCKED: ATOM     17  N   UNL     1     140.271  73.766 222.343 -0.80 -0.00    -0.176 NA 
DOCKED: BRANCH  15  18
DOCKED: ATOM     18  N   UNL     1     140.320  75.960 221.293 -0.14 +0.09    -0.336 N  
DOCKED: ATOM     19  C   UNL     1     140.382  76.647 220.000 -0.12 -0.04    +0.125 C  
DOCKED: ATOM     20  C   UNL     1     139.940  76.792 222.443 -0.25 -0.03    +0.155 C  
DOCKED: ATOM     21  C   UNL     1     141.493  77.698 220.050 -0.25 -0.03    +0.057 C  
DOCKED: ATOM     22  C   UNL     1     140.781  78.043 222.484 -0.43 +0.01    -0.025 A  
DOCKED: ATOM     23  C   UNL     1     141.460  78.508 221.329 -0.34 +0.02    -0.041 A  
DOCKED: ATOM     24  C   UNL     1     140.820  78.806 223.663 -0.42 -0.00    +0.006 A  
DOCKED: ATOM     25  C   UNL     1     142.201  79.698 221.398 -0.36 -0.00    +0.004 A  
DOCKED: ATOM     26  C   UNL     1     141.550  79.996 223.710 -0.58 -0.00    +0.000 A  
DOCKED: ATOM     27  C   UNL     1     142.243  80.439 222.581 -0.58 -0.00    +0.000 A  
DOCKED: ENDBRANCH  15  18
DOCKED: BRANCH  16  28
DOCKED: ATOM     28  N   UNL     1     140.154  71.611 223.466 -0.20 +0.05    -0.336 N  
DOCKED: ATOM     29  C   UNL     1     138.899  70.913 223.156 -0.23 -0.03    +0.125 C  
DOCKED: ATOM     30  C   UNL     1     140.671  71.557 224.844 -0.36 -0.02    +0.155 C  
DOCKED: ATOM     31  C   UNL     1     139.027  69.442 223.536 -0.25 -0.01    +0.057 C  
DOCKED: ATOM     32  C   UNL     1     140.296  70.282 225.565 -0.49 +0.00    -0.025 A  
DOCKED: ATOM     33  C   UNL     1     139.493  69.290 224.957 -0.37 +0.01    -0.041 A  
DOCKED: ATOM     34  C   UNL     1     140.750  70.089 226.880 -0.58 -0.00    +0.006 A  
DOCKED: ATOM     35  C   UNL     1     139.189  68.114 225.661 -0.52 -0.00    +0.004 A  
DOCKED: ATOM     36  C   UNL     1     140.426  68.921 227.576 -0.64 -0.00    +0.000 A  
DOCKED: ATOM     37  C   UNL     1     139.648  67.935 226.967 -0.63 -0.00    +0.000 A  
DOCKED: ENDBRANCH  16  28
DOCKED: ENDBRANCH   3  12
DOCKED: TORSDOF 5
DOCKED: TER
DOCKED: ENDMDL
________________________________________________________________________________


    FINAL DOCKED STATE:
    ________________________


Run:   18 / 20
Time taken for this run:   0.026s

DOCKED: MODEL        18
DOCKED: USER    Run = 18
DOCKED: USER
DOCKED: USER    Estimated Free Energy of Binding    =  -9.99 kcal/mol  [=(1)+(2)+(3)-(4)]
DOCKED: USER
DOCKED: USER    (1) Final Intermolecular Energy     = -11.49 kcal/mol
DOCKED: USER        vdW + Hbond + desolv Energy     = -11.33 kcal/mol
DOCKED: USER        Electrostatic Energy            =  -0.15 kcal/mol
DOCKED: USER        Moving Ligand-Fixed Receptor    = -11.49 kcal/mol
DOCKED: USER        Moving Ligand-Moving Receptor   =  +0.00 kcal/mol
DOCKED: USER    (2) Final Total Internal Energy     =  -0.84 kcal/mol
DOCKED: USER    (3) Torsional Free Energy           =  +1.49 kcal/mol
DOCKED: USER    (4) Unbound System's Energy         =  -0.84 kcal/mol
DOCKED: USER
DOCKED: USER
DOCKED: REMARK SMILES CC[NH2+][C@H]1CN(c2nc(N3CCc4ccccc4C3)nc(N3CCc4ccccc4C3)n2)CCO1
DOCKED: REMARK SMILES IDX 4 1 5 2 6 3 33 4 34 5 35 6 3 7 2 10 1 11 7 12 8 13 32 14
DOCKED: REMARK SMILES IDX 9 15 21 16 20 17 10 18 11 19 19 20 12 21 18 22 13 23 17 24
DOCKED: REMARK SMILES IDX 14 25 16 26 15 27 22 28 23 29 31 30 24 31 30 32 25 33 29 34
DOCKED: REMARK SMILES IDX 26 35 28 36 27 37
DOCKED: REMARK H PARENT 3 8 3 9
DOCKED: USER                              x       y       z     vdW  Elec       q    Type
DOCKED: USER                           _______ _______ _______ _____ _____    ______ ____
DOCKED: ROOT
DOCKED: ATOM      1  C   UNL     1     144.587  71.095 218.471 -0.07 +0.07    +0.340 C  
DOCKED: ATOM      2  C   UNL     1     143.735  71.218 219.751 -0.15 -0.01    +0.217 C  
DOCKED: ATOM      3  N   UNL     1     143.562  72.633 220.095 -0.11 +0.05    -0.330 N  
DOCKED: ATOM      4  C   UNL     1     144.740  73.503 220.005 -0.38 -0.02    +0.148 C  
DOCKED: ATOM      5  C   UNL     1     145.528  73.204 218.725 -0.16 +0.05    +0.188 C  
DOCKED: ATOM      6  O   UNL     1     145.800  71.820 218.607 -0.54 -0.33    -0.326 OA 
DOCKED: ENDROOT
DOCKED: BRANCH   1   7
DOCKED: ATOM      7  N   UNL     1     144.869  69.687 218.118 -0.06 -0.04    -0.320 N  
DOCKED: ATOM      8  H   UNL     1     143.987  69.129 218.191 +0.12 -0.03    +0.348 HD 
DOCKED: ATOM      9  H   UNL     1     145.177  69.669 217.117 +0.10 +0.04    +0.348 HD 
DOCKED: BRANCH   7  10
DOCKED: ATOM     10  C   UNL     1     145.910  69.059 218.953 -0.25 +0.09    +0.259 C  
DOCKED: ATOM     11  C   UNL     1     145.535  67.618 219.298 -0.48 -0.00    +0.071 C  
DOCKED: ENDBRANCH   7  10
DOCKED: ENDBRANCH   1   7
DOCKED: BRANCH   3  12
DOCKED: ATOM     12  C   UNL     1     142.429  73.048 220.886 -0.16 -0.03    +0.232 A  
DOCKED: ATOM     13  N   UNL     1     141.933  74.308 220.767 -0.21 +0.04    -0.176 NA 
DOCKED: ATOM     14  N   UNL     1     141.836  72.180 221.744 -0.09 +0.01    -0.176 NA 
DOCKED: ATOM     15  C   UNL     1     140.847  74.698 221.484 -0.23 -0.04    +0.232 A  
DOCKED: ATOM     16  C   UNL     1     140.757  72.555 222.480 -0.17 -0.01    +0.232 A  
DOCKED: ATOM     17  N   UNL     1     140.265  73.815 222.338 -0.80 -0.00    -0.176 NA 
DOCKED: BRANCH  15  18
DOCKED: ATOM     18  N   UNL     1     140.314  76.032 221.338 -0.15 +0.09    -0.336 N  
DOCKED: ATOM     19  C   UNL     1     140.335  76.725 220.047 -0.12 -0.04    +0.125 C  
DOCKED: ATOM     20  C   UNL     1     139.972  76.858 222.504 -0.22 -0.03    +0.155 C  
DOCKED: ATOM     21  C   UNL     1     141.447  77.776 220.066 -0.25 -0.03    +0.057 C  
DOCKED: ATOM     22  C   UNL     1     140.815  78.109 222.524 -0.43 +0.01    -0.025 A  
DOCKED: ATOM     23  C   UNL     1     141.456  78.579 221.350 -0.34 +0.02    -0.041 A  
DOCKED: ATOM     24  C   UNL     1     140.892  78.865 223.705 -0.46 -0.00    +0.006 A  
DOCKED: ATOM     25  C   UNL     1     142.199  79.769 221.402 -0.37 -0.00    +0.004 A  
DOCKED: ATOM     26  C   UNL     1     141.624  80.055 223.735 -0.59 -0.00    +0.000 A  
DOCKED: ATOM     27  C   UNL     1     142.280  80.504 222.587 -0.58 -0.00    +0.000 A  
DOCKED: ENDBRANCH  15  18
DOCKED: BRANCH  16  28
DOCKED: ATOM     28  N   UNL     1     140.146  71.634 223.410 -0.20 +0.05    -0.336 N  
DOCKED: ATOM     29  C   UNL     1     138.911  70.919 223.061 -0.22 -0.03    +0.125 C  
DOCKED: ATOM     30  C   UNL     1     140.631  71.569 224.799 -0.35 -0.02    +0.155 C  
DOCKED: ATOM     31  C   UNL     1     139.056  69.445 223.422 -0.24 -0.01    +0.057 C  
DOCKED: ATOM     32  C   UNL     1     140.262  70.277 225.492 -0.48 +0.00    -0.025 A  
DOCKED: ATOM     33  C   UNL     1     139.491  69.281 224.852 -0.36 +0.01    -0.041 A  
DOCKED: ATOM     34  C   UNL     1     140.688  70.073 226.816 -0.57 -0.00    +0.006 A  
DOCKED: ATOM     35  C   UNL     1     139.191  68.089 225.532 -0.50 -0.00    +0.004 A  
DOCKED: ATOM     36  C   UNL     1     140.369  68.889 227.487 -0.64 -0.00    +0.000 A  
DOCKED: ATOM     37  C   UNL     1     139.623  67.899 226.846 -0.64 -0.00    +0.000 A  
DOCKED: ENDBRANCH  16  28
DOCKED: ENDBRANCH   3  12
DOCKED: TORSDOF 5
DOCKED: TER
DOCKED: ENDMDL
________________________________________________________________________________


    FINAL DOCKED STATE:
    ________________________


Run:   19 / 20
Time taken for this run:   0.026s

DOCKED: MODEL        19
DOCKED: USER    Run = 19
DOCKED: USER
DOCKED: USER    Estimated Free Energy of Binding    = -10.17 kcal/mol  [=(1)+(2)+(3)-(4)]
DOCKED: USER
DOCKED: USER    (1) Final Intermolecular Energy     = -11.66 kcal/mol
DOCKED: USER        vdW + Hbond + desolv Energy     = -11.29 kcal/mol
DOCKED: USER        Electrostatic Energy            =  -0.37 kcal/mol
DOCKED: USER        Moving Ligand-Fixed Receptor    = -11.66 kcal/mol
DOCKED: USER        Moving Ligand-Moving Receptor   =  +0.00 kcal/mol
DOCKED: USER    (2) Final Total Internal Energy     =  -0.89 kcal/mol
DOCKED: USER    (3) Torsional Free Energy           =  +1.49 kcal/mol
DOCKED: USER    (4) Unbound System's Energy         =  -0.89 kcal/mol
DOCKED: USER
DOCKED: USER
DOCKED: REMARK SMILES CC[NH2+][C@H]1CN(c2nc(N3CCc4ccccc4C3)nc(N3CCc4ccccc4C3)n2)CCO1
DOCKED: REMARK SMILES IDX 4 1 5 2 6 3 33 4 34 5 35 6 3 7 2 10 1 11 7 12 8 13 32 14
DOCKED: REMARK SMILES IDX 9 15 21 16 20 17 10 18 11 19 19 20 12 21 18 22 13 23 17 24
DOCKED: REMARK SMILES IDX 14 25 16 26 15 27 22 28 23 29 31 30 24 31 30 32 25 33 29 34
DOCKED: REMARK SMILES IDX 26 35 28 36 27 37
DOCKED: REMARK H PARENT 3 8 3 9
DOCKED: USER                              x       y       z     vdW  Elec       q    Type
DOCKED: USER                           _______ _______ _______ _____ _____    ______ ____
DOCKED: ROOT
DOCKED: ATOM      1  C   UNL     1     145.118  73.487 218.225 -0.01 +0.01    +0.340 C  
DOCKED: ATOM      2  C   UNL     1     143.635  73.575 218.642 -0.11 -0.04    +0.217 C  
DOCKED: ATOM      3  N   UNL     1     143.446  72.911 219.937 -0.09 +0.05    -0.330 N  
DOCKED: ATOM      4  C   UNL     1     144.110  71.618 220.140 -0.22 -0.01    +0.148 C  
DOCKED: ATOM      5  C   UNL     1     145.544  71.663 219.600 -0.20 +0.08    +0.188 C  
DOCKED: ATOM      6  O   UNL     1     145.570  72.142 218.267 -0.60 -0.24    -0.326 OA 
DOCKED: ENDROOT
DOCKED: BRANCH   1   7
DOCKED: ATOM      7  N   UNL     1     145.358  74.066 216.886 -0.05 +0.05    -0.320 N  
DOCKED: ATOM      8  H   UNL     1     146.016  74.876 216.972 -0.39 -0.19    +0.348 HD 
DOCKED: ATOM      9  H   UNL     1     145.830  73.332 216.306 +0.08 +0.07    +0.348 HD 
DOCKED: BRANCH   7  10
DOCKED: ATOM     10  C   UNL     1     144.131  74.509 216.197 -0.07 -0.08    +0.259 C  
DOCKED: ATOM     11  C   UNL     1     143.956  76.022 216.317 -0.20 -0.04    +0.071 C  
DOCKED: ENDBRANCH   7  10
DOCKED: ENDBRANCH   1   7
DOCKED: BRANCH   3  12
DOCKED: ATOM     12  C   UNL     1     142.338  73.283 220.782 -0.17 -0.04    +0.232 A  
DOCKED: ATOM     13  N   UNL     1     141.850  74.551 220.756 -0.21 +0.05    -0.176 NA 
DOCKED: ATOM     14  N   UNL     1     141.760  72.366 221.598 -0.17 +0.01    -0.176 NA 
DOCKED: ATOM     15  C   UNL     1     140.785  74.902 221.523 -0.24 -0.04    +0.232 A  
DOCKED: ATOM     16  C   UNL     1     140.703  72.701 222.385 -0.19 -0.01    +0.232 A  
DOCKED: ATOM     17  N   UNL     1     140.218  73.970 222.335 -0.79 -0.00    -0.176 NA 
DOCKED: BRANCH  15  18
DOCKED: ATOM     18  N   UNL     1     140.260  76.246 221.476 -0.15 +0.09    -0.336 N  
DOCKED: ATOM     19  C   UNL     1     140.145  76.976 220.210 -0.12 -0.04    +0.125 C  
DOCKED: ATOM     20  C   UNL     1     140.065  77.042 222.695 -0.16 -0.03    +0.155 C  
DOCKED: ATOM     21  C   UNL     1     141.268  78.012 220.132 -0.24 -0.03    +0.057 C  
DOCKED: ATOM     22  C   UNL     1     140.923  78.281 222.654 -0.46 +0.01    -0.025 A  
DOCKED: ATOM     23  C   UNL     1     141.435  78.777 221.428 -0.35 +0.02    -0.041 A  
DOCKED: ATOM     24  C   UNL     1     141.145  79.002 223.839 -0.56 -0.00    +0.006 A  
DOCKED: ATOM     25  C   UNL     1     142.197  79.956 221.428 -0.40 -0.00    +0.004 A  
DOCKED: ATOM     26  C   UNL     1     141.894  80.181 223.818 -0.62 -0.00    +0.000 A  
DOCKED: ATOM     27  C   UNL     1     142.423  80.656 222.616 -0.58 -0.00    +0.000 A  
DOCKED: ENDBRANCH  15  18
DOCKED: BRANCH  16  28
DOCKED: ATOM     28  N   UNL     1     140.108  71.728 223.271 -0.20 +0.05    -0.336 N  
DOCKED: ATOM     29  C   UNL     1     138.945  70.935 222.847 -0.21 -0.03    +0.125 C  
DOCKED: ATOM     30  C   UNL     1     140.523  71.675 224.683 -0.29 -0.02    +0.155 C  
DOCKED: ATOM     31  C   UNL     1     139.171  69.469 223.200 -0.22 -0.01    +0.057 C  
DOCKED: ATOM     32  C   UNL     1     140.207  70.350 225.341 -0.47 +0.00    -0.025 A  
DOCKED: ATOM     33  C   UNL     1     139.540  69.314 224.649 -0.34 +0.01    -0.041 A  
DOCKED: ATOM     34  C   UNL     1     140.575  70.156 226.682 -0.57 -0.00    +0.006 A  
DOCKED: ATOM     35  C   UNL     1     139.288  68.095 225.299 -0.47 -0.00    +0.004 A  
DOCKED: ATOM     36  C   UNL     1     140.303  68.944 227.322 -0.63 -0.00    +0.000 A  
DOCKED: ATOM     37  C   UNL     1     139.662  67.915 226.632 -0.64 -0.00    +0.000 A  
DOCKED: ENDBRANCH  16  28
DOCKED: ENDBRANCH   3  12
DOCKED: TORSDOF 5
DOCKED: TER
DOCKED: ENDMDL
________________________________________________________________________________


    FINAL DOCKED STATE:
    ________________________


Run:   20 / 20
Time taken for this run:   0.026s

DOCKED: MODEL        20
DOCKED: USER    Run = 20
DOCKED: USER
DOCKED: USER    Estimated Free Energy of Binding    =  -9.81 kcal/mol  [=(1)+(2)+(3)-(4)]
DOCKED: USER
DOCKED: USER    (1) Final Intermolecular Energy     = -11.30 kcal/mol
DOCKED: USER        vdW + Hbond + desolv Energy     = -10.63 kcal/mol
DOCKED: USER        Electrostatic Energy            =  -0.67 kcal/mol
DOCKED: USER        Moving Ligand-Fixed Receptor    = -11.30 kcal/mol
DOCKED: USER        Moving Ligand-Moving Receptor   =  +0.00 kcal/mol
DOCKED: USER    (2) Final Total Internal Energy     =  -0.84 kcal/mol
DOCKED: USER    (3) Torsional Free Energy           =  +1.49 kcal/mol
DOCKED: USER    (4) Unbound System's Energy         =  -0.84 kcal/mol
DOCKED: USER
DOCKED: USER
DOCKED: REMARK SMILES CC[NH2+][C@H]1CN(c2nc(N3CCc4ccccc4C3)nc(N3CCc4ccccc4C3)n2)CCO1
DOCKED: REMARK SMILES IDX 4 1 5 2 6 3 33 4 34 5 35 6 3 7 2 10 1 11 7 12 8 13 32 14
DOCKED: REMARK SMILES IDX 9 15 21 16 20 17 10 18 11 19 19 20 12 21 18 22 13 23 17 24
DOCKED: REMARK SMILES IDX 14 25 16 26 15 27 22 28 23 29 31 30 24 31 30 32 25 33 29 34
DOCKED: REMARK SMILES IDX 26 35 28 36 27 37
DOCKED: REMARK H PARENT 3 8 3 9
DOCKED: USER                              x       y       z     vdW  Elec       q    Type
DOCKED: USER                           _______ _______ _______ _____ _____    ______ ____
DOCKED: ROOT
DOCKED: ATOM      1  C   UNL     1     141.105  77.626 221.211 -0.17 -0.15    +0.340 C  
DOCKED: ATOM      2  C   UNL     1     141.183  76.259 221.923 -0.10 -0.08    +0.217 C  
DOCKED: ATOM      3  N   UNL     1     140.230  75.327 221.310 -0.15 +0.07    -0.330 N  
DOCKED: ATOM      4  C   UNL     1     138.887  75.833 221.006 -0.14 -0.03    +0.148 C  
DOCKED: ATOM      5  C   UNL     1     138.970  77.231 220.383 -0.06 -0.05    +0.188 C  
DOCKED: ATOM      6  O   UNL     1     139.765  78.094 221.175 -0.07 +0.09    -0.326 OA 
DOCKED: ENDROOT
DOCKED: BRANCH   1   7
DOCKED: ATOM      7  N   UNL     1     141.983  78.636 221.838 -0.19 +0.19    -0.320 N  
DOCKED: ATOM      8  H   UNL     1     142.580  78.173 222.563 -0.22 -0.30    +0.348 HD 
DOCKED: ATOM      9  H   UNL     1     142.618  79.007 221.092 -0.25 -0.30    +0.348 HD 
DOCKED: BRANCH   7  10
DOCKED: ATOM     10  C   UNL     1     141.255  79.761 222.455 -0.31 -0.08    +0.259 C  
DOCKED: ATOM     11  C   UNL     1     142.202  80.641 223.269 -0.59 -0.02    +0.071 C  
DOCKED: ENDBRANCH   7  10
DOCKED: ENDBRANCH   1   7
DOCKED: BRANCH   3  12
DOCKED: ATOM     12  C   UNL     1     140.451  73.905 221.405 -0.20 -0.03    +0.232 A  
DOCKED: ATOM     13  N   UNL     1     141.016  73.227 220.372 -0.10 +0.03    -0.176 NA 
DOCKED: ATOM     14  N   UNL     1     140.113  73.232 222.535 -0.69 +0.01    -0.176 NA 
DOCKED: ATOM     15  C   UNL     1     141.259  71.893 220.465 -0.10 -0.03    +0.232 A  
DOCKED: ATOM     16  C   UNL     1     140.334  71.896 222.642 -0.23 -0.03    +0.232 A  
DOCKED: ATOM     17  N   UNL     1     140.914  71.236 221.604 -0.11 +0.02    -0.176 NA 
DOCKED: BRANCH  15  18
DOCKED: ATOM     18  N   UNL     1     141.877  71.183 219.371 -0.02 +0.05    -0.336 N  
DOCKED: ATOM     19  C   UNL     1     141.267  69.978 218.802 -0.05 -0.02    +0.125 C  
DOCKED: ATOM     20  C   UNL     1     143.256  71.463 218.949 -0.09 -0.01    +0.155 C  
DOCKED: ATOM     21  C   UNL     1     142.036  68.752 219.296 -0.13 -0.01    +0.057 C  
DOCKED: ATOM     22  C   UNL     1     144.115  70.236 219.120 -0.20 -0.00    -0.025 A  
DOCKED: ATOM     23  C   UNL     1     143.537  68.945 219.214 -0.21 +0.00    -0.041 A  
DOCKED: ATOM     24  C   UNL     1     145.513  70.368 219.096 -0.31 +0.00    +0.006 A  
DOCKED: ATOM     25  C   UNL     1     144.373  67.823 219.333 -0.36 -0.00    +0.004 A  
DOCKED: ATOM     26  C   UNL     1     146.330  69.239 219.201 -0.37 +0.00    +0.000 A  
DOCKED: ATOM     27  C   UNL     1     145.762  67.970 219.323 -0.52 +0.00    +0.000 A  
DOCKED: ENDBRANCH  15  18
DOCKED: BRANCH  16  28
DOCKED: ATOM     28  N   UNL     1     139.949  71.181 223.837 -0.20 +0.06    -0.336 N  
DOCKED: ATOM     29  C   UNL     1     138.772  70.300 223.842 -0.26 -0.02    +0.125 C  
DOCKED: ATOM     30  C   UNL     1     140.601  71.496 225.119 -0.41 -0.02    +0.155 C  
DOCKED: ATOM     31  C   UNL     1     139.129  68.976 224.507 -0.34 -0.01    +0.057 C  
DOCKED: ATOM     32  C   UNL     1     140.469  70.384 226.136 -0.54 +0.00    -0.025 A  
DOCKED: ATOM     33  C   UNL     1     139.747  69.201 225.859 -0.45 +0.01    -0.041 A  
DOCKED: ATOM     34  C   UNL     1     141.071  70.544 227.395 -0.62 -0.00    +0.006 A  
DOCKED: ATOM     35  C   UNL     1     139.671  68.190 226.830 -0.62 -0.00    +0.004 A  
DOCKED: ATOM     36  C   UNL     1     140.974  69.537 228.359 -0.58 -0.00    +0.000 A  
DOCKED: ATOM     37  C   UNL     1     140.276  68.362 228.077 -0.64 -0.00    +0.000 A  
DOCKED: ENDBRANCH  16  28
DOCKED: ENDBRANCH   3  12
DOCKED: TORSDOF 5
DOCKED: TER
DOCKED: ENDMDL
________________________________________________________________________________


    CLUSTERING HISTOGRAM
    ____________________


________________________________________________________________________________
     |           |     |           |     |
Clus | Lowest    | Run | Mean      | Num | Histogram
-ter | Binding   |     | Binding   | in  |
Rank | Energy    |     | Energy    | Clus|    5    10   15   20   25   30   35
_____|___________|_____|___________|_____|____:____|____:____|____:____|____:___
   1 |    -10.19 |  12 |     -9.97 |  11 |###########
   2 |     -9.95 |   9 |     -9.80 |   9 |#########
_____|___________|_____|___________|_____|______________________________________


    RMSD TABLE
    __________


_______________________________________________________________________
     |      |      |           |         |                 |
Rank | Sub- | Run  | Binding   | Cluster | Reference       | Grep
     | Rank |      | Energy    | RMSD    | RMSD            | Pattern
_____|______|______|___________|_________|_________________|___________
   1      1     12      -10.19      0.00    269.87           RANKING
   1      2     19      -10.17      0.16    269.87           RANKING
   1      3     18       -9.99      1.60    269.88           RANKING
   1      4      7       -9.99      1.60    269.86           RANKING
   1      5      3       -9.97      0.44    269.84           RANKING
   1      6      5       -9.96      1.66    269.85           RANKING
   1      7     14       -9.96      1.64    269.87           RANKING
   1      8     17       -9.95      1.64    269.88           RANKING
   1      9     10       -9.83      0.43    269.80           RANKING
   1     10     15       -9.82      0.45    269.80           RANKING
   1     11     11       -9.80      1.58    269.94           RANKING
   2      1      9       -9.95      0.00    269.83           RANKING
   2      2      8       -9.95      0.07    269.83           RANKING
   2      3      1       -9.95      0.07    269.83           RANKING
   2      4     16       -9.95      0.04    269.82           RANKING
   2      5     20       -9.81      0.38    269.82           RANKING
   2      6     13       -9.73      0.33    269.77           RANKING
   2      7      6       -9.71      0.28    269.82           RANKING
   2      8      4       -9.61      1.15    269.42           RANKING
   2      9      2       -9.55      1.35    269.40           RANKING

Run time 0.475 sec
Idle time 0.000 sec
