AutoDock-GPU version: v1.6

**********************************************************
**    AutoDock-GPU AUTODOCKTOOLS-COMPATIBLE DLG FILE    **
**********************************************************


    DOCKING PARAMETERS
    ________________________


Ligand file:                               /home/a/REINVENT4/ReinventStudies/scoringData/graph-dock-34dfml/graph-DockGPU/node-autodockgpu/inputs/GEKDQXSPTHHANP-OUKQBFOZNA-N.pdbqt
Grid fld file:                             /home/a/REINVENT4/ReinventStudies/mols/Rad51/maps/rad51_receptor.maps.fld

Random seed:                               42
Number of runs:                            20
Number of energy evaluations:              1132076
Number of generations:                     42000
Size of population:                        150
Rate of crossover:                         80.000000%
Tournament selection probability limit:    60.000000%
Rate of mutation:                          2.000000%
Maximal allowed delta movement:            +/- 6.000000A
Maximal allowed delta angle:               +/- 90.000000

Rate of local search:                      100.000000%
Maximal number of local search iterations: 300
Rho lower bound:                           0.010000
Spread of local search delta movement:     2.000000A
Spread of local search delta angle:        74.999999
Limit of consecutive successes/failures:   4

Handle symmetry during clustering:         YES
RMSD tolerance:                            2.000000A

Program call in command line was:          /home/a/REINVENT4/ReinventStudies/adgpu-v1.6_linux_x64_cuda12_128wi --filelist batch.txt --heuristics 1 --nrun 20 --psize 150 --lsit 300 --seed 42 --heurmax 12000000 


    GRID PARAMETERS
    ________________________


Receptor name:                             rad51_receptor
Number of grid points (x, y, z):           53, 53, 53
Grid center (x, y, z):                     139.950000, 75.640000, 221.970000A
Grid size (x, y, z):                       19.500000, 19.500000, 19.500000A
Grid spacing:                              0.375000A


    LIGAND PARAMETERS
    ________________________


Ligand name:                               /home/a/REINVENT4/ReinventStudies/scoringData/graph-dock-34dfml/graph-DockGPU/node-autodockgpu/inputs/GEKDQXSPTHHANP-OUKQBFOZNA-N
Number of atoms:                           26
Number of rotatable bonds:                 5
Number of atom types:                      5


    DUMMY DATA (only for ADT-compatibility)
    ________________________


DPF> outlev 1
DPF> ga_run 20
DPF> fld /home/a/REINVENT4/ReinventStudies/mols/Rad51/maps/rad51_receptor.maps.fld
DPF> move /home/a/REINVENT4/ReinventStudies/scoringData/graph-dock-34dfml/graph-DockGPU/node-autodockgpu/inputs/GEKDQXSPTHHANP-OUKQBFOZNA-N.pdbqt


    COUNTER STATES
    ________________________


Number of energy evaluations performed:    1151401
Number of generations used:                47


    INPUT LIGAND PDBQT FILE:
    ________________________


INPUT-LIGAND-PDBQT: REMARK SMILES O=c1c2ccccc2nc(/C=C/c2cccnc2)n1Cc1ccccc1
INPUT-LIGAND-PDBQT: REMARK SMILES IDX 10 1 9 2 8 3 7 4 6 5 5 6 4 7 3 8 2 9 1 10 19 11 11 12 12 13
INPUT-LIGAND-PDBQT: REMARK SMILES IDX 13 14 18 15 14 16 17 17 15 18 16 19 20 20 21 21 22 22 26 23
INPUT-LIGAND-PDBQT: REMARK SMILES IDX 23 24 25 25 24 26
INPUT-LIGAND-PDBQT: REMARK H PARENT
INPUT-LIGAND-PDBQT: ROOT
INPUT-LIGAND-PDBQT: ATOM      1  C   UNL     1      -0.997  -1.227   0.330  1.00  0.00     0.136 A 
INPUT-LIGAND-PDBQT: ATOM      2  N   UNL     1      -1.247  -1.630   1.603  1.00  0.00    -0.230 NA
INPUT-LIGAND-PDBQT: ATOM      3  C   UNL     1      -0.914  -2.868   2.037  1.00  0.00     0.078 A 
INPUT-LIGAND-PDBQT: ATOM      4  C   UNL     1      -1.201  -3.250   3.352  1.00  0.00     0.029 A 
INPUT-LIGAND-PDBQT: ATOM      5  C   UNL     1      -0.853  -4.527   3.800  1.00  0.00     0.002 A 
INPUT-LIGAND-PDBQT: ATOM      6  C   UNL     1      -0.216  -5.424   2.938  1.00  0.00     0.001 A 
INPUT-LIGAND-PDBQT: ATOM      7  C   UNL     1       0.072  -5.048   1.622  1.00  0.00     0.016 A 
INPUT-LIGAND-PDBQT: ATOM      8  C   UNL     1      -0.279  -3.765   1.161  1.00  0.00     0.066 A 
INPUT-LIGAND-PDBQT: ATOM      9  C   UNL     1      -0.016  -3.340  -0.153  1.00  0.00     0.261 A 
INPUT-LIGAND-PDBQT: ATOM     10  O   UNL     1       0.567  -4.125  -0.951  1.00  0.00    -0.269 OA
INPUT-LIGAND-PDBQT: ATOM     11  N   UNL     1      -0.387  -2.079  -0.563  1.00  0.00    -0.288 N 
INPUT-LIGAND-PDBQT: ENDROOT
INPUT-LIGAND-PDBQT: BRANCH   1  12
INPUT-LIGAND-PDBQT: ATOM     12  C   UNL     1      -1.385   0.140  -0.043  1.00  0.00     0.048 C 
INPUT-LIGAND-PDBQT: BRANCH  12  13
INPUT-LIGAND-PDBQT: ATOM     13  C   UNL     1      -0.628   1.182   0.314  1.00  0.00     0.013 C 
INPUT-LIGAND-PDBQT: BRANCH  13  14
INPUT-LIGAND-PDBQT: ATOM     14  C   UNL     1      -0.941   2.572  -0.060  1.00  0.00    -0.007 A 
INPUT-LIGAND-PDBQT: ATOM     15  C   UNL     1      -2.266   3.026  -0.189  1.00  0.00     0.119 A 
INPUT-LIGAND-PDBQT: ATOM     16  C   UNL     1       0.103   3.491  -0.238  1.00  0.00     0.011 A 
INPUT-LIGAND-PDBQT: ATOM     17  N   UNL     1      -2.517   4.331  -0.472  1.00  0.00    -0.264 NA
INPUT-LIGAND-PDBQT: ATOM     18  C   UNL     1      -0.182   4.823  -0.540  1.00  0.00     0.021 A 
INPUT-LIGAND-PDBQT: ATOM     19  C   UNL     1      -1.513   5.230  -0.646  1.00  0.00     0.111 A 
INPUT-LIGAND-PDBQT: ENDBRANCH  13  14
INPUT-LIGAND-PDBQT: ENDBRANCH  12  13
INPUT-LIGAND-PDBQT: ENDBRANCH   1  12
INPUT-LIGAND-PDBQT: BRANCH  11  20
INPUT-LIGAND-PDBQT: ATOM     20  C   UNL     1      -0.100  -1.630  -1.944  1.00  0.00     0.163 C 
INPUT-LIGAND-PDBQT: BRANCH  20  21
INPUT-LIGAND-PDBQT: ATOM     21  C   UNL     1       1.020  -0.618  -1.970  1.00  0.00    -0.028 A 
INPUT-LIGAND-PDBQT: ATOM     22  C   UNL     1       2.233  -0.883  -1.319  1.00  0.00     0.005 A 
INPUT-LIGAND-PDBQT: ATOM     23  C   UNL     1       0.876   0.584  -2.686  1.00  0.00     0.005 A 
INPUT-LIGAND-PDBQT: ATOM     24  C   UNL     1       3.268   0.055  -1.349  1.00  0.00     0.000 A 
INPUT-LIGAND-PDBQT: ATOM     25  C   UNL     1       1.916   1.518  -2.716  1.00  0.00     0.000 A 
INPUT-LIGAND-PDBQT: ATOM     26  C   UNL     1       3.112   1.253  -2.050  1.00  0.00     0.000 A 
INPUT-LIGAND-PDBQT: ENDBRANCH  20  21
INPUT-LIGAND-PDBQT: ENDBRANCH  11  20
INPUT-LIGAND-PDBQT: TORSDOF 5


    FINAL DOCKED STATE:
    ________________________


Run:   1 / 20
Time taken for this run:   0.039s

DOCKED: MODEL        1
DOCKED: USER    Run = 1
DOCKED: USER
DOCKED: USER    Estimated Free Energy of Binding    =  -7.20 kcal/mol  [=(1)+(2)+(3)-(4)]
DOCKED: USER
DOCKED: USER    (1) Final Intermolecular Energy     =  -8.69 kcal/mol
DOCKED: USER        vdW + Hbond + desolv Energy     =  -8.54 kcal/mol
DOCKED: USER        Electrostatic Energy            =  -0.14 kcal/mol
DOCKED: USER        Moving Ligand-Fixed Receptor    =  -8.69 kcal/mol
DOCKED: USER        Moving Ligand-Moving Receptor   =  +0.00 kcal/mol
DOCKED: USER    (2) Final Total Internal Energy     =  -1.33 kcal/mol
DOCKED: USER    (3) Torsional Free Energy           =  +1.49 kcal/mol
DOCKED: USER    (4) Unbound System's Energy         =  -1.33 kcal/mol
DOCKED: USER
DOCKED: USER
DOCKED: REMARK SMILES O=c1c2ccccc2nc(/C=C/c2cccnc2)n1Cc1ccccc1
DOCKED: REMARK SMILES IDX 10 1 9 2 8 3 7 4 6 5 5 6 4 7 3 8 2 9 1 10 19 11 11 12 12 13
DOCKED: REMARK SMILES IDX 13 14 18 15 14 16 17 17 15 18 16 19 20 20 21 21 22 22 26 23
DOCKED: REMARK SMILES IDX 23 24 25 25 24 26
DOCKED: REMARK H PARENT
DOCKED: USER                              x       y       z     vdW  Elec       q    Type
DOCKED: USER                           _______ _______ _______ _____ _____    ______ ____
DOCKED: ROOT
DOCKED: ATOM      1  C   UNL     1     141.676  75.396 220.666 -0.24 -0.05    +0.136 A  
DOCKED: ATOM      2  N   UNL     1     141.878  74.069 220.876 -0.18 +0.05    -0.230 NA 
DOCKED: ATOM      3  C   UNL     1     140.925  73.281 221.426 -0.25 -0.01    +0.078 A  
DOCKED: ATOM      4  C   UNL     1     141.177  71.922 221.639 -0.24 -0.00    +0.029 A  
DOCKED: ATOM      5  C   UNL     1     140.191  71.108 222.203 -0.23 -0.00    +0.002 A  
DOCKED: ATOM      6  C   UNL     1     138.951  71.649 222.554 -0.24 -0.00    +0.001 A  
DOCKED: ATOM      7  C   UNL     1     138.693  73.008 222.345 -0.11 -0.01    +0.016 A  
DOCKED: ATOM      8  C   UNL     1     139.683  73.836 221.781 -0.25 -0.01    +0.066 A  
DOCKED: ATOM      9  C   UNL     1     139.476  75.208 221.555 -0.19 -0.05    +0.261 A  
DOCKED: ATOM     10  O   UNL     1     138.363  75.722 221.852 -0.17 +0.06    -0.269 OA 
DOCKED: ATOM     11  N   UNL     1     140.477  75.981 221.010 -0.13 +0.08    -0.288 N  
DOCKED: ENDROOT
DOCKED: BRANCH   1  12
DOCKED: ATOM     12  C   UNL     1     142.766  76.165 220.053 -0.25 -0.03    +0.048 C  
DOCKED: BRANCH  12  13
DOCKED: ATOM     13  C   UNL     1     143.610  75.582 219.196 -0.33 -0.01    +0.013 C  
DOCKED: BRANCH  13  14
DOCKED: ATOM     14  C   UNL     1     144.456  74.431 219.555 -0.31 +0.00    -0.007 A  
DOCKED: ATOM     15  C   UNL     1     144.759  73.415 218.630 -0.20 -0.01    +0.119 A  
DOCKED: ATOM     16  C   UNL     1     145.027  74.365 220.834 -0.45 -0.00    +0.011 A  
DOCKED: ATOM     17  N   UNL     1     145.595  72.402 218.977 -0.66 -0.16    -0.264 NA 
DOCKED: ATOM     18  C   UNL     1     145.873  73.307 221.168 -0.69 -0.00    +0.021 A  
DOCKED: ATOM     19  C   UNL     1     146.154  72.329 220.213 -0.28 +0.04    +0.111 A  
DOCKED: ENDBRANCH  13  14
DOCKED: ENDBRANCH  12  13
DOCKED: ENDBRANCH   1  12
DOCKED: BRANCH  11  20
DOCKED: ATOM     20  C   UNL     1     140.254  77.423 220.763 -0.15 -0.05    +0.163 C  
DOCKED: BRANCH  20  21
DOCKED: ATOM     21  C   UNL     1     141.048  78.273 221.725 -0.35 +0.01    -0.028 A  
DOCKED: ATOM     22  C   UNL     1     141.733  79.409 221.271 -0.38 -0.00    +0.005 A  
DOCKED: ATOM     23  C   UNL     1     141.074  77.962 223.096 -0.47 -0.00    +0.005 A  
DOCKED: ATOM     24  C   UNL     1     142.464  80.195 222.166 -0.54 -0.00    +0.000 A  
DOCKED: ATOM     25  C   UNL     1     141.803  78.753 223.988 -0.59 -0.00    +0.000 A  
DOCKED: ATOM     26  C   UNL     1     142.496  79.871 223.524 -0.64 -0.00    +0.000 A  
DOCKED: ENDBRANCH  20  21
DOCKED: ENDBRANCH  11  20
DOCKED: TORSDOF 5
DOCKED: TER
DOCKED: ENDMDL
________________________________________________________________________________


    FINAL DOCKED STATE:
    ________________________


Run:   2 / 20
Time taken for this run:   0.039s

DOCKED: MODEL        2
DOCKED: USER    Run = 2
DOCKED: USER
DOCKED: USER    Estimated Free Energy of Binding    =  -6.94 kcal/mol  [=(1)+(2)+(3)-(4)]
DOCKED: USER
DOCKED: USER    (1) Final Intermolecular Energy     =  -8.43 kcal/mol
DOCKED: USER        vdW + Hbond + desolv Energy     =  -8.41 kcal/mol
DOCKED: USER        Electrostatic Energy            =  -0.02 kcal/mol
DOCKED: USER        Moving Ligand-Fixed Receptor    =  -8.43 kcal/mol
DOCKED: USER        Moving Ligand-Moving Receptor   =  +0.00 kcal/mol
DOCKED: USER    (2) Final Total Internal Energy     =  -1.43 kcal/mol
DOCKED: USER    (3) Torsional Free Energy           =  +1.49 kcal/mol
DOCKED: USER    (4) Unbound System's Energy         =  -1.43 kcal/mol
DOCKED: USER
DOCKED: USER
DOCKED: REMARK SMILES O=c1c2ccccc2nc(/C=C/c2cccnc2)n1Cc1ccccc1
DOCKED: REMARK SMILES IDX 10 1 9 2 8 3 7 4 6 5 5 6 4 7 3 8 2 9 1 10 19 11 11 12 12 13
DOCKED: REMARK SMILES IDX 13 14 18 15 14 16 17 17 15 18 16 19 20 20 21 21 22 22 26 23
DOCKED: REMARK SMILES IDX 23 24 25 25 24 26
DOCKED: REMARK H PARENT
DOCKED: USER                              x       y       z     vdW  Elec       q    Type
DOCKED: USER                           _______ _______ _______ _____ _____    ______ ____
DOCKED: ROOT
DOCKED: ATOM      1  C   UNL     1     139.176  70.840 223.822 -0.28 -0.03    +0.136 A  
DOCKED: ATOM      2  N   UNL     1     139.911  71.512 224.746 -0.29 +0.05    -0.230 NA 
DOCKED: ATOM      3  C   UNL     1     140.281  70.939 225.915 -0.51 -0.01    +0.078 A  
DOCKED: ATOM      4  C   UNL     1     141.026  71.670 226.848 -0.73 -0.00    +0.029 A  
DOCKED: ATOM      5  C   UNL     1     141.412  71.076 228.053 -0.54 -0.00    +0.002 A  
DOCKED: ATOM      6  C   UNL     1     141.058  69.752 228.328 -0.58 -0.00    +0.001 A  
DOCKED: ATOM      7  C   UNL     1     140.312  69.018 227.400 -0.61 -0.00    +0.016 A  
DOCKED: ATOM      8  C   UNL     1     139.915  69.610 226.186 -0.45 -0.01    +0.066 A  
DOCKED: ATOM      9  C   UNL     1     139.162  68.917 225.223 -0.26 -0.03    +0.261 A  
DOCKED: ATOM     10  O   UNL     1     138.836  67.717 225.440 -0.79 -0.02    -0.269 OA 
DOCKED: ATOM     11  N   UNL     1     138.787  69.539 224.053 -0.15 +0.04    -0.288 N  
DOCKED: ENDROOT
DOCKED: BRANCH   1  12
DOCKED: ATOM     12  C   UNL     1     138.833  71.543 222.579 -0.22 -0.01    +0.048 C  
DOCKED: BRANCH  12  13
DOCKED: ATOM     13  C   UNL     1     139.346  72.749 222.317 -0.23 -0.00    +0.013 C  
DOCKED: BRANCH  13  14
DOCKED: ATOM     14  C   UNL     1     140.644  72.946 221.648 -0.29 +0.00    -0.007 A  
DOCKED: ATOM     15  C   UNL     1     141.101  74.222 221.276 -0.25 -0.02    +0.119 A  
DOCKED: ATOM     16  C   UNL     1     141.479  71.842 221.424 -0.22 -0.00    +0.011 A  
DOCKED: ATOM     17  N   UNL     1     142.332  74.372 220.719 -0.17 +0.08    -0.264 NA 
DOCKED: ATOM     18  C   UNL     1     142.733  72.022 220.840 -0.26 -0.00    +0.021 A  
DOCKED: ATOM     19  C   UNL     1     143.150  73.310 220.498 -0.26 -0.02    +0.111 A  
DOCKED: ENDBRANCH  13  14
DOCKED: ENDBRANCH  12  13
DOCKED: ENDBRANCH   1  12
DOCKED: BRANCH  11  20
DOCKED: ATOM     20  C   UNL     1     138.002  68.805 223.036 -0.18 -0.02    +0.163 C  
DOCKED: BRANCH  20  21
DOCKED: ATOM     21  C   UNL     1     138.902  68.021 222.110 -0.20 +0.01    -0.028 A  
DOCKED: ATOM     22  C   UNL     1     138.981  66.625 222.210 -0.29 -0.00    +0.005 A  
DOCKED: ATOM     23  C   UNL     1     139.636  68.678 221.107 -0.14 -0.00    +0.005 A  
DOCKED: ATOM     24  C   UNL     1     139.812  65.903 221.349 -0.25 -0.00    +0.000 A  
DOCKED: ATOM     25  C   UNL     1     140.463  67.952 220.245 -0.14 -0.00    +0.000 A  
DOCKED: ATOM     26  C   UNL     1     140.549  66.565 220.364 -0.13 -0.00    +0.000 A  
DOCKED: ENDBRANCH  20  21
DOCKED: ENDBRANCH  11  20
DOCKED: TORSDOF 5
DOCKED: TER
DOCKED: ENDMDL
________________________________________________________________________________


    FINAL DOCKED STATE:
    ________________________


Run:   3 / 20
Time taken for this run:   0.039s

DOCKED: MODEL        3
DOCKED: USER    Run = 3
DOCKED: USER
DOCKED: USER    Estimated Free Energy of Binding    =  -7.14 kcal/mol  [=(1)+(2)+(3)-(4)]
DOCKED: USER
DOCKED: USER    (1) Final Intermolecular Energy     =  -8.63 kcal/mol
DOCKED: USER        vdW + Hbond + desolv Energy     =  -8.57 kcal/mol
DOCKED: USER        Electrostatic Energy            =  -0.06 kcal/mol
DOCKED: USER        Moving Ligand-Fixed Receptor    =  -8.63 kcal/mol
DOCKED: USER        Moving Ligand-Moving Receptor   =  +0.00 kcal/mol
DOCKED: USER    (2) Final Total Internal Energy     =  -1.34 kcal/mol
DOCKED: USER    (3) Torsional Free Energy           =  +1.49 kcal/mol
DOCKED: USER    (4) Unbound System's Energy         =  -1.34 kcal/mol
DOCKED: USER
DOCKED: USER
DOCKED: REMARK SMILES O=c1c2ccccc2nc(/C=C/c2cccnc2)n1Cc1ccccc1
DOCKED: REMARK SMILES IDX 10 1 9 2 8 3 7 4 6 5 5 6 4 7 3 8 2 9 1 10 19 11 11 12 12 13
DOCKED: REMARK SMILES IDX 13 14 18 15 14 16 17 17 15 18 16 19 20 20 21 21 22 22 26 23
DOCKED: REMARK SMILES IDX 23 24 25 25 24 26
DOCKED: REMARK H PARENT
DOCKED: USER                              x       y       z     vdW  Elec       q    Type
DOCKED: USER                           _______ _______ _______ _____ _____    ______ ____
DOCKED: ROOT
DOCKED: ATOM      1  C   UNL     1     139.659  70.255 223.476 -0.21 -0.02    +0.136 A  
DOCKED: ATOM      2  N   UNL     1     140.191  71.145 224.354 -0.29 +0.04    -0.230 NA 
DOCKED: ATOM      3  C   UNL     1     140.389  70.831 225.655 -0.51 -0.01    +0.078 A  
DOCKED: ATOM      4  C   UNL     1     140.927  71.780 226.531 -0.68 -0.00    +0.029 A  
DOCKED: ATOM      5  C   UNL     1     141.135  71.453 227.873 -0.77 -0.00    +0.002 A  
DOCKED: ATOM      6  C   UNL     1     140.809  70.178 228.344 -0.57 -0.00    +0.001 A  
DOCKED: ATOM      7  C   UNL     1     140.270  69.226 227.473 -0.60 -0.00    +0.016 A  
DOCKED: ATOM      8  C   UNL     1     140.053  69.548 226.120 -0.45 -0.01    +0.066 A  
DOCKED: ATOM      9  C   UNL     1     139.510  68.628 225.206 -0.26 -0.04    +0.261 A  
DOCKED: ATOM     10  O   UNL     1     139.215  67.466 225.600 -0.92 -0.01    -0.269 OA 
DOCKED: ATOM     11  N   UNL     1     139.306  68.991 223.894 -0.12 +0.05    -0.288 N  
DOCKED: ENDROOT
DOCKED: BRANCH   1  12
DOCKED: ATOM     12  C   UNL     1     139.494  70.685 222.081 -0.18 -0.01    +0.048 C  
DOCKED: BRANCH  12  13
DOCKED: ATOM     13  C   UNL     1     138.667  71.689 221.774 -0.16 -0.00    +0.013 C  
DOCKED: BRANCH  13  14
DOCKED: ATOM     14  C   UNL     1     139.041  73.109 221.895 -0.22 +0.00    -0.007 A  
DOCKED: ATOM     15  C   UNL     1     140.385  73.523 221.924 -0.24 -0.01    +0.119 A  
DOCKED: ATOM     16  C   UNL     1     138.037  74.087 221.923 -0.17 -0.00    +0.011 A  
DOCKED: ATOM     17  N   UNL     1     140.692  74.845 221.971 -0.63 +0.02    -0.264 NA 
DOCKED: ATOM     18  C   UNL     1     138.379  75.438 221.984 -0.26 -0.01    +0.021 A  
DOCKED: ATOM     19  C   UNL     1     139.727  75.802 221.999 -0.30 -0.02    +0.111 A  
DOCKED: ENDBRANCH  13  14
DOCKED: ENDBRANCH  12  13
DOCKED: ENDBRANCH   1  12
DOCKED: BRANCH  11  20
DOCKED: ATOM     20  C   UNL     1     138.743  68.018 222.930 -0.19 -0.03    +0.163 C  
DOCKED: BRANCH  20  21
DOCKED: ATOM     21  C   UNL     1     137.242  68.152 222.829 -0.13 +0.00    -0.028 A  
DOCKED: ATOM     22  C   UNL     1     136.512  67.327 221.963 -0.14 -0.00    +0.005 A  
DOCKED: ATOM     23  C   UNL     1     136.555  69.076 223.637 -0.19 -0.00    +0.005 A  
DOCKED: ATOM     24  C   UNL     1     135.123  67.452 221.875 -0.11 -0.00    +0.000 A  
DOCKED: ATOM     25  C   UNL     1     135.164  69.194 223.548 -0.15 -0.00    +0.000 A  
DOCKED: ATOM     26  C   UNL     1     134.449  68.381 222.670 -0.10 -0.00    +0.000 A  
DOCKED: ENDBRANCH  20  21
DOCKED: ENDBRANCH  11  20
DOCKED: TORSDOF 5
DOCKED: TER
DOCKED: ENDMDL
________________________________________________________________________________


    FINAL DOCKED STATE:
    ________________________


Run:   4 / 20
Time taken for this run:   0.039s

DOCKED: MODEL        4
DOCKED: USER    Run = 4
DOCKED: USER
DOCKED: USER    Estimated Free Energy of Binding    =  -7.33 kcal/mol  [=(1)+(2)+(3)-(4)]
DOCKED: USER
DOCKED: USER    (1) Final Intermolecular Energy     =  -8.82 kcal/mol
DOCKED: USER        vdW + Hbond + desolv Energy     =  -8.75 kcal/mol
DOCKED: USER        Electrostatic Energy            =  -0.07 kcal/mol
DOCKED: USER        Moving Ligand-Fixed Receptor    =  -8.82 kcal/mol
DOCKED: USER        Moving Ligand-Moving Receptor   =  +0.00 kcal/mol
DOCKED: USER    (2) Final Total Internal Energy     =  -1.19 kcal/mol
DOCKED: USER    (3) Torsional Free Energy           =  +1.49 kcal/mol
DOCKED: USER    (4) Unbound System's Energy         =  -1.19 kcal/mol
DOCKED: USER
DOCKED: USER
DOCKED: REMARK SMILES O=c1c2ccccc2nc(/C=C/c2cccnc2)n1Cc1ccccc1
DOCKED: REMARK SMILES IDX 10 1 9 2 8 3 7 4 6 5 5 6 4 7 3 8 2 9 1 10 19 11 11 12 12 13
DOCKED: REMARK SMILES IDX 13 14 18 15 14 16 17 17 15 18 16 19 20 20 21 21 22 22 26 23
DOCKED: REMARK SMILES IDX 23 24 25 25 24 26
DOCKED: REMARK H PARENT
DOCKED: USER                              x       y       z     vdW  Elec       q    Type
DOCKED: USER                           _______ _______ _______ _____ _____    ______ ____
DOCKED: ROOT
DOCKED: ATOM      1  C   UNL     1     139.788  70.356 223.431 -0.21 -0.02    +0.136 A  
DOCKED: ATOM      2  N   UNL     1     140.308  71.243 224.320 -0.29 +0.04    -0.230 NA 
DOCKED: ATOM      3  C   UNL     1     140.446  70.939 225.631 -0.51 -0.01    +0.078 A  
DOCKED: ATOM      4  C   UNL     1     140.973  71.885 226.518 -0.69 -0.00    +0.029 A  
DOCKED: ATOM      5  C   UNL     1     141.119  71.569 227.871 -0.80 -0.00    +0.002 A  
DOCKED: ATOM      6  C   UNL     1     140.743  70.308 228.342 -0.57 -0.00    +0.001 A  
DOCKED: ATOM      7  C   UNL     1     140.214  69.359 227.461 -0.60 -0.00    +0.016 A  
DOCKED: ATOM      8  C   UNL     1     140.060  69.671 226.097 -0.45 -0.01    +0.066 A  
DOCKED: ATOM      9  C   UNL     1     139.530  68.754 225.172 -0.26 -0.04    +0.261 A  
DOCKED: ATOM     10  O   UNL     1     139.190  67.604 225.566 -0.89 -0.00    -0.269 OA 
DOCKED: ATOM     11  N   UNL     1     139.387  69.107 223.848 -0.11 +0.05    -0.288 N  
DOCKED: ENDROOT
DOCKED: BRANCH   1  12
DOCKED: ATOM     12  C   UNL     1     139.689  70.774 222.026 -0.18 -0.01    +0.048 C  
DOCKED: BRANCH  12  13
DOCKED: ATOM     13  C   UNL     1     140.694  71.434 221.442 -0.20 -0.00    +0.013 C  
DOCKED: BRANCH  13  14
DOCKED: ATOM     14  C   UNL     1     140.787  72.904 221.418 -0.27 +0.00    -0.007 A  
DOCKED: ATOM     15  C   UNL     1     139.822  73.719 222.037 -0.21 -0.02    +0.119 A  
DOCKED: ATOM     16  C   UNL     1     141.894  73.516 220.814 -0.27 -0.00    +0.011 A  
DOCKED: ATOM     17  N   UNL     1     139.975  75.069 222.050 -0.62 +0.03    -0.264 NA 
DOCKED: ATOM     18  C   UNL     1     142.020  74.906 220.831 -0.30 -0.01    +0.021 A  
DOCKED: ATOM     19  C   UNL     1     141.044  75.673 221.468 -0.31 -0.03    +0.111 A  
DOCKED: ENDBRANCH  13  14
DOCKED: ENDBRANCH  12  13
DOCKED: ENDBRANCH   1  12
DOCKED: BRANCH  11  20
DOCKED: ATOM     20  C   UNL     1     138.838  68.137 222.874 -0.18 -0.03    +0.163 C  
DOCKED: BRANCH  20  21
DOCKED: ATOM     21  C   UNL     1     137.329  68.177 222.850 -0.14 +0.00    -0.028 A  
DOCKED: ATOM     22  C   UNL     1     136.629  69.082 223.661 -0.19 -0.00    +0.005 A  
DOCKED: ATOM     23  C   UNL     1     136.609  67.339 221.981 -0.14 -0.00    +0.005 A  
DOCKED: ATOM     24  C   UNL     1     135.233  69.118 223.633 -0.16 -0.00    +0.000 A  
DOCKED: ATOM     25  C   UNL     1     135.212  67.381 221.954 -0.12 -0.00    +0.000 A  
DOCKED: ATOM     26  C   UNL     1     134.524  68.272 222.777 -0.11 -0.00    +0.000 A  
DOCKED: ENDBRANCH  20  21
DOCKED: ENDBRANCH  11  20
DOCKED: TORSDOF 5
DOCKED: TER
DOCKED: ENDMDL
________________________________________________________________________________


    FINAL DOCKED STATE:
    ________________________


Run:   5 / 20
Time taken for this run:   0.039s

DOCKED: MODEL        5
DOCKED: USER    Run = 5
DOCKED: USER
DOCKED: USER    Estimated Free Energy of Binding    =  -7.14 kcal/mol  [=(1)+(2)+(3)-(4)]
DOCKED: USER
DOCKED: USER    (1) Final Intermolecular Energy     =  -8.63 kcal/mol
DOCKED: USER        vdW + Hbond + desolv Energy     =  -8.57 kcal/mol
DOCKED: USER        Electrostatic Energy            =  -0.06 kcal/mol
DOCKED: USER        Moving Ligand-Fixed Receptor    =  -8.63 kcal/mol
DOCKED: USER        Moving Ligand-Moving Receptor   =  +0.00 kcal/mol
DOCKED: USER    (2) Final Total Internal Energy     =  -1.34 kcal/mol
DOCKED: USER    (3) Torsional Free Energy           =  +1.49 kcal/mol
DOCKED: USER    (4) Unbound System's Energy         =  -1.34 kcal/mol
DOCKED: USER
DOCKED: USER
DOCKED: REMARK SMILES O=c1c2ccccc2nc(/C=C/c2cccnc2)n1Cc1ccccc1
DOCKED: REMARK SMILES IDX 10 1 9 2 8 3 7 4 6 5 5 6 4 7 3 8 2 9 1 10 19 11 11 12 12 13
DOCKED: REMARK SMILES IDX 13 14 18 15 14 16 17 17 15 18 16 19 20 20 21 21 22 22 26 23
DOCKED: REMARK SMILES IDX 23 24 25 25 24 26
DOCKED: REMARK H PARENT
DOCKED: USER                              x       y       z     vdW  Elec       q    Type
DOCKED: USER                           _______ _______ _______ _____ _____    ______ ____
DOCKED: ROOT
DOCKED: ATOM      1  C   UNL     1     139.599  70.256 223.489 -0.23 -0.02    +0.136 A  
DOCKED: ATOM      2  N   UNL     1     140.129  71.156 224.358 -0.29 +0.04    -0.230 NA 
DOCKED: ATOM      3  C   UNL     1     140.346  70.848 225.658 -0.50 -0.01    +0.078 A  
DOCKED: ATOM      4  C   UNL     1     140.881  71.807 226.525 -0.67 -0.00    +0.029 A  
DOCKED: ATOM      5  C   UNL     1     141.108  71.487 227.866 -0.79 -0.00    +0.002 A  
DOCKED: ATOM      6  C   UNL     1     140.804  70.210 228.344 -0.57 -0.00    +0.001 A  
DOCKED: ATOM      7  C   UNL     1     140.267  69.248 227.482 -0.60 -0.00    +0.016 A  
DOCKED: ATOM      8  C   UNL     1     140.031  69.563 226.131 -0.45 -0.01    +0.066 A  
DOCKED: ATOM      9  C   UNL     1     139.489  68.634 225.225 -0.27 -0.04    +0.261 A  
DOCKED: ATOM     10  O   UNL     1     139.213  67.469 225.626 -0.92 -0.01    -0.269 OA 
DOCKED: ATOM     11  N   UNL     1     139.266  68.990 223.914 -0.13 +0.05    -0.288 N  
DOCKED: ENDROOT
DOCKED: BRANCH   1  12
DOCKED: ATOM     12  C   UNL     1     139.413  70.681 222.095 -0.18 -0.01    +0.048 C  
DOCKED: BRANCH  12  13
DOCKED: ATOM     13  C   UNL     1     138.602  71.701 221.798 -0.15 -0.00    +0.013 C  
DOCKED: BRANCH  13  14
DOCKED: ATOM     14  C   UNL     1     139.008  73.112 221.908 -0.22 +0.00    -0.007 A  
DOCKED: ATOM     15  C   UNL     1     140.360  73.497 221.921 -0.25 -0.01    +0.119 A  
DOCKED: ATOM     16  C   UNL     1     138.025  74.112 221.945 -0.17 -0.00    +0.011 A  
DOCKED: ATOM     17  N   UNL     1     140.696  74.813 221.959 -0.63 +0.02    -0.264 NA 
DOCKED: ATOM     18  C   UNL     1     138.397  75.456 221.996 -0.26 -0.01    +0.021 A  
DOCKED: ATOM     19  C   UNL     1     139.753  75.791 221.994 -0.30 -0.02    +0.111 A  
DOCKED: ENDBRANCH  13  14
DOCKED: ENDBRANCH  12  13
DOCKED: ENDBRANCH   1  12
DOCKED: BRANCH  11  20
DOCKED: ATOM     20  C   UNL     1     138.705  68.007 222.960 -0.19 -0.03    +0.163 C  
DOCKED: BRANCH  20  21
DOCKED: ATOM     21  C   UNL     1     137.204  68.138 222.857 -0.11 +0.00    -0.028 A  
DOCKED: ATOM     22  C   UNL     1     136.517  69.077 223.639 -0.19 -0.00    +0.005 A  
DOCKED: ATOM     23  C   UNL     1     136.483  67.350 221.943 -0.14 -0.00    +0.005 A  
DOCKED: ATOM     24  C   UNL     1     135.129  69.197 223.537 -0.15 -0.00    +0.000 A  
DOCKED: ATOM     25  C   UNL     1     135.094  67.476 221.842 -0.11 -0.00    +0.000 A  
DOCKED: ATOM     26  C   UNL     1     134.417  68.401 222.637 -0.10 -0.00    +0.000 A  
DOCKED: ENDBRANCH  20  21
DOCKED: ENDBRANCH  11  20
DOCKED: TORSDOF 5
DOCKED: TER
DOCKED: ENDMDL
________________________________________________________________________________


    FINAL DOCKED STATE:
    ________________________


Run:   6 / 20
Time taken for this run:   0.039s

DOCKED: MODEL        6
DOCKED: USER    Run = 6
DOCKED: USER
DOCKED: USER    Estimated Free Energy of Binding    =  -7.18 kcal/mol  [=(1)+(2)+(3)-(4)]
DOCKED: USER
DOCKED: USER    (1) Final Intermolecular Energy     =  -8.67 kcal/mol
DOCKED: USER        vdW + Hbond + desolv Energy     =  -8.61 kcal/mol
DOCKED: USER        Electrostatic Energy            =  -0.06 kcal/mol
DOCKED: USER        Moving Ligand-Fixed Receptor    =  -8.67 kcal/mol
DOCKED: USER        Moving Ligand-Moving Receptor   =  +0.00 kcal/mol
DOCKED: USER    (2) Final Total Internal Energy     =  -1.30 kcal/mol
DOCKED: USER    (3) Torsional Free Energy           =  +1.49 kcal/mol
DOCKED: USER    (4) Unbound System's Energy         =  -1.30 kcal/mol
DOCKED: USER
DOCKED: USER
DOCKED: REMARK SMILES O=c1c2ccccc2nc(/C=C/c2cccnc2)n1Cc1ccccc1
DOCKED: REMARK SMILES IDX 10 1 9 2 8 3 7 4 6 5 5 6 4 7 3 8 2 9 1 10 19 11 11 12 12 13
DOCKED: REMARK SMILES IDX 13 14 18 15 14 16 17 17 15 18 16 19 20 20 21 21 22 22 26 23
DOCKED: REMARK SMILES IDX 23 24 25 25 24 26
DOCKED: REMARK H PARENT
DOCKED: USER                              x       y       z     vdW  Elec       q    Type
DOCKED: USER                           _______ _______ _______ _____ _____    ______ ____
DOCKED: ROOT
DOCKED: ATOM      1  C   UNL     1     139.580  70.303 223.497 -0.23 -0.02    +0.136 A  
DOCKED: ATOM      2  N   UNL     1     140.098  71.162 224.415 -0.29 +0.04    -0.230 NA 
DOCKED: ATOM      3  C   UNL     1     140.331  70.783 225.693 -0.50 -0.01    +0.078 A  
DOCKED: ATOM      4  C   UNL     1     140.852  71.701 226.612 -0.68 -0.00    +0.029 A  
DOCKED: ATOM      5  C   UNL     1     141.096  71.308 227.930 -0.77 -0.00    +0.002 A  
DOCKED: ATOM      6  C   UNL     1     140.823  69.997 228.334 -0.57 -0.00    +0.001 A  
DOCKED: ATOM      7  C   UNL     1     140.301  69.076 227.420 -0.61 -0.00    +0.016 A  
DOCKED: ATOM      8  C   UNL     1     140.048  69.465 226.091 -0.45 -0.01    +0.066 A  
DOCKED: ATOM      9  C   UNL     1     139.520  68.579 225.136 -0.26 -0.04    +0.261 A  
DOCKED: ATOM     10  O   UNL     1     139.273  67.387 225.469 -0.93 -0.01    -0.269 OA 
DOCKED: ATOM     11  N   UNL     1     139.279  69.007 223.849 -0.12 +0.05    -0.288 N  
DOCKED: ENDROOT
DOCKED: BRANCH   1  12
DOCKED: ATOM     12  C   UNL     1     139.374  70.805 222.132 -0.19 -0.01    +0.048 C  
DOCKED: BRANCH  12  13
DOCKED: ATOM     13  C   UNL     1     138.572  71.850 221.906 -0.16 -0.00    +0.013 C  
DOCKED: BRANCH  13  14
DOCKED: ATOM     14  C   UNL     1     139.032  73.248 221.969 -0.23 +0.00    -0.007 A  
DOCKED: ATOM     15  C   UNL     1     140.398  73.581 221.969 -0.24 -0.01    +0.119 A  
DOCKED: ATOM     16  C   UNL     1     138.089  74.286 221.970 -0.18 -0.00    +0.011 A  
DOCKED: ATOM     17  N   UNL     1     140.784  74.884 221.962 -0.60 +0.02    -0.264 NA 
DOCKED: ATOM     18  C   UNL     1     138.512  75.615 221.975 -0.27 -0.01    +0.021 A  
DOCKED: ATOM     19  C   UNL     1     139.879  75.897 221.963 -0.31 -0.02    +0.111 A  
DOCKED: ENDBRANCH  13  14
DOCKED: ENDBRANCH  12  13
DOCKED: ENDBRANCH   1  12
DOCKED: BRANCH  11  20
DOCKED: ATOM     20  C   UNL     1     138.732  68.070 222.842 -0.19 -0.03    +0.163 C  
DOCKED: BRANCH  20  21
DOCKED: ATOM     21  C   UNL     1     137.225  68.136 222.793 -0.14 +0.00    -0.028 A  
DOCKED: ATOM     22  C   UNL     1     136.502  67.273 221.958 -0.14 -0.00    +0.005 A  
DOCKED: ATOM     23  C   UNL     1     136.525  69.035 223.617 -0.19 -0.00    +0.005 A  
DOCKED: ATOM     24  C   UNL     1     135.107  67.335 221.918 -0.12 -0.00    +0.000 A  
DOCKED: ATOM     25  C   UNL     1     135.128  69.092 223.577 -0.15 -0.00    +0.000 A  
DOCKED: ATOM     26  C   UNL     1     134.420  68.241 222.729 -0.11 -0.00    +0.000 A  
DOCKED: ENDBRANCH  20  21
DOCKED: ENDBRANCH  11  20
DOCKED: TORSDOF 5
DOCKED: TER
DOCKED: ENDMDL
________________________________________________________________________________


    FINAL DOCKED STATE:
    ________________________


Run:   7 / 20
Time taken for this run:   0.039s

DOCKED: MODEL        7
DOCKED: USER    Run = 7
DOCKED: USER
DOCKED: USER    Estimated Free Energy of Binding    =  -7.30 kcal/mol  [=(1)+(2)+(3)-(4)]
DOCKED: USER
DOCKED: USER    (1) Final Intermolecular Energy     =  -8.79 kcal/mol
DOCKED: USER        vdW + Hbond + desolv Energy     =  -8.73 kcal/mol
DOCKED: USER        Electrostatic Energy            =  -0.06 kcal/mol
DOCKED: USER        Moving Ligand-Fixed Receptor    =  -8.79 kcal/mol
DOCKED: USER        Moving Ligand-Moving Receptor   =  +0.00 kcal/mol
DOCKED: USER    (2) Final Total Internal Energy     =  -1.23 kcal/mol
DOCKED: USER    (3) Torsional Free Energy           =  +1.49 kcal/mol
DOCKED: USER    (4) Unbound System's Energy         =  -1.23 kcal/mol
DOCKED: USER
DOCKED: USER
DOCKED: REMARK SMILES O=c1c2ccccc2nc(/C=C/c2cccnc2)n1Cc1ccccc1
DOCKED: REMARK SMILES IDX 10 1 9 2 8 3 7 4 6 5 5 6 4 7 3 8 2 9 1 10 19 11 11 12 12 13
DOCKED: REMARK SMILES IDX 13 14 18 15 14 16 17 17 15 18 16 19 20 20 21 21 22 22 26 23
DOCKED: REMARK SMILES IDX 23 24 25 25 24 26
DOCKED: REMARK H PARENT
DOCKED: USER                              x       y       z     vdW  Elec       q    Type
DOCKED: USER                           _______ _______ _______ _____ _____    ______ ____
DOCKED: ROOT
DOCKED: ATOM      1  C   UNL     1     139.704  70.214 223.456 -0.20 -0.02    +0.136 A  
DOCKED: ATOM      2  N   UNL     1     140.248  71.138 224.290 -0.28 +0.04    -0.230 NA 
DOCKED: ATOM      3  C   UNL     1     140.426  70.890 225.609 -0.51 -0.01    +0.078 A  
DOCKED: ATOM      4  C   UNL     1     140.977  71.873 226.438 -0.67 -0.00    +0.029 A  
DOCKED: ATOM      5  C   UNL     1     141.164  71.615 227.798 -0.79 -0.00    +0.002 A  
DOCKED: ATOM      6  C   UNL     1     140.805  70.375 228.333 -0.57 -0.00    +0.001 A  
DOCKED: ATOM      7  C   UNL     1     140.252  69.389 227.509 -0.60 -0.00    +0.016 A  
DOCKED: ATOM      8  C   UNL     1     140.056  69.642 226.139 -0.45 -0.01    +0.066 A  
DOCKED: ATOM      9  C   UNL     1     139.501  68.687 225.269 -0.27 -0.04    +0.261 A  
DOCKED: ATOM     10  O   UNL     1     139.175  67.555 225.722 -0.90 -0.00    -0.269 OA 
DOCKED: ATOM     11  N   UNL     1     139.317  68.983 223.937 -0.12 +0.05    -0.288 N  
DOCKED: ENDROOT
DOCKED: BRANCH   1  12
DOCKED: ATOM     12  C   UNL     1     139.562  70.572 222.038 -0.18 -0.01    +0.048 C  
DOCKED: BRANCH  12  13
DOCKED: ATOM     13  C   UNL     1     140.550  71.200 221.394 -0.17 -0.00    +0.013 C  
DOCKED: BRANCH  13  14
DOCKED: ATOM     14  C   UNL     1     140.704  72.665 221.386 -0.25 +0.00    -0.007 A  
DOCKED: ATOM     15  C   UNL     1     139.744  73.516 221.963 -0.24 -0.02    +0.119 A  
DOCKED: ATOM     16  C   UNL     1     141.863  73.235 220.840 -0.26 -0.00    +0.011 A  
DOCKED: ATOM     17  N   UNL     1     139.950  74.859 221.993 -0.69 +0.03    -0.264 NA 
DOCKED: ATOM     18  C   UNL     1     142.045  74.618 220.874 -0.29 -0.01    +0.021 A  
DOCKED: ATOM     19  C   UNL     1     141.070  75.421 221.468 -0.30 -0.03    +0.111 A  
DOCKED: ENDBRANCH  13  14
DOCKED: ENDBRANCH  12  13
DOCKED: ENDBRANCH   1  12
DOCKED: BRANCH  11  20
DOCKED: ATOM     20  C   UNL     1     138.742  67.972 223.021 -0.19 -0.02    +0.163 C  
DOCKED: BRANCH  20  21
DOCKED: ATOM     21  C   UNL     1     137.248  68.143 222.885 -0.12 +0.00    -0.028 A  
DOCKED: ATOM     22  C   UNL     1     136.565  69.083 223.670 -0.19 -0.00    +0.005 A  
DOCKED: ATOM     23  C   UNL     1     136.530  67.393 221.937 -0.14 -0.00    +0.005 A  
DOCKED: ATOM     24  C   UNL     1     135.183  69.240 223.538 -0.15 -0.00    +0.000 A  
DOCKED: ATOM     25  C   UNL     1     135.147  67.556 221.806 -0.11 -0.00    +0.000 A  
DOCKED: ATOM     26  C   UNL     1     134.475  68.481 222.604 -0.10 -0.00    +0.000 A  
DOCKED: ENDBRANCH  20  21
DOCKED: ENDBRANCH  11  20
DOCKED: TORSDOF 5
DOCKED: TER
DOCKED: ENDMDL
________________________________________________________________________________


    FINAL DOCKED STATE:
    ________________________


Run:   8 / 20
Time taken for this run:   0.039s

DOCKED: MODEL        8
DOCKED: USER    Run = 8
DOCKED: USER
DOCKED: USER    Estimated Free Energy of Binding    =  -7.13 kcal/mol  [=(1)+(2)+(3)-(4)]
DOCKED: USER
DOCKED: USER    (1) Final Intermolecular Energy     =  -8.62 kcal/mol
DOCKED: USER        vdW + Hbond + desolv Energy     =  -8.56 kcal/mol
DOCKED: USER        Electrostatic Energy            =  -0.06 kcal/mol
DOCKED: USER        Moving Ligand-Fixed Receptor    =  -8.62 kcal/mol
DOCKED: USER        Moving Ligand-Moving Receptor   =  +0.00 kcal/mol
DOCKED: USER    (2) Final Total Internal Energy     =  -1.36 kcal/mol
DOCKED: USER    (3) Torsional Free Energy           =  +1.49 kcal/mol
DOCKED: USER    (4) Unbound System's Energy         =  -1.36 kcal/mol
DOCKED: USER
DOCKED: USER
DOCKED: REMARK SMILES O=c1c2ccccc2nc(/C=C/c2cccnc2)n1Cc1ccccc1
DOCKED: REMARK SMILES IDX 10 1 9 2 8 3 7 4 6 5 5 6 4 7 3 8 2 9 1 10 19 11 11 12 12 13
DOCKED: REMARK SMILES IDX 13 14 18 15 14 16 17 17 15 18 16 19 20 20 21 21 22 22 26 23
DOCKED: REMARK SMILES IDX 23 24 25 25 24 26
DOCKED: REMARK H PARENT
DOCKED: USER                              x       y       z     vdW  Elec       q    Type
DOCKED: USER                           _______ _______ _______ _____ _____    ______ ____
DOCKED: ROOT
DOCKED: ATOM      1  C   UNL     1     139.564  70.184 223.501 -0.22 -0.02    +0.136 A  
DOCKED: ATOM      2  N   UNL     1     140.098  71.104 224.345 -0.28 +0.04    -0.230 NA 
DOCKED: ATOM      3  C   UNL     1     140.338  70.823 225.647 -0.50 -0.01    +0.078 A  
DOCKED: ATOM      4  C   UNL     1     140.877  71.803 226.488 -0.66 -0.00    +0.029 A  
DOCKED: ATOM      5  C   UNL     1     141.128  71.510 227.831 -0.79 -0.00    +0.002 A  
DOCKED: ATOM      6  C   UNL     1     140.845  70.238 228.337 -0.57 -0.00    +0.001 A  
DOCKED: ATOM      7  C   UNL     1     140.305  69.255 227.501 -0.61 -0.00    +0.016 A  
DOCKED: ATOM      8  C   UNL     1     140.044  69.543 226.148 -0.45 -0.01    +0.066 A  
DOCKED: ATOM      9  C   UNL     1     139.498  68.592 225.268 -0.27 -0.04    +0.261 A  
DOCKED: ATOM     10  O   UNL     1     139.241  67.432 225.694 -0.92 -0.00    -0.269 OA 
DOCKED: ATOM     11  N   UNL     1     139.251  68.922 223.955 -0.13 +0.05    -0.288 N  
DOCKED: ENDROOT
DOCKED: BRANCH   1  12
DOCKED: ATOM     12  C   UNL     1     139.352  70.581 222.103 -0.18 -0.01    +0.048 C  
DOCKED: BRANCH  12  13
DOCKED: ATOM     13  C   UNL     1     138.557  71.613 221.803 -0.15 -0.00    +0.013 C  
DOCKED: BRANCH  13  14
DOCKED: ATOM     14  C   UNL     1     138.986  73.018 221.911 -0.22 +0.00    -0.007 A  
DOCKED: ATOM     15  C   UNL     1     140.345  73.380 221.939 -0.26 -0.01    +0.119 A  
DOCKED: ATOM     16  C   UNL     1     138.020  74.035 221.930 -0.17 -0.00    +0.011 A  
DOCKED: ATOM     17  N   UNL     1     140.702  74.691 221.974 -0.65 +0.02    -0.264 NA 
DOCKED: ATOM     18  C   UNL     1     138.415  75.372 221.978 -0.26 -0.01    +0.021 A  
DOCKED: ATOM     19  C   UNL     1     139.775  75.684 221.992 -0.29 -0.02    +0.111 A  
DOCKED: ENDBRANCH  13  14
DOCKED: ENDBRANCH  12  13
DOCKED: ENDBRANCH   1  12
DOCKED: BRANCH  11  20
DOCKED: ATOM     20  C   UNL     1     138.686  67.916 223.027 -0.19 -0.02    +0.163 C  
DOCKED: BRANCH  20  21
DOCKED: ATOM     21  C   UNL     1     137.207  68.137 222.814 -0.13 +0.00    -0.028 A  
DOCKED: ATOM     22  C   UNL     1     136.511  67.400 221.845 -0.14 -0.00    +0.005 A  
DOCKED: ATOM     23  C   UNL     1     136.502  69.052 223.615 -0.19 -0.00    +0.005 A  
DOCKED: ATOM     24  C   UNL     1     135.142  67.605 221.654 -0.10 -0.00    +0.000 A  
DOCKED: ATOM     25  C   UNL     1     135.132  69.252 223.422 -0.14 -0.00    +0.000 A  
DOCKED: ATOM     26  C   UNL     1     134.452  68.527 222.444 -0.09 -0.00    +0.000 A  
DOCKED: ENDBRANCH  20  21
DOCKED: ENDBRANCH  11  20
DOCKED: TORSDOF 5
DOCKED: TER
DOCKED: ENDMDL
________________________________________________________________________________


    FINAL DOCKED STATE:
    ________________________


Run:   9 / 20
Time taken for this run:   0.039s

DOCKED: MODEL        9
DOCKED: USER    Run = 9
DOCKED: USER
DOCKED: USER    Estimated Free Energy of Binding    =  -7.34 kcal/mol  [=(1)+(2)+(3)-(4)]
DOCKED: USER
DOCKED: USER    (1) Final Intermolecular Energy     =  -8.83 kcal/mol
DOCKED: USER        vdW + Hbond + desolv Energy     =  -8.76 kcal/mol
DOCKED: USER        Electrostatic Energy            =  -0.07 kcal/mol
DOCKED: USER        Moving Ligand-Fixed Receptor    =  -8.83 kcal/mol
DOCKED: USER        Moving Ligand-Moving Receptor   =  +0.00 kcal/mol
DOCKED: USER    (2) Final Total Internal Energy     =  -1.20 kcal/mol
DOCKED: USER    (3) Torsional Free Energy           =  +1.49 kcal/mol
DOCKED: USER    (4) Unbound System's Energy         =  -1.20 kcal/mol
DOCKED: USER
DOCKED: USER
DOCKED: REMARK SMILES O=c1c2ccccc2nc(/C=C/c2cccnc2)n1Cc1ccccc1
DOCKED: REMARK SMILES IDX 10 1 9 2 8 3 7 4 6 5 5 6 4 7 3 8 2 9 1 10 19 11 11 12 12 13
DOCKED: REMARK SMILES IDX 13 14 18 15 14 16 17 17 15 18 16 19 20 20 21 21 22 22 26 23
DOCKED: REMARK SMILES IDX 23 24 25 25 24 26
DOCKED: REMARK H PARENT
DOCKED: USER                              x       y       z     vdW  Elec       q    Type
DOCKED: USER                           _______ _______ _______ _____ _____    ______ ____
DOCKED: ROOT
DOCKED: ATOM      1  C   UNL     1     139.642  70.330 223.456 -0.22 -0.02    +0.136 A  
DOCKED: ATOM      2  N   UNL     1     140.161  71.210 224.352 -0.29 +0.04    -0.230 NA 
DOCKED: ATOM      3  C   UNL     1     140.343  70.879 225.652 -0.50 -0.01    +0.078 A  
DOCKED: ATOM      4  C   UNL     1     140.866  71.819 226.547 -0.67 -0.00    +0.029 A  
DOCKED: ATOM      5  C   UNL     1     141.058  71.474 227.888 -0.80 -0.00    +0.002 A  
DOCKED: ATOM      6  C   UNL     1     140.729  70.192 228.337 -0.57 -0.00    +0.001 A  
DOCKED: ATOM      7  C   UNL     1     140.204  69.250 227.447 -0.60 -0.00    +0.016 A  
DOCKED: ATOM      8  C   UNL     1     140.004  69.590 226.096 -0.45 -0.01    +0.066 A  
DOCKED: ATOM      9  C   UNL     1     139.475  68.681 225.162 -0.26 -0.04    +0.261 A  
DOCKED: ATOM     10  O   UNL     1     139.178  67.513 225.537 -0.90 -0.01    -0.269 OA 
DOCKED: ATOM     11  N   UNL     1     139.287  69.061 223.852 -0.12 +0.05    -0.288 N  
DOCKED: ENDROOT
DOCKED: BRANCH   1  12
DOCKED: ATOM     12  C   UNL     1     139.494  70.779 222.065 -0.19 -0.01    +0.048 C  
DOCKED: BRANCH  12  13
DOCKED: ATOM     13  C   UNL     1     140.503  71.391 221.438 -0.19 -0.00    +0.013 C  
DOCKED: BRANCH  13  14
DOCKED: ATOM     14  C   UNL     1     140.666  72.855 221.409 -0.26 +0.00    -0.007 A  
DOCKED: ATOM     15  C   UNL     1     139.729  73.718 222.007 -0.22 -0.02    +0.119 A  
DOCKED: ATOM     16  C   UNL     1     141.811  73.411 220.823 -0.26 -0.00    +0.011 A  
DOCKED: ATOM     17  N   UNL     1     139.946  75.059 222.017 -0.62 +0.03    -0.264 NA 
DOCKED: ATOM     18  C   UNL     1     142.003  74.793 220.837 -0.30 -0.01    +0.021 A  
DOCKED: ATOM     19  C   UNL     1     141.053  75.609 221.453 -0.30 -0.03    +0.111 A  
DOCKED: ENDBRANCH  13  14
DOCKED: ENDBRANCH  12  13
DOCKED: ENDBRANCH   1  12
DOCKED: BRANCH  11  20
DOCKED: ATOM     20  C   UNL     1     138.739  68.099 222.869 -0.19 -0.03    +0.163 C  
DOCKED: BRANCH  20  21
DOCKED: ATOM     21  C   UNL     1     137.234  68.183 222.799 -0.14 +0.00    -0.028 A  
DOCKED: ATOM     22  C   UNL     1     136.537  69.112 223.585 -0.19 -0.00    +0.005 A  
DOCKED: ATOM     23  C   UNL     1     136.516  67.362 221.912 -0.14 -0.00    +0.005 A  
DOCKED: ATOM     24  C   UNL     1     135.143  69.189 223.514 -0.15 -0.00    +0.000 A  
DOCKED: ATOM     25  C   UNL     1     135.122  67.445 221.842 -0.11 -0.00    +0.000 A  
DOCKED: ATOM     26  C   UNL     1     134.436  68.359 222.641 -0.10 -0.00    +0.000 A  
DOCKED: ENDBRANCH  20  21
DOCKED: ENDBRANCH  11  20
DOCKED: TORSDOF 5
DOCKED: TER
DOCKED: ENDMDL
________________________________________________________________________________


    FINAL DOCKED STATE:
    ________________________


Run:   10 / 20
Time taken for this run:   0.039s

DOCKED: MODEL        10
DOCKED: USER    Run = 10
DOCKED: USER
DOCKED: USER    Estimated Free Energy of Binding    =  -6.86 kcal/mol  [=(1)+(2)+(3)-(4)]
DOCKED: USER
DOCKED: USER    (1) Final Intermolecular Energy     =  -8.35 kcal/mol
DOCKED: USER        vdW + Hbond + desolv Energy     =  -8.32 kcal/mol
DOCKED: USER        Electrostatic Energy            =  -0.03 kcal/mol
DOCKED: USER        Moving Ligand-Fixed Receptor    =  -8.35 kcal/mol
DOCKED: USER        Moving Ligand-Moving Receptor   =  +0.00 kcal/mol
DOCKED: USER    (2) Final Total Internal Energy     =  -1.47 kcal/mol
DOCKED: USER    (3) Torsional Free Energy           =  +1.49 kcal/mol
DOCKED: USER    (4) Unbound System's Energy         =  -1.47 kcal/mol
DOCKED: USER
DOCKED: USER
DOCKED: REMARK SMILES O=c1c2ccccc2nc(/C=C/c2cccnc2)n1Cc1ccccc1
DOCKED: REMARK SMILES IDX 10 1 9 2 8 3 7 4 6 5 5 6 4 7 3 8 2 9 1 10 19 11 11 12 12 13
DOCKED: REMARK SMILES IDX 13 14 18 15 14 16 17 17 15 18 16 19 20 20 21 21 22 22 26 23
DOCKED: REMARK SMILES IDX 23 24 25 25 24 26
DOCKED: REMARK H PARENT
DOCKED: USER                              x       y       z     vdW  Elec       q    Type
DOCKED: USER                           _______ _______ _______ _____ _____    ______ ____
DOCKED: ROOT
DOCKED: ATOM      1  C   UNL     1     139.151  70.808 223.826 -0.27 -0.03    +0.136 A  
DOCKED: ATOM      2  N   UNL     1     139.882  71.467 224.762 -0.29 +0.05    -0.230 NA 
DOCKED: ATOM      3  C   UNL     1     140.264  70.873 225.917 -0.51 -0.01    +0.078 A  
DOCKED: ATOM      4  C   UNL     1     141.005  71.590 226.862 -0.72 -0.00    +0.029 A  
DOCKED: ATOM      5  C   UNL     1     141.402  70.974 228.052 -0.52 -0.00    +0.002 A  
DOCKED: ATOM      6  C   UNL     1     141.062  69.641 228.299 -0.58 -0.00    +0.001 A  
DOCKED: ATOM      7  C   UNL     1     140.321  68.920 227.358 -0.62 -0.00    +0.016 A  
DOCKED: ATOM      8  C   UNL     1     139.913  69.534 226.159 -0.45 -0.01    +0.066 A  
DOCKED: ATOM      9  C   UNL     1     139.162  68.854 225.183 -0.26 -0.03    +0.261 A  
DOCKED: ATOM     10  O   UNL     1     138.850  67.647 225.375 -0.78 -0.03    -0.269 OA 
DOCKED: ATOM     11  N   UNL     1     138.777  69.499 224.030 -0.15 +0.04    -0.288 N  
DOCKED: ENDROOT
DOCKED: BRANCH   1  12
DOCKED: ATOM     12  C   UNL     1     138.795  71.535 222.600 -0.22 -0.01    +0.048 C  
DOCKED: BRANCH  12  13
DOCKED: ATOM     13  C   UNL     1     139.350  72.721 222.329 -0.24 -0.00    +0.013 C  
DOCKED: BRANCH  13  14
DOCKED: ATOM     14  C   UNL     1     140.645  72.867 221.643 -0.29 +0.00    -0.007 A  
DOCKED: ATOM     15  C   UNL     1     141.140  74.124 221.251 -0.25 -0.02    +0.119 A  
DOCKED: ATOM     16  C   UNL     1     141.442  71.735 221.424 -0.21 -0.00    +0.011 A  
DOCKED: ATOM     17  N   UNL     1     142.369  74.227 220.680 -0.16 +0.07    -0.264 NA 
DOCKED: ATOM     18  C   UNL     1     142.695  71.867 220.824 -0.25 -0.00    +0.021 A  
DOCKED: ATOM     19  C   UNL     1     143.149  73.136 220.462 -0.26 -0.02    +0.111 A  
DOCKED: ENDBRANCH  13  14
DOCKED: ENDBRANCH  12  13
DOCKED: ENDBRANCH   1  12
DOCKED: BRANCH  11  20
DOCKED: ATOM     20  C   UNL     1     137.995  68.779 222.999 -0.18 -0.02    +0.163 C  
DOCKED: BRANCH  20  21
DOCKED: ATOM     21  C   UNL     1     138.898  68.017 222.060 -0.20 +0.01    -0.028 A  
DOCKED: ATOM     22  C   UNL     1     139.642  68.693 221.082 -0.14 -0.00    +0.005 A  
DOCKED: ATOM     23  C   UNL     1     139.039  66.623 222.183 -0.28 -0.00    +0.005 A  
DOCKED: ATOM     24  C   UNL     1     140.479  67.984 220.218 -0.14 -0.00    +0.000 A  
DOCKED: ATOM     25  C   UNL     1     139.881  65.918 221.317 -0.24 -0.00    +0.000 A  
DOCKED: ATOM     26  C   UNL     1     140.602  66.598 220.337 -0.12 -0.00    +0.000 A  
DOCKED: ENDBRANCH  20  21
DOCKED: ENDBRANCH  11  20
DOCKED: TORSDOF 5
DOCKED: TER
DOCKED: ENDMDL
________________________________________________________________________________


    FINAL DOCKED STATE:
    ________________________


Run:   11 / 20
Time taken for this run:   0.039s

DOCKED: MODEL        11
DOCKED: USER    Run = 11
DOCKED: USER
DOCKED: USER    Estimated Free Energy of Binding    =  -7.20 kcal/mol  [=(1)+(2)+(3)-(4)]
DOCKED: USER
DOCKED: USER    (1) Final Intermolecular Energy     =  -8.69 kcal/mol
DOCKED: USER        vdW + Hbond + desolv Energy     =  -8.53 kcal/mol
DOCKED: USER        Electrostatic Energy            =  -0.16 kcal/mol
DOCKED: USER        Moving Ligand-Fixed Receptor    =  -8.69 kcal/mol
DOCKED: USER        Moving Ligand-Moving Receptor   =  +0.00 kcal/mol
DOCKED: USER    (2) Final Total Internal Energy     =  -1.33 kcal/mol
DOCKED: USER    (3) Torsional Free Energy           =  +1.49 kcal/mol
DOCKED: USER    (4) Unbound System's Energy         =  -1.33 kcal/mol
DOCKED: USER
DOCKED: USER
DOCKED: REMARK SMILES O=c1c2ccccc2nc(/C=C/c2cccnc2)n1Cc1ccccc1
DOCKED: REMARK SMILES IDX 10 1 9 2 8 3 7 4 6 5 5 6 4 7 3 8 2 9 1 10 19 11 11 12 12 13
DOCKED: REMARK SMILES IDX 13 14 18 15 14 16 17 17 15 18 16 19 20 20 21 21 22 22 26 23
DOCKED: REMARK SMILES IDX 23 24 25 25 24 26
DOCKED: REMARK H PARENT
DOCKED: USER                              x       y       z     vdW  Elec       q    Type
DOCKED: USER                           _______ _______ _______ _____ _____    ______ ____
DOCKED: ROOT
DOCKED: ATOM      1  C   UNL     1     141.639  75.401 220.681 -0.24 -0.05    +0.136 A  
DOCKED: ATOM      2  N   UNL     1     141.844  74.075 220.892 -0.19 +0.05    -0.230 NA 
DOCKED: ATOM      3  C   UNL     1     140.889  73.284 221.435 -0.25 -0.01    +0.078 A  
DOCKED: ATOM      4  C   UNL     1     141.144  71.924 221.649 -0.24 -0.00    +0.029 A  
DOCKED: ATOM      5  C   UNL     1     140.156  71.108 222.206 -0.23 -0.00    +0.002 A  
DOCKED: ATOM      6  C   UNL     1     138.913  71.646 222.550 -0.23 -0.00    +0.001 A  
DOCKED: ATOM      7  C   UNL     1     138.653  73.004 222.340 -0.11 -0.01    +0.016 A  
DOCKED: ATOM      8  C   UNL     1     139.644  73.834 221.783 -0.25 -0.01    +0.066 A  
DOCKED: ATOM      9  C   UNL     1     139.435  75.206 221.556 -0.19 -0.05    +0.261 A  
DOCKED: ATOM     10  O   UNL     1     138.319  75.717 221.848 -0.17 +0.06    -0.269 OA 
DOCKED: ATOM     11  N   UNL     1     140.437  75.982 221.018 -0.13 +0.08    -0.288 N  
DOCKED: ENDROOT
DOCKED: BRANCH   1  12
DOCKED: ATOM     12  C   UNL     1     142.732  76.174 220.075 -0.25 -0.03    +0.048 C  
DOCKED: BRANCH  12  13
DOCKED: ATOM     13  C   UNL     1     143.560  75.603 219.195 -0.33 -0.01    +0.013 C  
DOCKED: BRANCH  13  14
DOCKED: ATOM     14  C   UNL     1     144.455  74.485 219.538 -0.29 +0.00    -0.007 A  
DOCKED: ATOM     15  C   UNL     1     144.813  73.503 218.597 -0.19 -0.01    +0.119 A  
DOCKED: ATOM     16  C   UNL     1     145.019  74.420 220.821 -0.43 -0.00    +0.011 A  
DOCKED: ATOM     17  N   UNL     1     145.693  72.523 218.931 -0.68 -0.18    -0.264 NA 
DOCKED: ATOM     18  C   UNL     1     145.910  73.396 221.142 -0.70 -0.00    +0.021 A  
DOCKED: ATOM     19  C   UNL     1     146.245  72.451 220.171 -0.30 +0.05    +0.111 A  
DOCKED: ENDBRANCH  13  14
DOCKED: ENDBRANCH  12  13
DOCKED: ENDBRANCH   1  12
DOCKED: BRANCH  11  20
DOCKED: ATOM     20  C   UNL     1     140.212  77.424 220.771 -0.15 -0.05    +0.163 C  
DOCKED: BRANCH  20  21
DOCKED: ATOM     21  C   UNL     1     141.034  78.276 221.708 -0.35 +0.01    -0.028 A  
DOCKED: ATOM     22  C   UNL     1     141.735  79.390 221.226 -0.38 -0.00    +0.005 A  
DOCKED: ATOM     23  C   UNL     1     141.069  77.988 223.085 -0.48 -0.00    +0.005 A  
DOCKED: ATOM     24  C   UNL     1     142.491  80.178 222.098 -0.52 -0.00    +0.000 A  
DOCKED: ATOM     25  C   UNL     1     141.824  78.782 223.954 -0.60 -0.00    +0.000 A  
DOCKED: ATOM     26  C   UNL     1     142.533  79.877 223.461 -0.65 -0.00    +0.000 A  
DOCKED: ENDBRANCH  20  21
DOCKED: ENDBRANCH  11  20
DOCKED: TORSDOF 5
DOCKED: TER
DOCKED: ENDMDL
________________________________________________________________________________


    FINAL DOCKED STATE:
    ________________________


Run:   12 / 20
Time taken for this run:   0.039s

DOCKED: MODEL        12
DOCKED: USER    Run = 12
DOCKED: USER
DOCKED: USER    Estimated Free Energy of Binding    =  -6.31 kcal/mol  [=(1)+(2)+(3)-(4)]
DOCKED: USER
DOCKED: USER    (1) Final Intermolecular Energy     =  -7.80 kcal/mol
DOCKED: USER        vdW + Hbond + desolv Energy     =  -7.87 kcal/mol
DOCKED: USER        Electrostatic Energy            =  +0.06 kcal/mol
DOCKED: USER        Moving Ligand-Fixed Receptor    =  -7.80 kcal/mol
DOCKED: USER        Moving Ligand-Moving Receptor   =  +0.00 kcal/mol
DOCKED: USER    (2) Final Total Internal Energy     =  -1.89 kcal/mol
DOCKED: USER    (3) Torsional Free Energy           =  +1.49 kcal/mol
DOCKED: USER    (4) Unbound System's Energy         =  -1.89 kcal/mol
DOCKED: USER
DOCKED: USER
DOCKED: REMARK SMILES O=c1c2ccccc2nc(/C=C/c2cccnc2)n1Cc1ccccc1
DOCKED: REMARK SMILES IDX 10 1 9 2 8 3 7 4 6 5 5 6 4 7 3 8 2 9 1 10 19 11 11 12 12 13
DOCKED: REMARK SMILES IDX 13 14 18 15 14 16 17 17 15 18 16 19 20 20 21 21 22 22 26 23
DOCKED: REMARK SMILES IDX 23 24 25 25 24 26
DOCKED: REMARK H PARENT
DOCKED: USER                              x       y       z     vdW  Elec       q    Type
DOCKED: USER                           _______ _______ _______ _____ _____    ______ ____
DOCKED: ROOT
DOCKED: ATOM      1  C   UNL     1     140.409  76.161 221.072 -0.22 -0.04    +0.136 A  
DOCKED: ATOM      2  N   UNL     1     140.704  74.862 221.340 -0.33 +0.04    -0.230 NA 
DOCKED: ATOM      3  C   UNL     1     141.868  74.299 220.940 -0.25 -0.02    +0.078 A  
DOCKED: ATOM      4  C   UNL     1     142.130  72.954 221.223 -0.21 -0.00    +0.029 A  
DOCKED: ATOM      5  C   UNL     1     143.333  72.375 220.813 -0.30 -0.00    +0.002 A  
DOCKED: ATOM      6  C   UNL     1     144.279  73.137 220.122 -0.39 -0.00    +0.001 A  
DOCKED: ATOM      7  C   UNL     1     144.023  74.482 219.834 -0.40 -0.01    +0.016 A  
DOCKED: ATOM      8  C   UNL     1     142.811  75.072 220.240 -0.29 -0.03    +0.066 A  
DOCKED: ATOM      9  C   UNL     1     142.503  76.417 219.972 -0.20 -0.16    +0.261 A  
DOCKED: ATOM     10  O   UNL     1     143.342  77.133 219.358 -0.28 +0.22    -0.269 OA 
DOCKED: ATOM     11  N   UNL     1     141.300  76.949 220.379 -0.12 +0.13    -0.288 N  
DOCKED: ENDROOT
DOCKED: BRANCH   1  12
DOCKED: ATOM     12  C   UNL     1     139.125  76.684 221.559 -0.24 -0.01    +0.048 C  
DOCKED: BRANCH  12  13
DOCKED: ATOM     13  C   UNL     1     139.055  77.336 222.723 -0.26 -0.00    +0.013 C  
DOCKED: BRANCH  13  14
DOCKED: ATOM     14  C   UNL     1     138.710  78.764 222.828 -0.29 +0.00    -0.007 A  
DOCKED: ATOM     15  C   UNL     1     137.868  79.396 221.895 -0.12 -0.02    +0.119 A  
DOCKED: ATOM     16  C   UNL     1     139.182  79.510 223.918 -0.38 -0.00    +0.011 A  
DOCKED: ATOM     17  N   UNL     1     137.520  80.698 222.060 -0.05 +0.04    -0.264 NA 
DOCKED: ATOM     18  C   UNL     1     138.819  80.850 224.057 -0.37 -0.00    +0.021 A  
DOCKED: ATOM     19  C   UNL     1     137.971  81.430 223.112 -0.21 -0.01    +0.111 A  
DOCKED: ENDBRANCH  13  14
DOCKED: ENDBRANCH  12  13
DOCKED: ENDBRANCH   1  12
DOCKED: BRANCH  11  20
DOCKED: ATOM     20  C   UNL     1     140.981  78.368 220.105 -0.17 -0.07    +0.163 C  
DOCKED: BRANCH  20  21
DOCKED: ATOM     21  C   UNL     1     141.496  79.268 221.203 -0.34 +0.01    -0.028 A  
DOCKED: ATOM     22  C   UNL     1     141.357  80.659 221.106 -0.35 -0.00    +0.005 A  
DOCKED: ATOM     23  C   UNL     1     142.080  78.717 222.358 -0.39 -0.00    +0.005 A  
DOCKED: ATOM     24  C   UNL     1     141.831  81.487 222.127 -0.46 -0.00    +0.000 A  
DOCKED: ATOM     25  C   UNL     1     142.550  79.550 223.378 -0.61 -0.00    +0.000 A  
DOCKED: ATOM     26  C   UNL     1     142.423  80.934 223.264 -0.62 -0.00    +0.000 A  
DOCKED: ENDBRANCH  20  21
DOCKED: ENDBRANCH  11  20
DOCKED: TORSDOF 5
DOCKED: TER
DOCKED: ENDMDL
________________________________________________________________________________


    FINAL DOCKED STATE:
    ________________________


Run:   13 / 20
Time taken for this run:   0.039s

DOCKED: MODEL        13
DOCKED: USER    Run = 13
DOCKED: USER
DOCKED: USER    Estimated Free Energy of Binding    =  -7.12 kcal/mol  [=(1)+(2)+(3)-(4)]
DOCKED: USER
DOCKED: USER    (1) Final Intermolecular Energy     =  -8.61 kcal/mol
DOCKED: USER        vdW + Hbond + desolv Energy     =  -8.55 kcal/mol
DOCKED: USER        Electrostatic Energy            =  -0.06 kcal/mol
DOCKED: USER        Moving Ligand-Fixed Receptor    =  -8.61 kcal/mol
DOCKED: USER        Moving Ligand-Moving Receptor   =  +0.00 kcal/mol
DOCKED: USER    (2) Final Total Internal Energy     =  -1.37 kcal/mol
DOCKED: USER    (3) Torsional Free Energy           =  +1.49 kcal/mol
DOCKED: USER    (4) Unbound System's Energy         =  -1.37 kcal/mol
DOCKED: USER
DOCKED: USER
DOCKED: REMARK SMILES O=c1c2ccccc2nc(/C=C/c2cccnc2)n1Cc1ccccc1
DOCKED: REMARK SMILES IDX 10 1 9 2 8 3 7 4 6 5 5 6 4 7 3 8 2 9 1 10 19 11 11 12 12 13
DOCKED: REMARK SMILES IDX 13 14 18 15 14 16 17 17 15 18 16 19 20 20 21 21 22 22 26 23
DOCKED: REMARK SMILES IDX 23 24 25 25 24 26
DOCKED: REMARK H PARENT
DOCKED: USER                              x       y       z     vdW  Elec       q    Type
DOCKED: USER                           _______ _______ _______ _____ _____    ______ ____
DOCKED: ROOT
DOCKED: ATOM      1  C   UNL     1     139.592  70.180 223.492 -0.22 -0.02    +0.136 A  
DOCKED: ATOM      2  N   UNL     1     140.132  71.104 224.329 -0.28 +0.04    -0.230 NA 
DOCKED: ATOM      3  C   UNL     1     140.358  70.836 225.636 -0.50 -0.01    +0.078 A  
DOCKED: ATOM      4  C   UNL     1     140.903  71.820 226.469 -0.67 -0.00    +0.029 A  
DOCKED: ATOM      5  C   UNL     1     141.139  71.540 227.817 -0.79 -0.00    +0.002 A  
DOCKED: ATOM      6  C   UNL     1     140.835  70.279 228.337 -0.57 -0.00    +0.001 A  
DOCKED: ATOM      7  C   UNL     1     140.289  69.293 227.509 -0.60 -0.00    +0.016 A  
DOCKED: ATOM      8  C   UNL     1     140.043  69.567 226.151 -0.45 -0.01    +0.066 A  
DOCKED: ATOM      9  C   UNL     1     139.492  68.612 225.278 -0.27 -0.04    +0.261 A  
DOCKED: ATOM     10  O   UNL     1     139.216  67.461 225.717 -0.92 -0.00    -0.269 OA 
DOCKED: ATOM     11  N   UNL     1     139.259  68.928 223.959 -0.13 +0.05    -0.288 N  
DOCKED: ENDROOT
DOCKED: BRANCH   1  12
DOCKED: ATOM     12  C   UNL     1     139.397  70.562 222.087 -0.18 -0.01    +0.048 C  
DOCKED: BRANCH  12  13
DOCKED: ATOM     13  C   UNL     1     138.588  71.576 221.765 -0.15 -0.00    +0.013 C  
DOCKED: BRANCH  13  14
DOCKED: ATOM     14  C   UNL     1     138.981  72.991 221.888 -0.22 +0.00    -0.007 A  
DOCKED: ATOM     15  C   UNL     1     140.331  73.386 221.923 -0.26 -0.01    +0.119 A  
DOCKED: ATOM     16  C   UNL     1     137.991  73.983 221.914 -0.17 -0.00    +0.011 A  
DOCKED: ATOM     17  N   UNL     1     140.655  74.705 221.972 -0.66 +0.02    -0.264 NA 
DOCKED: ATOM     18  C   UNL     1     138.351  75.329 221.976 -0.25 -0.01    +0.021 A  
DOCKED: ATOM     19  C   UNL     1     139.704  75.674 221.996 -0.29 -0.02    +0.111 A  
DOCKED: ENDBRANCH  13  14
DOCKED: ENDBRANCH  12  13
DOCKED: ENDBRANCH   1  12
DOCKED: BRANCH  11  20
DOCKED: ATOM     20  C   UNL     1     138.688  67.918 223.040 -0.19 -0.02    +0.163 C  
DOCKED: BRANCH  20  21
DOCKED: ATOM     21  C   UNL     1     137.210  68.143 222.828 -0.13 +0.00    -0.028 A  
DOCKED: ATOM     22  C   UNL     1     136.509  67.404 221.865 -0.14 -0.00    +0.005 A  
DOCKED: ATOM     23  C   UNL     1     136.509  69.065 223.627 -0.19 -0.00    +0.005 A  
DOCKED: ATOM     24  C   UNL     1     135.141  67.612 221.676 -0.10 -0.00    +0.000 A  
DOCKED: ATOM     25  C   UNL     1     135.139  69.268 223.436 -0.14 -0.00    +0.000 A  
DOCKED: ATOM     26  C   UNL     1     134.455  68.541 222.463 -0.09 -0.00    +0.000 A  
DOCKED: ENDBRANCH  20  21
DOCKED: ENDBRANCH  11  20
DOCKED: TORSDOF 5
DOCKED: TER
DOCKED: ENDMDL
________________________________________________________________________________


    FINAL DOCKED STATE:
    ________________________


Run:   14 / 20
Time taken for this run:   0.039s

DOCKED: MODEL        14
DOCKED: USER    Run = 14
DOCKED: USER
DOCKED: USER    Estimated Free Energy of Binding    =  -6.91 kcal/mol  [=(1)+(2)+(3)-(4)]
DOCKED: USER
DOCKED: USER    (1) Final Intermolecular Energy     =  -8.40 kcal/mol
DOCKED: USER        vdW + Hbond + desolv Energy     =  -8.39 kcal/mol
DOCKED: USER        Electrostatic Energy            =  -0.01 kcal/mol
DOCKED: USER        Moving Ligand-Fixed Receptor    =  -8.40 kcal/mol
DOCKED: USER        Moving Ligand-Moving Receptor   =  +0.00 kcal/mol
DOCKED: USER    (2) Final Total Internal Energy     =  -1.39 kcal/mol
DOCKED: USER    (3) Torsional Free Energy           =  +1.49 kcal/mol
DOCKED: USER    (4) Unbound System's Energy         =  -1.39 kcal/mol
DOCKED: USER
DOCKED: USER
DOCKED: REMARK SMILES O=c1c2ccccc2nc(/C=C/c2cccnc2)n1Cc1ccccc1
DOCKED: REMARK SMILES IDX 10 1 9 2 8 3 7 4 6 5 5 6 4 7 3 8 2 9 1 10 19 11 11 12 12 13
DOCKED: REMARK SMILES IDX 13 14 18 15 14 16 17 17 15 18 16 19 20 20 21 21 22 22 26 23
DOCKED: REMARK SMILES IDX 23 24 25 25 24 26
DOCKED: REMARK H PARENT
DOCKED: USER                              x       y       z     vdW  Elec       q    Type
DOCKED: USER                           _______ _______ _______ _____ _____    ______ ____
DOCKED: ROOT
DOCKED: ATOM      1  C   UNL     1     139.307  71.073 223.734 -0.29 -0.03    +0.136 A  
DOCKED: ATOM      2  N   UNL     1     140.064  71.687 224.681 -0.25 +0.05    -0.230 NA 
DOCKED: ATOM      3  C   UNL     1     140.332  71.098 225.870 -0.52 -0.01    +0.078 A  
DOCKED: ATOM      4  C   UNL     1     141.104  71.768 226.825 -0.74 -0.00    +0.029 A  
DOCKED: ATOM      5  C   UNL     1     141.383  71.158 228.050 -0.58 -0.00    +0.002 A  
DOCKED: ATOM      6  C   UNL     1     140.896  69.877 228.324 -0.58 -0.00    +0.001 A  
DOCKED: ATOM      7  C   UNL     1     140.122  69.203 227.373 -0.60 -0.00    +0.016 A  
DOCKED: ATOM      8  C   UNL     1     139.832  69.812 226.138 -0.44 -0.01    +0.066 A  
DOCKED: ATOM      9  C   UNL     1     139.056  69.179 225.151 -0.25 -0.03    +0.261 A  
DOCKED: ATOM     10  O   UNL     1     138.610  68.018 225.366 -0.64 -0.02    -0.269 OA 
DOCKED: ATOM     11  N   UNL     1     138.789  69.818 223.961 -0.14 +0.05    -0.288 N  
DOCKED: ENDROOT
DOCKED: BRANCH   1  12
DOCKED: ATOM     12  C   UNL     1     139.081  71.789 222.470 -0.23 -0.01    +0.048 C  
DOCKED: BRANCH  12  13
DOCKED: ATOM     13  C   UNL     1     139.692  72.953 222.231 -0.26 -0.00    +0.013 C  
DOCKED: BRANCH  13  14
DOCKED: ATOM     14  C   UNL     1     141.006  73.054 221.573 -0.29 +0.00    -0.007 A  
DOCKED: ATOM     15  C   UNL     1     141.516  74.283 221.116 -0.24 -0.02    +0.119 A  
DOCKED: ATOM     16  C   UNL     1     141.805  71.908 221.445 -0.21 -0.00    +0.011 A  
DOCKED: ATOM     17  N   UNL     1     142.759  74.348 220.572 -0.17 +0.08    -0.264 NA 
DOCKED: ATOM     18  C   UNL     1     143.073  72.000 220.872 -0.27 -0.00    +0.021 A  
DOCKED: ATOM     19  C   UNL     1     143.541  73.244 220.444 -0.29 -0.02    +0.111 A  
DOCKED: ENDBRANCH  13  14
DOCKED: ENDBRANCH  12  13
DOCKED: ENDBRANCH   1  12
DOCKED: BRANCH  11  20
DOCKED: ATOM     20  C   UNL     1     137.980  69.146 222.920 -0.16 -0.02    +0.163 C  
DOCKED: BRANCH  20  21
DOCKED: ATOM     21  C   UNL     1     138.815  68.179 222.116 -0.20 +0.01    -0.028 A  
DOCKED: ATOM     22  C   UNL     1     138.787  66.807 222.403 -0.30 -0.00    +0.005 A  
DOCKED: ATOM     23  C   UNL     1     139.597  68.637 221.041 -0.14 -0.00    +0.005 A  
DOCKED: ATOM     24  C   UNL     1     139.558  65.915 221.654 -0.29 -0.00    +0.000 A  
DOCKED: ATOM     25  C   UNL     1     140.365  67.740 220.292 -0.14 -0.00    +0.000 A  
DOCKED: ATOM     26  C   UNL     1     140.344  66.379 220.597 -0.15 -0.00    +0.000 A  
DOCKED: ENDBRANCH  20  21
DOCKED: ENDBRANCH  11  20
DOCKED: TORSDOF 5
DOCKED: TER
DOCKED: ENDMDL
________________________________________________________________________________


    FINAL DOCKED STATE:
    ________________________


Run:   15 / 20
Time taken for this run:   0.039s

DOCKED: MODEL        15
DOCKED: USER    Run = 15
DOCKED: USER
DOCKED: USER    Estimated Free Energy of Binding    =  -7.11 kcal/mol  [=(1)+(2)+(3)-(4)]
DOCKED: USER
DOCKED: USER    (1) Final Intermolecular Energy     =  -8.60 kcal/mol
DOCKED: USER        vdW + Hbond + desolv Energy     =  -8.54 kcal/mol
DOCKED: USER        Electrostatic Energy            =  -0.06 kcal/mol
DOCKED: USER        Moving Ligand-Fixed Receptor    =  -8.60 kcal/mol
DOCKED: USER        Moving Ligand-Moving Receptor   =  +0.00 kcal/mol
DOCKED: USER    (2) Final Total Internal Energy     =  -1.38 kcal/mol
DOCKED: USER    (3) Torsional Free Energy           =  +1.49 kcal/mol
DOCKED: USER    (4) Unbound System's Energy         =  -1.38 kcal/mol
DOCKED: USER
DOCKED: USER
DOCKED: REMARK SMILES O=c1c2ccccc2nc(/C=C/c2cccnc2)n1Cc1ccccc1
DOCKED: REMARK SMILES IDX 10 1 9 2 8 3 7 4 6 5 5 6 4 7 3 8 2 9 1 10 19 11 11 12 12 13
DOCKED: REMARK SMILES IDX 13 14 18 15 14 16 17 17 15 18 16 19 20 20 21 21 22 22 26 23
DOCKED: REMARK SMILES IDX 23 24 25 25 24 26
DOCKED: REMARK H PARENT
DOCKED: USER                              x       y       z     vdW  Elec       q    Type
DOCKED: USER                           _______ _______ _______ _____ _____    ______ ____
DOCKED: ROOT
DOCKED: ATOM      1  C   UNL     1     139.594  70.181 223.493 -0.22 -0.02    +0.136 A  
DOCKED: ATOM      2  N   UNL     1     140.138  71.105 224.327 -0.28 +0.04    -0.230 NA 
DOCKED: ATOM      3  C   UNL     1     140.360  70.841 225.636 -0.50 -0.01    +0.078 A  
DOCKED: ATOM      4  C   UNL     1     140.910  71.824 226.466 -0.67 -0.00    +0.029 A  
DOCKED: ATOM      5  C   UNL     1     141.142  71.549 227.816 -0.79 -0.00    +0.002 A  
DOCKED: ATOM      6  C   UNL     1     140.828  70.291 228.340 -0.57 -0.00    +0.001 A  
DOCKED: ATOM      7  C   UNL     1     140.277  69.305 227.516 -0.60 -0.00    +0.016 A  
DOCKED: ATOM      8  C   UNL     1     140.036  69.575 226.155 -0.45 -0.01    +0.066 A  
DOCKED: ATOM      9  C   UNL     1     139.480  68.621 225.286 -0.28 -0.03    +0.261 A  
DOCKED: ATOM     10  O   UNL     1     139.196  67.473 225.729 -0.92 -0.01    -0.269 OA 
DOCKED: ATOM     11  N   UNL     1     139.252  68.933 223.965 -0.13 +0.05    -0.288 N  
DOCKED: ENDROOT
DOCKED: BRANCH   1  12
DOCKED: ATOM     12  C   UNL     1     139.403  70.558 222.086 -0.18 -0.01    +0.048 C  
DOCKED: BRANCH  12  13
DOCKED: ATOM     13  C   UNL     1     138.606  71.580 221.759 -0.15 -0.00    +0.013 C  
DOCKED: BRANCH  13  14
DOCKED: ATOM     14  C   UNL     1     139.012  72.991 221.883 -0.22 +0.00    -0.007 A  
DOCKED: ATOM     15  C   UNL     1     140.365  73.374 221.924 -0.26 -0.01    +0.119 A  
DOCKED: ATOM     16  C   UNL     1     138.031  73.992 221.904 -0.17 -0.00    +0.011 A  
DOCKED: ATOM     17  N   UNL     1     140.701  74.689 221.973 -0.65 +0.02    -0.264 NA 
DOCKED: ATOM     18  C   UNL     1     138.403  75.335 221.968 -0.26 -0.01    +0.021 A  
DOCKED: ATOM     19  C   UNL     1     139.759  75.668 221.993 -0.29 -0.02    +0.111 A  
DOCKED: ENDBRANCH  13  14
DOCKED: ENDBRANCH  12  13
DOCKED: ENDBRANCH   1  12
DOCKED: BRANCH  11  20
DOCKED: ATOM     20  C   UNL     1     138.676  67.923 223.049 -0.19 -0.02    +0.163 C  
DOCKED: BRANCH  20  21
DOCKED: ATOM     21  C   UNL     1     137.196  68.146 222.847 -0.12 +0.00    -0.028 A  
DOCKED: ATOM     22  C   UNL     1     136.511  69.103 223.609 -0.19 -0.00    +0.005 A  
DOCKED: ATOM     23  C   UNL     1     136.497  67.429 221.860 -0.14 -0.00    +0.005 A  
DOCKED: ATOM     24  C   UNL     1     135.143  69.309 223.416 -0.14 -0.00    +0.000 A  
DOCKED: ATOM     25  C   UNL     1     135.128  67.641 221.669 -0.10 -0.00    +0.000 A  
DOCKED: ATOM     26  C   UNL     1     134.452  68.581 222.445 -0.09 -0.00    +0.000 A  
DOCKED: ENDBRANCH  20  21
DOCKED: ENDBRANCH  11  20
DOCKED: TORSDOF 5
DOCKED: TER
DOCKED: ENDMDL
________________________________________________________________________________


    FINAL DOCKED STATE:
    ________________________


Run:   16 / 20
Time taken for this run:   0.039s

DOCKED: MODEL        16
DOCKED: USER    Run = 16
DOCKED: USER
DOCKED: USER    Estimated Free Energy of Binding    =  -6.91 kcal/mol  [=(1)+(2)+(3)-(4)]
DOCKED: USER
DOCKED: USER    (1) Final Intermolecular Energy     =  -8.41 kcal/mol
DOCKED: USER        vdW + Hbond + desolv Energy     =  -8.39 kcal/mol
DOCKED: USER        Electrostatic Energy            =  -0.02 kcal/mol
DOCKED: USER        Moving Ligand-Fixed Receptor    =  -8.41 kcal/mol
DOCKED: USER        Moving Ligand-Moving Receptor   =  +0.00 kcal/mol
DOCKED: USER    (2) Final Total Internal Energy     =  -1.42 kcal/mol
DOCKED: USER    (3) Torsional Free Energy           =  +1.49 kcal/mol
DOCKED: USER    (4) Unbound System's Energy         =  -1.42 kcal/mol
DOCKED: USER
DOCKED: USER
DOCKED: REMARK SMILES O=c1c2ccccc2nc(/C=C/c2cccnc2)n1Cc1ccccc1
DOCKED: REMARK SMILES IDX 10 1 9 2 8 3 7 4 6 5 5 6 4 7 3 8 2 9 1 10 19 11 11 12 12 13
DOCKED: REMARK SMILES IDX 13 14 18 15 14 16 17 17 15 18 16 19 20 20 21 21 22 22 26 23
DOCKED: REMARK SMILES IDX 23 24 25 25 24 26
DOCKED: REMARK H PARENT
DOCKED: USER                              x       y       z     vdW  Elec       q    Type
DOCKED: USER                           _______ _______ _______ _____ _____    ______ ____
DOCKED: ROOT
DOCKED: ATOM      1  C   UNL     1     139.179  70.827 223.810 -0.27 -0.03    +0.136 A  
DOCKED: ATOM      2  N   UNL     1     139.914  71.508 224.727 -0.29 +0.05    -0.230 NA 
DOCKED: ATOM      3  C   UNL     1     140.280  70.949 225.904 -0.51 -0.01    +0.078 A  
DOCKED: ATOM      4  C   UNL     1     141.024  71.689 226.829 -0.73 -0.00    +0.029 A  
DOCKED: ATOM      5  C   UNL     1     141.405  71.109 228.043 -0.56 -0.00    +0.002 A  
DOCKED: ATOM      6  C   UNL     1     141.046  69.790 228.334 -0.57 -0.00    +0.001 A  
DOCKED: ATOM      7  C   UNL     1     140.300  69.047 227.413 -0.61 -0.00    +0.016 A  
DOCKED: ATOM      8  C   UNL     1     139.909  69.624 226.191 -0.45 -0.01    +0.066 A  
DOCKED: ATOM      9  C   UNL     1     139.155  68.921 225.234 -0.26 -0.03    +0.261 A  
DOCKED: ATOM     10  O   UNL     1     138.825  67.725 225.466 -0.78 -0.02    -0.269 OA 
DOCKED: ATOM     11  N   UNL     1     138.786  69.531 224.056 -0.15 +0.04    -0.288 N  
DOCKED: ENDROOT
DOCKED: BRANCH   1  12
DOCKED: ATOM     12  C   UNL     1     138.841  71.515 222.557 -0.22 -0.01    +0.048 C  
DOCKED: BRANCH  12  13
DOCKED: ATOM     13  C   UNL     1     139.322  72.736 222.302 -0.23 -0.00    +0.013 C  
DOCKED: BRANCH  13  14
DOCKED: ATOM     14  C   UNL     1     140.625  72.971 221.657 -0.29 +0.00    -0.007 A  
DOCKED: ATOM     15  C   UNL     1     141.065  74.264 221.320 -0.26 -0.02    +0.119 A  
DOCKED: ATOM     16  C   UNL     1     141.485  71.888 221.422 -0.23 -0.00    +0.011 A  
DOCKED: ATOM     17  N   UNL     1     142.300  74.449 220.785 -0.17 +0.08    -0.264 NA 
DOCKED: ATOM     18  C   UNL     1     142.744  72.104 220.860 -0.26 -0.00    +0.021 A  
DOCKED: ATOM     19  C   UNL     1     143.141  73.407 220.553 -0.26 -0.02    +0.111 A  
DOCKED: ENDBRANCH  13  14
DOCKED: ENDBRANCH  12  13
DOCKED: ENDBRANCH   1  12
DOCKED: BRANCH  11  20
DOCKED: ATOM     20  C   UNL     1     138.001  68.785 223.046 -0.18 -0.02    +0.163 C  
DOCKED: BRANCH  20  21
DOCKED: ATOM     21  C   UNL     1     138.902  68.039 222.092 -0.20 +0.01    -0.028 A  
DOCKED: ATOM     22  C   UNL     1     139.646  68.733 221.127 -0.14 -0.00    +0.005 A  
DOCKED: ATOM     23  C   UNL     1     139.042  66.643 222.190 -0.28 -0.00    +0.005 A  
DOCKED: ATOM     24  C   UNL     1     140.482  68.039 220.249 -0.14 -0.00    +0.000 A  
DOCKED: ATOM     25  C   UNL     1     139.883  65.953 221.312 -0.23 -0.00    +0.000 A  
DOCKED: ATOM     26  C   UNL     1     140.604  66.650 220.343 -0.12 -0.00    +0.000 A  
DOCKED: ENDBRANCH  20  21
DOCKED: ENDBRANCH  11  20
DOCKED: TORSDOF 5
DOCKED: TER
DOCKED: ENDMDL
________________________________________________________________________________


    FINAL DOCKED STATE:
    ________________________


Run:   17 / 20
Time taken for this run:   0.039s

DOCKED: MODEL        17
DOCKED: USER    Run = 17
DOCKED: USER
DOCKED: USER    Estimated Free Energy of Binding    =  -7.20 kcal/mol  [=(1)+(2)+(3)-(4)]
DOCKED: USER
DOCKED: USER    (1) Final Intermolecular Energy     =  -8.69 kcal/mol
DOCKED: USER        vdW + Hbond + desolv Energy     =  -8.52 kcal/mol
DOCKED: USER        Electrostatic Energy            =  -0.17 kcal/mol
DOCKED: USER        Moving Ligand-Fixed Receptor    =  -8.69 kcal/mol
DOCKED: USER        Moving Ligand-Moving Receptor   =  +0.00 kcal/mol
DOCKED: USER    (2) Final Total Internal Energy     =  -1.34 kcal/mol
DOCKED: USER    (3) Torsional Free Energy           =  +1.49 kcal/mol
DOCKED: USER    (4) Unbound System's Energy         =  -1.34 kcal/mol
DOCKED: USER
DOCKED: USER
DOCKED: REMARK SMILES O=c1c2ccccc2nc(/C=C/c2cccnc2)n1Cc1ccccc1
DOCKED: REMARK SMILES IDX 10 1 9 2 8 3 7 4 6 5 5 6 4 7 3 8 2 9 1 10 19 11 11 12 12 13
DOCKED: REMARK SMILES IDX 13 14 18 15 14 16 17 17 15 18 16 19 20 20 21 21 22 22 26 23
DOCKED: REMARK SMILES IDX 23 24 25 25 24 26
DOCKED: REMARK H PARENT
DOCKED: USER                              x       y       z     vdW  Elec       q    Type
DOCKED: USER                           _______ _______ _______ _____ _____    ______ ____
DOCKED: ROOT
DOCKED: ATOM      1  C   UNL     1     141.648  75.347 220.693 -0.24 -0.05    +0.136 A  
DOCKED: ATOM      2  N   UNL     1     141.814  74.019 220.929 -0.19 +0.05    -0.230 NA 
DOCKED: ATOM      3  C   UNL     1     140.829  73.263 221.470 -0.26 -0.01    +0.078 A  
DOCKED: ATOM      4  C   UNL     1     141.044  71.902 221.710 -0.25 -0.00    +0.029 A  
DOCKED: ATOM      5  C   UNL     1     140.025  71.122 222.264 -0.24 -0.00    +0.002 A  
DOCKED: ATOM      6  C   UNL     1     138.791  71.698 222.577 -0.23 -0.00    +0.001 A  
DOCKED: ATOM      7  C   UNL     1     138.571  73.059 222.339 -0.08 -0.01    +0.016 A  
DOCKED: ATOM      8  C   UNL     1     139.593  73.853 221.786 -0.25 -0.01    +0.066 A  
DOCKED: ATOM      9  C   UNL     1     139.425  75.226 221.532 -0.19 -0.05    +0.261 A  
DOCKED: ATOM     10  O   UNL     1     138.318  75.771 221.795 -0.16 +0.06    -0.269 OA 
DOCKED: ATOM     11  N   UNL     1     140.457  75.965 220.999 -0.13 +0.08    -0.288 N  
DOCKED: ENDROOT
DOCKED: BRANCH   1  12
DOCKED: ATOM     12  C   UNL     1     142.771  76.080 220.093 -0.25 -0.03    +0.048 C  
DOCKED: BRANCH  12  13
DOCKED: ATOM     13  C   UNL     1     143.571  75.486 219.202 -0.33 -0.01    +0.013 C  
DOCKED: BRANCH  13  14
DOCKED: ATOM     14  C   UNL     1     144.445  74.347 219.535 -0.32 +0.00    -0.007 A  
DOCKED: ATOM     15  C   UNL     1     144.809  73.385 218.576 -0.20 -0.00    +0.119 A  
DOCKED: ATOM     16  C   UNL     1     144.980  74.243 220.827 -0.49 -0.00    +0.011 A  
DOCKED: ATOM     17  N   UNL     1     145.669  72.385 218.904 -0.66 -0.18    -0.264 NA 
DOCKED: ATOM     18  C   UNL     1     145.851  73.199 221.141 -0.67 -0.00    +0.021 A  
DOCKED: ATOM     19  C   UNL     1     146.194  72.275 220.152 -0.27 +0.05    +0.111 A  
DOCKED: ENDBRANCH  13  14
DOCKED: ENDBRANCH  12  13
DOCKED: ENDBRANCH   1  12
DOCKED: BRANCH  11  20
DOCKED: ATOM     20  C   UNL     1     140.274  77.408 220.724 -0.15 -0.05    +0.163 C  
DOCKED: BRANCH  20  21
DOCKED: ATOM     21  C   UNL     1     141.040  78.256 221.710 -0.35 +0.01    -0.028 A  
DOCKED: ATOM     22  C   UNL     1     141.081  77.906 223.067 -0.47 -0.00    +0.005 A  
DOCKED: ATOM     23  C   UNL     1     141.760  79.382 221.272 -0.38 -0.00    +0.005 A  
DOCKED: ATOM     24  C   UNL     1     141.795  78.692 223.976 -0.59 -0.00    +0.000 A  
DOCKED: ATOM     25  C   UNL     1     142.475  80.163 222.185 -0.54 -0.00    +0.000 A  
DOCKED: ATOM     26  C   UNL     1     142.495  79.817 223.535 -0.64 -0.00    +0.000 A  
DOCKED: ENDBRANCH  20  21
DOCKED: ENDBRANCH  11  20
DOCKED: TORSDOF 5
DOCKED: TER
DOCKED: ENDMDL
________________________________________________________________________________


    FINAL DOCKED STATE:
    ________________________


Run:   18 / 20
Time taken for this run:   0.039s

DOCKED: MODEL        18
DOCKED: USER    Run = 18
DOCKED: USER
DOCKED: USER    Estimated Free Energy of Binding    =  -6.63 kcal/mol  [=(1)+(2)+(3)-(4)]
DOCKED: USER
DOCKED: USER    (1) Final Intermolecular Energy     =  -8.12 kcal/mol
DOCKED: USER        vdW + Hbond + desolv Energy     =  -8.08 kcal/mol
DOCKED: USER        Electrostatic Energy            =  -0.04 kcal/mol
DOCKED: USER        Moving Ligand-Fixed Receptor    =  -8.12 kcal/mol
DOCKED: USER        Moving Ligand-Moving Receptor   =  +0.00 kcal/mol
DOCKED: USER    (2) Final Total Internal Energy     =  -1.68 kcal/mol
DOCKED: USER    (3) Torsional Free Energy           =  +1.49 kcal/mol
DOCKED: USER    (4) Unbound System's Energy         =  -1.68 kcal/mol
DOCKED: USER
DOCKED: USER
DOCKED: REMARK SMILES O=c1c2ccccc2nc(/C=C/c2cccnc2)n1Cc1ccccc1
DOCKED: REMARK SMILES IDX 10 1 9 2 8 3 7 4 6 5 5 6 4 7 3 8 2 9 1 10 19 11 11 12 12 13
DOCKED: REMARK SMILES IDX 13 14 18 15 14 16 17 17 15 18 16 19 20 20 21 21 22 22 26 23
DOCKED: REMARK SMILES IDX 23 24 25 25 24 26
DOCKED: REMARK H PARENT
DOCKED: USER                              x       y       z     vdW  Elec       q    Type
DOCKED: USER                           _______ _______ _______ _____ _____    ______ ____
DOCKED: ROOT
DOCKED: ATOM      1  C   UNL     1     138.154  69.541 224.104 -0.24 -0.02    +0.136 A  
DOCKED: ATOM      2  N   UNL     1     138.353  69.087 225.369 -0.25 +0.02    -0.230 NA 
DOCKED: ATOM      3  C   UNL     1     139.252  69.665 226.200 -0.39 -0.01    +0.078 A  
DOCKED: ATOM      4  C   UNL     1     139.438  69.159 227.491 -0.51 -0.00    +0.029 A  
DOCKED: ATOM      5  C   UNL     1     140.363  69.760 228.350 -0.59 -0.00    +0.002 A  
DOCKED: ATOM      6  C   UNL     1     141.102  70.867 227.923 -0.68 -0.00    +0.001 A  
DOCKED: ATOM      7  C   UNL     1     140.920  71.376 226.632 -0.69 -0.00    +0.016 A  
DOCKED: ATOM      8  C   UNL     1     139.994  70.774 225.760 -0.48 -0.01    +0.066 A  
DOCKED: ATOM      9  C   UNL     1     139.778  71.244 224.452 -0.28 -0.05    +0.261 A  
DOCKED: ATOM     10  O   UNL     1     140.423  72.248 224.042 -0.31 +0.04    -0.269 OA 
DOCKED: ATOM     11  N   UNL     1     138.868  70.617 223.630 -0.15 +0.06    -0.288 N  
DOCKED: ENDROOT
DOCKED: BRANCH   1  12
DOCKED: ATOM     12  C   UNL     1     137.148  68.854 223.283 -0.18 -0.00    +0.048 C  
DOCKED: BRANCH  12  13
DOCKED: ATOM     13  C   UNL     1     135.885  69.291 223.249 -0.15 -0.00    +0.013 C  
DOCKED: BRANCH  13  14
DOCKED: ATOM     14  C   UNL     1     135.131  69.672 224.456 -0.20 +0.00    -0.007 A  
DOCKED: ATOM     15  C   UNL     1     134.589  68.711 225.328 -0.22 -0.00    +0.119 A  
DOCKED: ATOM     16  C   UNL     1     134.995  71.029 224.785 -0.19 -0.00    +0.011 A  
DOCKED: ATOM     17  N   UNL     1     133.956  69.099 226.465 -0.71 -0.01    -0.264 NA 
DOCKED: ATOM     18  C   UNL     1     134.329  71.401 225.953 -0.27 -0.00    +0.021 A  
DOCKED: ATOM     19  C   UNL     1     133.818  70.411 226.794 -0.31 -0.00    +0.111 A  
DOCKED: ENDBRANCH  13  14
DOCKED: ENDBRANCH  12  13
DOCKED: ENDBRANCH   1  12
DOCKED: BRANCH  11  20
DOCKED: ATOM     20  C   UNL     1     138.635  71.120 222.257 -0.14 -0.03    +0.163 C  
DOCKED: BRANCH  20  21
DOCKED: ATOM     21  C   UNL     1     138.061  72.516 222.275 -0.15 +0.01    -0.028 A  
DOCKED: ATOM     22  C   UNL     1     136.740  72.737 222.690 -0.15 -0.00    +0.005 A  
DOCKED: ATOM     23  C   UNL     1     138.859  73.618 221.918 -0.21 -0.00    +0.005 A  
DOCKED: ATOM     24  C   UNL     1     136.215  74.031 222.708 -0.17 -0.00    +0.000 A  
DOCKED: ATOM     25  C   UNL     1     138.330  74.912 221.941 -0.24 -0.00    +0.000 A  
DOCKED: ATOM     26  C   UNL     1     137.009  75.119 222.338 -0.21 -0.00    +0.000 A  
DOCKED: ENDBRANCH  20  21
DOCKED: ENDBRANCH  11  20
DOCKED: TORSDOF 5
DOCKED: TER
DOCKED: ENDMDL
________________________________________________________________________________


    FINAL DOCKED STATE:
    ________________________


Run:   19 / 20
Time taken for this run:   0.039s

DOCKED: MODEL        19
DOCKED: USER    Run = 19
DOCKED: USER
DOCKED: USER    Estimated Free Energy of Binding    =  -6.31 kcal/mol  [=(1)+(2)+(3)-(4)]
DOCKED: USER
DOCKED: USER    (1) Final Intermolecular Energy     =  -7.80 kcal/mol
DOCKED: USER        vdW + Hbond + desolv Energy     =  -7.87 kcal/mol
DOCKED: USER        Electrostatic Energy            =  +0.07 kcal/mol
DOCKED: USER        Moving Ligand-Fixed Receptor    =  -7.80 kcal/mol
DOCKED: USER        Moving Ligand-Moving Receptor   =  +0.00 kcal/mol
DOCKED: USER    (2) Final Total Internal Energy     =  -1.88 kcal/mol
DOCKED: USER    (3) Torsional Free Energy           =  +1.49 kcal/mol
DOCKED: USER    (4) Unbound System's Energy         =  -1.88 kcal/mol
DOCKED: USER
DOCKED: USER
DOCKED: REMARK SMILES O=c1c2ccccc2nc(/C=C/c2cccnc2)n1Cc1ccccc1
DOCKED: REMARK SMILES IDX 10 1 9 2 8 3 7 4 6 5 5 6 4 7 3 8 2 9 1 10 19 11 11 12 12 13
DOCKED: REMARK SMILES IDX 13 14 18 15 14 16 17 17 15 18 16 19 20 20 21 21 22 22 26 23
DOCKED: REMARK SMILES IDX 23 24 25 25 24 26
DOCKED: REMARK H PARENT
DOCKED: USER                              x       y       z     vdW  Elec       q    Type
DOCKED: USER                           _______ _______ _______ _____ _____    ______ ____
DOCKED: ROOT
DOCKED: ATOM      1  C   UNL     1     140.397  76.078 221.074 -0.22 -0.04    +0.136 A  
DOCKED: ATOM      2  N   UNL     1     140.712  74.783 221.336 -0.34 +0.04    -0.230 NA 
DOCKED: ATOM      3  C   UNL     1     141.890  74.243 220.945 -0.24 -0.02    +0.078 A  
DOCKED: ATOM      4  C   UNL     1     142.171  72.901 221.222 -0.21 -0.00    +0.029 A  
DOCKED: ATOM      5  C   UNL     1     143.389  72.345 220.821 -0.30 -0.00    +0.002 A  
DOCKED: ATOM      6  C   UNL     1     144.329  73.128 220.145 -0.40 -0.00    +0.001 A  
DOCKED: ATOM      7  C   UNL     1     144.052  74.470 219.863 -0.40 -0.01    +0.016 A  
DOCKED: ATOM      8  C   UNL     1     142.826  75.036 220.260 -0.29 -0.03    +0.066 A  
DOCKED: ATOM      9  C   UNL     1     142.498  76.378 219.998 -0.20 -0.16    +0.261 A  
DOCKED: ATOM     10  O   UNL     1     143.331  77.112 219.397 -0.28 +0.22    -0.269 OA 
DOCKED: ATOM     11  N   UNL     1     141.282  76.887 220.396 -0.12 +0.13    -0.288 N  
DOCKED: ENDROOT
DOCKED: BRANCH   1  12
DOCKED: ATOM     12  C   UNL     1     139.100  76.576 221.550 -0.24 -0.01    +0.048 C  
DOCKED: BRANCH  12  13
DOCKED: ATOM     13  C   UNL     1     139.008  77.225 222.715 -0.26 -0.00    +0.013 C  
DOCKED: BRANCH  13  14
DOCKED: ATOM     14  C   UNL     1     138.683  78.659 222.816 -0.29 +0.00    -0.007 A  
DOCKED: ATOM     15  C   UNL     1     137.828  79.293 221.897 -0.12 -0.02    +0.119 A  
DOCKED: ATOM     16  C   UNL     1     139.189  79.407 223.888 -0.37 -0.00    +0.011 A  
DOCKED: ATOM     17  N   UNL     1     137.500  80.602 222.059 -0.05 +0.04    -0.264 NA 
DOCKED: ATOM     18  C   UNL     1     138.846  80.753 224.025 -0.38 -0.00    +0.021 A  
DOCKED: ATOM     19  C   UNL     1     137.984  81.336 223.095 -0.21 -0.01    +0.111 A  
DOCKED: ENDBRANCH  13  14
DOCKED: ENDBRANCH  12  13
DOCKED: ENDBRANCH   1  12
DOCKED: BRANCH  11  20
DOCKED: ATOM     20  C   UNL     1     140.942  78.302 220.127 -0.17 -0.07    +0.163 C  
DOCKED: BRANCH  20  21
DOCKED: ATOM     21  C   UNL     1     141.450  79.206 221.225 -0.34 +0.01    -0.028 A  
DOCKED: ATOM     22  C   UNL     1     142.057  78.665 222.367 -0.38 -0.00    +0.005 A  
DOCKED: ATOM     23  C   UNL     1     141.362  80.603 221.094 -0.35 -0.00    +0.005 A  
DOCKED: ATOM     24  C   UNL     1     142.529  79.505 223.379 -0.61 -0.00    +0.000 A  
DOCKED: ATOM     25  C   UNL     1     141.839  81.440 222.107 -0.46 -0.00    +0.000 A  
DOCKED: ATOM     26  C   UNL     1     142.424  80.892 223.248 -0.63 -0.00    +0.000 A  
DOCKED: ENDBRANCH  20  21
DOCKED: ENDBRANCH  11  20
DOCKED: TORSDOF 5
DOCKED: TER
DOCKED: ENDMDL
________________________________________________________________________________


    FINAL DOCKED STATE:
    ________________________


Run:   20 / 20
Time taken for this run:   0.039s

DOCKED: MODEL        20
DOCKED: USER    Run = 20
DOCKED: USER
DOCKED: USER    Estimated Free Energy of Binding    =  -7.38 kcal/mol  [=(1)+(2)+(3)-(4)]
DOCKED: USER
DOCKED: USER    (1) Final Intermolecular Energy     =  -8.87 kcal/mol
DOCKED: USER        vdW + Hbond + desolv Energy     =  -8.80 kcal/mol
DOCKED: USER        Electrostatic Energy            =  -0.07 kcal/mol
DOCKED: USER        Moving Ligand-Fixed Receptor    =  -8.87 kcal/mol
DOCKED: USER        Moving Ligand-Moving Receptor   =  +0.00 kcal/mol
DOCKED: USER    (2) Final Total Internal Energy     =  -1.18 kcal/mol
DOCKED: USER    (3) Torsional Free Energy           =  +1.49 kcal/mol
DOCKED: USER    (4) Unbound System's Energy         =  -1.18 kcal/mol
DOCKED: USER
DOCKED: USER
DOCKED: REMARK SMILES O=c1c2ccccc2nc(/C=C/c2cccnc2)n1Cc1ccccc1
DOCKED: REMARK SMILES IDX 10 1 9 2 8 3 7 4 6 5 5 6 4 7 3 8 2 9 1 10 19 11 11 12 12 13
DOCKED: REMARK SMILES IDX 13 14 18 15 14 16 17 17 15 18 16 19 20 20 21 21 22 22 26 23
DOCKED: REMARK SMILES IDX 23 24 25 25 24 26
DOCKED: REMARK H PARENT
DOCKED: USER                              x       y       z     vdW  Elec       q    Type
DOCKED: USER                           _______ _______ _______ _____ _____    ______ ____
DOCKED: ROOT
DOCKED: ATOM      1  C   UNL     1     139.700  70.360 223.458 -0.22 -0.02    +0.136 A  
DOCKED: ATOM      2  N   UNL     1     140.208  71.217 224.381 -0.29 +0.04    -0.230 NA 
DOCKED: ATOM      3  C   UNL     1     140.373  70.856 225.675 -0.51 -0.01    +0.078 A  
DOCKED: ATOM      4  C   UNL     1     140.887  71.772 226.599 -0.68 -0.00    +0.029 A  
DOCKED: ATOM      5  C   UNL     1     141.060  71.396 227.933 -0.79 -0.00    +0.002 A  
DOCKED: ATOM      6  C   UNL     1     140.723  70.105 228.348 -0.56 -0.00    +0.001 A  
DOCKED: ATOM      7  C   UNL     1     140.208  69.185 227.430 -0.60 -0.00    +0.016 A  
DOCKED: ATOM      8  C   UNL     1     140.026  69.557 226.084 -0.45 -0.01    +0.066 A  
DOCKED: ATOM      9  C   UNL     1     139.507  68.671 225.123 -0.25 -0.04    +0.261 A  
DOCKED: ATOM     10  O   UNL     1     139.204  67.496 225.466 -0.91 -0.01    -0.269 OA 
DOCKED: ATOM     11  N   UNL     1     139.337  69.082 223.820 -0.11 +0.05    -0.288 N  
DOCKED: ENDROOT
DOCKED: BRANCH   1  12
DOCKED: ATOM     12  C   UNL     1     139.570  70.842 222.076 -0.19 -0.01    +0.048 C  
DOCKED: BRANCH  12  13
DOCKED: ATOM     13  C   UNL     1     140.592  71.458 221.473 -0.20 -0.00    +0.013 C  
DOCKED: BRANCH  13  14
DOCKED: ATOM     14  C   UNL     1     140.735  72.923 221.426 -0.27 +0.00    -0.007 A  
DOCKED: ATOM     15  C   UNL     1     139.775  73.782 221.991 -0.23 -0.02    +0.119 A  
DOCKED: ATOM     16  C   UNL     1     141.886  73.486 220.856 -0.27 -0.00    +0.011 A  
DOCKED: ATOM     17  N   UNL     1     139.973  75.126 221.985 -0.60 +0.04    -0.264 NA 
DOCKED: ATOM     18  C   UNL     1     142.059  74.871 220.853 -0.30 -0.01    +0.021 A  
DOCKED: ATOM     19  C   UNL     1     141.085  75.683 221.436 -0.30 -0.03    +0.111 A  
DOCKED: ENDBRANCH  13  14
DOCKED: ENDBRANCH  12  13
DOCKED: ENDBRANCH   1  12
DOCKED: BRANCH  11  20
DOCKED: ATOM     20  C   UNL     1     138.800  68.146 222.807 -0.19 -0.03    +0.163 C  
DOCKED: BRANCH  20  21
DOCKED: ATOM     21  C   UNL     1     137.291  68.172 222.780 -0.15 +0.00    -0.028 A  
DOCKED: ATOM     22  C   UNL     1     136.578  67.270 221.979 -0.14 -0.00    +0.005 A  
DOCKED: ATOM     23  C   UNL     1     136.581  69.073 223.595 -0.19 -0.00    +0.005 A  
DOCKED: ATOM     24  C   UNL     1     135.181  67.297 221.960 -0.12 -0.00    +0.000 A  
DOCKED: ATOM     25  C   UNL     1     135.183  69.093 223.575 -0.15 -0.00    +0.000 A  
DOCKED: ATOM     26  C   UNL     1     134.484  68.204 222.760 -0.12 -0.00    +0.000 A  
DOCKED: ENDBRANCH  20  21
DOCKED: ENDBRANCH  11  20
DOCKED: TORSDOF 5
DOCKED: TER
DOCKED: ENDMDL
________________________________________________________________________________


    CLUSTERING HISTOGRAM
    ____________________


________________________________________________________________________________
     |           |     |           |     |
Clus | Lowest    | Run | Mean      | Num | Histogram
-ter | Binding   |     | Binding   | in  |
Rank | Energy    |     | Energy    | Clus|    5    10   15   20   25   30   35
_____|___________|_____|___________|_____|____:____|____:____|____:____|____:___
   1 |     -7.38 |  20 |     -7.13 |  14 |##############
   2 |     -7.20 |  11 |     -7.20 |   3 |###
   3 |     -6.63 |  18 |     -6.63 |   1 |#
   4 |     -6.31 |  19 |     -6.31 |   2 |##
_____|___________|_____|___________|_____|______________________________________


    RMSD TABLE
    __________


_______________________________________________________________________
     |      |      |           |         |                 |
Rank | Sub- | Run  | Binding   | Cluster | Reference       | Grep
     | Rank |      | Energy    | RMSD    | RMSD            | Pattern
_____|______|______|___________|_________|_________________|___________
   1      1     20       -7.38      0.00    271.82           RANKING
   1      2      9       -7.34      0.10    271.79           RANKING
   1      3      4       -7.33      0.11    271.86           RANKING
   1      4      7       -7.30      0.23    271.81           RANKING
   1      5      6       -7.18      0.74    271.72           RANKING
   1      6      5       -7.14      0.74    271.71           RANKING
   1      7      3       -7.14      0.73    271.72           RANKING
   1      8      8       -7.13      0.75    271.69           RANKING
   1      9     13       -7.12      0.76    271.69           RANKING
   1     10     15       -7.11      0.75    271.69           RANKING
   1     11      2       -6.94      1.85    271.96           RANKING
   1     12     16       -6.91      1.85    271.97           RANKING
   1     13     14       -6.91      1.85    272.01           RANKING
   1     14     10       -6.86      1.88    271.93           RANKING
   2      1     11       -7.20      0.00    272.54           RANKING
   2      2      1       -7.20      0.07    272.55           RANKING
   2      3     17       -7.20      0.11    272.52           RANKING
   3      1     18       -6.63      0.00    271.91           RANKING
   4      1     19       -6.31      0.00    273.02           RANKING
   4      2     12       -6.31      0.08    273.04           RANKING

Run time 0.752 sec
Idle time 0.000 sec
