AutoDock-GPU version: v1.6

**********************************************************
**    AutoDock-GPU AUTODOCKTOOLS-COMPATIBLE DLG FILE    **
**********************************************************


    DOCKING PARAMETERS
    ________________________


Ligand file:                               /home/a/REINVENT4/ReinventStudies/scoringData/graph-dock-34dfml/graph-DockGPU/node-autodockgpu/inputs/HDANWICVGDYKAH-GWJUIIKNNA-M.pdbqt
Grid fld file:                             /home/a/REINVENT4/ReinventStudies/mols/Rad51/maps/rad51_receptor.maps.fld

Random seed:                               42
Number of runs:                            20
Number of energy evaluations:              1132076
Number of generations:                     42000
Size of population:                        150
Rate of crossover:                         80.000000%
Tournament selection probability limit:    60.000000%
Rate of mutation:                          2.000000%
Maximal allowed delta movement:            +/- 6.000000A
Maximal allowed delta angle:               +/- 90.000000

Rate of local search:                      100.000000%
Maximal number of local search iterations: 300
Rho lower bound:                           0.010000
Spread of local search delta movement:     2.000000A
Spread of local search delta angle:        74.999999
Limit of consecutive successes/failures:   4

Handle symmetry during clustering:         YES
RMSD tolerance:                            2.000000A

Program call in command line was:          /home/a/REINVENT4/ReinventStudies/adgpu-v1.6_linux_x64_cuda12_128wi --filelist batch.txt --heuristics 1 --nrun 20 --psize 150 --lsit 300 --seed 42 --heurmax 12000000 


    GRID PARAMETERS
    ________________________


Receptor name:                             rad51_receptor
Number of grid points (x, y, z):           53, 53, 53
Grid center (x, y, z):                     139.950000, 75.640000, 221.970000A
Grid size (x, y, z):                       19.500000, 19.500000, 19.500000A
Grid spacing:                              0.375000A


    LIGAND PARAMETERS
    ________________________


Ligand name:                               /home/a/REINVENT4/ReinventStudies/scoringData/graph-dock-34dfml/graph-DockGPU/node-autodockgpu/inputs/HDANWICVGDYKAH-GWJUIIKNNA-M
Number of atoms:                           29
Number of rotatable bonds:                 6
Number of atom types:                      6


    DUMMY DATA (only for ADT-compatibility)
    ________________________


DPF> outlev 1
DPF> ga_run 20
DPF> fld /home/a/REINVENT4/ReinventStudies/mols/Rad51/maps/rad51_receptor.maps.fld
DPF> move /home/a/REINVENT4/ReinventStudies/scoringData/graph-dock-34dfml/graph-DockGPU/node-autodockgpu/inputs/HDANWICVGDYKAH-GWJUIIKNNA-M.pdbqt


    COUNTER STATES
    ________________________


Number of energy evaluations performed:    757467
Number of generations used:                35


    INPUT LIGAND PDBQT FILE:
    ________________________


INPUT-LIGAND-PDBQT: REMARK SMILES [H]/N=c1\[n-]c2nc3ccccn3c(=O)c2cc1/C(O)=N/[C@@H](C)c1ccccc1
INPUT-LIGAND-PDBQT: REMARK SMILES IDX 18 1 17 2 3 3 4 4 5 5 16 6 6 7 15 8 7 9 13 10 8 11 12 12
INPUT-LIGAND-PDBQT: REMARK SMILES IDX 9 13 11 14 10 15 14 16 2 17 1 18 20 19 21 20 22 21 23 22
INPUT-LIGAND-PDBQT: REMARK SMILES IDX 24 23 28 24 25 25 27 26 26 27 19 28
INPUT-LIGAND-PDBQT: REMARK H PARENT 19 29
INPUT-LIGAND-PDBQT: ROOT
INPUT-LIGAND-PDBQT: ATOM      1  C   UNL     1       0.224   0.516  -1.721  1.00  0.00     0.215 C 
INPUT-LIGAND-PDBQT: ENDROOT
INPUT-LIGAND-PDBQT: BRANCH   1   2
INPUT-LIGAND-PDBQT: ATOM      2  C   UNL     1      -0.395   0.532  -0.365  1.00  0.00     0.049 A 
INPUT-LIGAND-PDBQT: ATOM      3  C   UNL     1      -1.012   1.689   0.171  1.00  0.00     0.015 A 
INPUT-LIGAND-PDBQT: ATOM      4  N   UNL     1      -1.553   1.654   1.419  1.00  0.00    -0.357 NA
INPUT-LIGAND-PDBQT: ATOM      5  C   UNL     1      -1.529   0.539   2.191  1.00  0.00     0.025 A 
INPUT-LIGAND-PDBQT: ATOM      6  C   UNL     1      -0.371  -0.633   0.427  1.00  0.00     0.029 A 
INPUT-LIGAND-PDBQT: ATOM      7  N   UNL     1      -2.082   0.563   3.426  1.00  0.00    -0.345 NA
INPUT-LIGAND-PDBQT: ATOM      8  C   UNL     1      -0.938  -0.637   1.712  1.00  0.00     0.054 A 
INPUT-LIGAND-PDBQT: ATOM      9  C   UNL     1      -2.077  -0.535   4.225  1.00  0.00     0.069 A 
INPUT-LIGAND-PDBQT: ATOM     10  C   UNL     1      -0.934  -1.773   2.542  1.00  0.00     0.263 A 
INPUT-LIGAND-PDBQT: ATOM     11  C   UNL     1      -2.662  -0.454   5.493  1.00  0.00     0.030 A 
INPUT-LIGAND-PDBQT: ATOM     12  N   UNL     1      -1.504  -1.713   3.792  1.00  0.00    -0.281 N 
INPUT-LIGAND-PDBQT: ATOM     13  C   UNL     1      -2.665  -1.572   6.323  1.00  0.00     0.004 A 
INPUT-LIGAND-PDBQT: ATOM     14  C   UNL     1      -1.508  -2.814   4.612  1.00  0.00     0.095 A 
INPUT-LIGAND-PDBQT: ATOM     15  C   UNL     1      -2.086  -2.758   5.883  1.00  0.00     0.019 A 
INPUT-LIGAND-PDBQT: ATOM     16  O   UNL     1      -0.405  -2.844   2.129  1.00  0.00    -0.268 OA
INPUT-LIGAND-PDBQT: BRANCH   3  17
INPUT-LIGAND-PDBQT: ATOM     17  N   UNL     1      -1.088   2.784  -0.517  1.00  0.00    -0.412 NA
INPUT-LIGAND-PDBQT: ATOM     18  H   UNL     1      -1.546   3.642  -0.134  1.00  0.00     0.076 HD
INPUT-LIGAND-PDBQT: ENDBRANCH   3  17
INPUT-LIGAND-PDBQT: ENDBRANCH   1   2
INPUT-LIGAND-PDBQT: BRANCH   1  19
INPUT-LIGAND-PDBQT: ATOM     19  N   UNL     1       0.470  -0.633  -2.292  1.00  0.00    -0.243 NA
INPUT-LIGAND-PDBQT: BRANCH  19  20
INPUT-LIGAND-PDBQT: ATOM     20  C   UNL     1       1.062  -0.900  -3.609  1.00  0.00     0.136 C 
INPUT-LIGAND-PDBQT: ATOM     21  C   UNL     1       0.079  -0.525  -4.729  1.00  0.00     0.038 C 
INPUT-LIGAND-PDBQT: BRANCH  20  22
INPUT-LIGAND-PDBQT: ATOM     22  C   UNL     1       2.465  -0.315  -3.720  1.00  0.00    -0.024 A 
INPUT-LIGAND-PDBQT: ATOM     23  C   UNL     1       2.872   0.502  -4.797  1.00  0.00     0.006 A 
INPUT-LIGAND-PDBQT: ATOM     24  C   UNL     1       3.408  -0.638  -2.727  1.00  0.00     0.006 A 
INPUT-LIGAND-PDBQT: ATOM     25  C   UNL     1       4.178   0.997  -4.857  1.00  0.00     0.000 A 
INPUT-LIGAND-PDBQT: ATOM     26  C   UNL     1       4.713  -0.140  -2.792  1.00  0.00     0.000 A 
INPUT-LIGAND-PDBQT: ATOM     27  C   UNL     1       5.097   0.678  -3.855  1.00  0.00     0.000 A 
INPUT-LIGAND-PDBQT: ENDBRANCH  20  22
INPUT-LIGAND-PDBQT: ENDBRANCH  19  20
INPUT-LIGAND-PDBQT: ENDBRANCH   1  19
INPUT-LIGAND-PDBQT: BRANCH   1  28
INPUT-LIGAND-PDBQT: ATOM     28  O   UNL     1       0.539   1.728  -2.342  1.00  0.00    -0.493 OA
INPUT-LIGAND-PDBQT: ATOM     29  H   UNL     1       0.988   1.805  -3.242  1.00  0.00     0.295 HD
INPUT-LIGAND-PDBQT: ENDBRANCH   1  28
INPUT-LIGAND-PDBQT: TORSDOF 6


    FINAL DOCKED STATE:
    ________________________


Run:   1 / 20
Time taken for this run:   0.028s

DOCKED: MODEL        1
DOCKED: USER    Run = 1
DOCKED: USER
DOCKED: USER    Estimated Free Energy of Binding    =  -7.58 kcal/mol  [=(1)+(2)+(3)-(4)]
DOCKED: USER
DOCKED: USER    (1) Final Intermolecular Energy     =  -9.37 kcal/mol
DOCKED: USER        vdW + Hbond + desolv Energy     =  -9.37 kcal/mol
DOCKED: USER        Electrostatic Energy            =  +0.00 kcal/mol
DOCKED: USER        Moving Ligand-Fixed Receptor    =  -9.37 kcal/mol
DOCKED: USER        Moving Ligand-Moving Receptor   =  +0.00 kcal/mol
DOCKED: USER    (2) Final Total Internal Energy     =  -1.60 kcal/mol
DOCKED: USER    (3) Torsional Free Energy           =  +1.79 kcal/mol
DOCKED: USER    (4) Unbound System's Energy         =  -1.60 kcal/mol
DOCKED: USER
DOCKED: USER
DOCKED: REMARK SMILES [H]/N=c1\[n-]c2nc3ccccn3c(=O)c2cc1/C(O)=N/[C@@H](C)c1ccccc1
DOCKED: REMARK SMILES IDX 18 1 17 2 3 3 4 4 5 5 16 6 6 7 15 8 7 9 13 10 8 11 12 12
DOCKED: REMARK SMILES IDX 9 13 11 14 10 15 14 16 2 17 1 18 20 19 21 20 22 21 23 22
DOCKED: REMARK SMILES IDX 24 23 28 24 25 25 27 26 26 27 19 28
DOCKED: REMARK H PARENT 19 29
DOCKED: USER                              x       y       z     vdW  Elec       q    Type
DOCKED: USER                           _______ _______ _______ _____ _____    ______ ____
DOCKED: ROOT
DOCKED: ATOM      1  C   UNL     1     135.637  69.421 224.479 -0.15 -0.01    +0.215 C  
DOCKED: ENDROOT
DOCKED: BRANCH   1   2
DOCKED: ATOM      2  C   UNL     1     134.837  70.439 225.218 -0.21 -0.00    +0.049 A  
DOCKED: ATOM      3  C   UNL     1     133.831  70.080 226.148 -0.31 -0.00    +0.015 A  
DOCKED: ATOM      4  N   UNL     1     133.121  71.048 226.788 -0.19 +0.03    -0.357 NA 
DOCKED: ATOM      5  C   UNL     1     133.336  72.370 226.573 -0.38 -0.00    +0.025 A  
DOCKED: ATOM      6  C   UNL     1     135.072  71.810 224.993 -0.14 -0.00    +0.029 A  
DOCKED: ATOM      7  N   UNL     1     132.598  73.289 227.238 -0.44 +0.03    -0.345 NA 
DOCKED: ATOM      8  C   UNL     1     134.322  72.785 225.669 -0.26 -0.00    +0.054 A  
DOCKED: ATOM      9  C   UNL     1     132.788  74.621 227.048 -0.35 +0.00    +0.069 A  
DOCKED: ATOM     10  C   UNL     1     134.516  74.165 225.474 -0.20 -0.00    +0.263 A  
DOCKED: ATOM     11  C   UNL     1     131.996  75.527 227.761 -0.35 +0.00    +0.030 A  
DOCKED: ATOM     12  N   UNL     1     133.747  75.072 226.166 -0.21 -0.00    -0.281 N  
DOCKED: ATOM     13  C   UNL     1     132.180  76.895 227.578 -0.34 +0.00    +0.004 A  
DOCKED: ATOM     14  C   UNL     1     133.927  76.421 225.986 -0.28 -0.01    +0.095 A  
DOCKED: ATOM     15  C   UNL     1     133.148  77.346 226.687 -0.30 -0.00    +0.019 A  
DOCKED: ATOM     16  O   UNL     1     135.400  74.561 224.662 -0.27 +0.05    -0.268 OA 
DOCKED: BRANCH   3  17
DOCKED: ATOM     17  N   UNL     1     133.583  68.837 226.417 -0.65 -0.03    -0.412 NA 
DOCKED: ATOM     18  H   UNL     1     134.216  68.070 226.095 +0.01 -0.00    +0.076 HD 
DOCKED: ENDBRANCH   3  17
DOCKED: ENDBRANCH   1   2
DOCKED: BRANCH   1  19
DOCKED: ATOM     19  N   UNL     1     136.884  69.682 224.191 -0.13 +0.02    -0.243 NA 
DOCKED: BRANCH  19  20
DOCKED: ATOM     20  C   UNL     1     138.084  68.890 224.489 -0.26 -0.01    +0.136 C  
DOCKED: ATOM     21  C   UNL     1     138.725  68.372 223.192 -0.25 -0.01    +0.038 C  
DOCKED: BRANCH  20  22
DOCKED: ATOM     22  C   UNL     1     139.011  69.621 225.453 -0.39 +0.00    -0.024 A  
DOCKED: ATOM     23  C   UNL     1     139.181  69.230 226.799 -0.47 -0.00    +0.006 A  
DOCKED: ATOM     24  C   UNL     1     139.695  70.761 224.993 -0.46 -0.00    +0.006 A  
DOCKED: ATOM     25  C   UNL     1     140.032  69.948 227.644 -0.61 -0.00    +0.000 A  
DOCKED: ATOM     26  C   UNL     1     140.545  71.477 225.843 -0.60 -0.00    +0.000 A  
DOCKED: ATOM     27  C   UNL     1     140.714  71.069 227.166 -0.70 -0.00    +0.000 A  
DOCKED: ENDBRANCH  20  22
DOCKED: ENDBRANCH  19  20
DOCKED: ENDBRANCH   1  19
DOCKED: BRANCH   1  28
DOCKED: ATOM     28  O   UNL     1     135.031  68.220 224.100 -0.57 -0.03    -0.493 OA 
DOCKED: ATOM     29  H   UNL     1     134.223  67.823 224.555 +0.08 -0.01    +0.295 HD 
DOCKED: ENDBRANCH   1  28
DOCKED: TORSDOF 6
DOCKED: TER
DOCKED: ENDMDL
________________________________________________________________________________


    FINAL DOCKED STATE:
    ________________________


Run:   2 / 20
Time taken for this run:   0.028s

DOCKED: MODEL        2
DOCKED: USER    Run = 2
DOCKED: USER
DOCKED: USER    Estimated Free Energy of Binding    =  -7.58 kcal/mol  [=(1)+(2)+(3)-(4)]
DOCKED: USER
DOCKED: USER    (1) Final Intermolecular Energy     =  -9.37 kcal/mol
DOCKED: USER        vdW + Hbond + desolv Energy     =  -9.35 kcal/mol
DOCKED: USER        Electrostatic Energy            =  -0.02 kcal/mol
DOCKED: USER        Moving Ligand-Fixed Receptor    =  -9.37 kcal/mol
DOCKED: USER        Moving Ligand-Moving Receptor   =  +0.00 kcal/mol
DOCKED: USER    (2) Final Total Internal Energy     =  -1.64 kcal/mol
DOCKED: USER    (3) Torsional Free Energy           =  +1.79 kcal/mol
DOCKED: USER    (4) Unbound System's Energy         =  -1.64 kcal/mol
DOCKED: USER
DOCKED: USER
DOCKED: REMARK SMILES [H]/N=c1\[n-]c2nc3ccccn3c(=O)c2cc1/C(O)=N/[C@@H](C)c1ccccc1
DOCKED: REMARK SMILES IDX 18 1 17 2 3 3 4 4 5 5 16 6 6 7 15 8 7 9 13 10 8 11 12 12
DOCKED: REMARK SMILES IDX 9 13 11 14 10 15 14 16 2 17 1 18 20 19 21 20 22 21 23 22
DOCKED: REMARK SMILES IDX 24 23 28 24 25 25 27 26 26 27 19 28
DOCKED: REMARK H PARENT 19 29
DOCKED: USER                              x       y       z     vdW  Elec       q    Type
DOCKED: USER                           _______ _______ _______ _____ _____    ______ ____
DOCKED: ROOT
DOCKED: ATOM      1  C   UNL     1     135.638  69.425 224.486 -0.15 -0.01    +0.215 C  
DOCKED: ENDROOT
DOCKED: BRANCH   1   2
DOCKED: ATOM      2  C   UNL     1     134.848  70.444 225.235 -0.21 -0.00    +0.049 A  
DOCKED: ATOM      3  C   UNL     1     133.862  70.086 226.187 -0.31 -0.00    +0.015 A  
DOCKED: ATOM      4  N   UNL     1     133.161  71.055 226.836 -0.19 +0.03    -0.357 NA 
DOCKED: ATOM      5  C   UNL     1     133.366  72.376 226.608 -0.38 -0.00    +0.025 A  
DOCKED: ATOM      6  C   UNL     1     135.072  71.814 224.997 -0.14 -0.00    +0.029 A  
DOCKED: ATOM      7  N   UNL     1     132.637  73.296 227.283 -0.46 +0.03    -0.345 NA 
DOCKED: ATOM      8  C   UNL     1     134.331  72.790 225.682 -0.26 -0.00    +0.054 A  
DOCKED: ATOM      9  C   UNL     1     132.817  74.627 227.081 -0.35 +0.00    +0.069 A  
DOCKED: ATOM     10  C   UNL     1     134.515  74.170 225.476 -0.20 -0.00    +0.263 A  
DOCKED: ATOM     11  C   UNL     1     132.035  75.534 227.804 -0.34 +0.00    +0.030 A  
DOCKED: ATOM     12  N   UNL     1     133.756  75.077 226.177 -0.21 -0.01    -0.281 N  
DOCKED: ATOM     13  C   UNL     1     132.209  76.902 227.609 -0.34 +0.00    +0.004 A  
DOCKED: ATOM     14  C   UNL     1     133.926  76.426 225.986 -0.28 -0.01    +0.095 A  
DOCKED: ATOM     15  C   UNL     1     133.157  77.352 226.696 -0.30 -0.00    +0.019 A  
DOCKED: ATOM     16  O   UNL     1     135.381  74.565 224.644 -0.26 +0.05    -0.268 OA 
DOCKED: BRANCH   3  17
DOCKED: ATOM     17  N   UNL     1     133.626  68.843 226.468 -0.65 -0.03    -0.412 NA 
DOCKED: ATOM     18  H   UNL     1     134.308  68.088 226.230 +0.01 -0.00    +0.076 HD 
DOCKED: ENDBRANCH   3  17
DOCKED: ENDBRANCH   1   2
DOCKED: BRANCH   1  19
DOCKED: ATOM     19  N   UNL     1     136.847  69.725 224.092 -0.12 +0.03    -0.243 NA 
DOCKED: BRANCH  19  20
DOCKED: ATOM     20  C   UNL     1     138.098  68.987 224.313 -0.26 -0.01    +0.136 C  
DOCKED: ATOM     21  C   UNL     1     138.730  68.582 222.972 -0.24 -0.01    +0.038 C  
DOCKED: BRANCH  20  22
DOCKED: ATOM     22  C   UNL     1     139.009  69.714 225.295 -0.38 +0.00    -0.024 A  
DOCKED: ATOM     23  C   UNL     1     139.706  70.896 224.964 -0.46 -0.00    +0.006 A  
DOCKED: ATOM     24  C   UNL     1     139.197  69.158 226.574 -0.49 -0.00    +0.006 A  
DOCKED: ATOM     25  C   UNL     1     140.543  71.511 225.899 -0.60 -0.00    +0.000 A  
DOCKED: ATOM     26  C   UNL     1     140.036  69.778 227.506 -0.60 -0.00    +0.000 A  
DOCKED: ATOM     27  C   UNL     1     140.707  70.954 227.169 -0.69 -0.00    +0.000 A  
DOCKED: ENDBRANCH  20  22
DOCKED: ENDBRANCH  19  20
DOCKED: ENDBRANCH   1  19
DOCKED: BRANCH   1  28
DOCKED: ATOM     28  O   UNL     1     135.062  68.182 224.211 -0.56 -0.05    -0.493 OA 
DOCKED: ATOM     29  H   UNL     1     134.212  67.843 224.635 +0.08 -0.01    +0.295 HD 
DOCKED: ENDBRANCH   1  28
DOCKED: TORSDOF 6
DOCKED: TER
DOCKED: ENDMDL
________________________________________________________________________________


    FINAL DOCKED STATE:
    ________________________


Run:   3 / 20
Time taken for this run:   0.028s

DOCKED: MODEL        3
DOCKED: USER    Run = 3
DOCKED: USER
DOCKED: USER    Estimated Free Energy of Binding    =  -7.55 kcal/mol  [=(1)+(2)+(3)-(4)]
DOCKED: USER
DOCKED: USER    (1) Final Intermolecular Energy     =  -9.34 kcal/mol
DOCKED: USER        vdW + Hbond + desolv Energy     =  -9.33 kcal/mol
DOCKED: USER        Electrostatic Energy            =  -0.01 kcal/mol
DOCKED: USER        Moving Ligand-Fixed Receptor    =  -9.34 kcal/mol
DOCKED: USER        Moving Ligand-Moving Receptor   =  +0.00 kcal/mol
DOCKED: USER    (2) Final Total Internal Energy     =  -1.56 kcal/mol
DOCKED: USER    (3) Torsional Free Energy           =  +1.79 kcal/mol
DOCKED: USER    (4) Unbound System's Energy         =  -1.56 kcal/mol
DOCKED: USER
DOCKED: USER
DOCKED: REMARK SMILES [H]/N=c1\[n-]c2nc3ccccn3c(=O)c2cc1/C(O)=N/[C@@H](C)c1ccccc1
DOCKED: REMARK SMILES IDX 18 1 17 2 3 3 4 4 5 5 16 6 6 7 15 8 7 9 13 10 8 11 12 12
DOCKED: REMARK SMILES IDX 9 13 11 14 10 15 14 16 2 17 1 18 20 19 21 20 22 21 23 22
DOCKED: REMARK SMILES IDX 24 23 28 24 25 25 27 26 26 27 19 28
DOCKED: REMARK H PARENT 19 29
DOCKED: USER                              x       y       z     vdW  Elec       q    Type
DOCKED: USER                           _______ _______ _______ _____ _____    ______ ____
DOCKED: ROOT
DOCKED: ATOM      1  C   UNL     1     135.666  69.374 224.495 -0.15 -0.01    +0.215 C  
DOCKED: ENDROOT
DOCKED: BRANCH   1   2
DOCKED: ATOM      2  C   UNL     1     134.874  70.396 225.235 -0.21 -0.00    +0.049 A  
DOCKED: ATOM      3  C   UNL     1     133.876  70.044 226.178 -0.31 -0.00    +0.015 A  
DOCKED: ATOM      4  N   UNL     1     133.174  71.016 226.819 -0.20 +0.03    -0.357 NA 
DOCKED: ATOM      5  C   UNL     1     133.388  72.337 226.594 -0.38 -0.00    +0.025 A  
DOCKED: ATOM      6  C   UNL     1     135.107  71.766 225.000 -0.11 -0.00    +0.029 A  
DOCKED: ATOM      7  N   UNL     1     132.657  73.260 227.261 -0.46 +0.03    -0.345 NA 
DOCKED: ATOM      8  C   UNL     1     134.365  72.746 225.678 -0.24 -0.00    +0.054 A  
DOCKED: ATOM      9  C   UNL     1     132.845  74.590 227.061 -0.34 +0.00    +0.069 A  
DOCKED: ATOM     10  C   UNL     1     134.558  74.124 225.473 -0.20 -0.00    +0.263 A  
DOCKED: ATOM     11  C   UNL     1     132.062  75.502 227.777 -0.34 +0.00    +0.030 A  
DOCKED: ATOM     12  N   UNL     1     133.797  75.036 226.167 -0.21 -0.01    -0.281 N  
DOCKED: ATOM     13  C   UNL     1     132.244  76.868 227.583 -0.34 +0.00    +0.004 A  
DOCKED: ATOM     14  C   UNL     1     133.975  76.384 225.977 -0.28 -0.01    +0.095 A  
DOCKED: ATOM     15  C   UNL     1     133.204  77.314 226.680 -0.30 -0.00    +0.019 A  
DOCKED: ATOM     16  O   UNL     1     135.434  74.515 224.650 -0.27 +0.05    -0.268 OA 
DOCKED: BRANCH   3  17
DOCKED: ATOM     17  N   UNL     1     133.631  68.803 226.456 -0.65 -0.03    -0.412 NA 
DOCKED: ATOM     18  H   UNL     1     133.519  68.084 225.706 +0.02 -0.01    +0.076 HD 
DOCKED: ENDBRANCH   3  17
DOCKED: ENDBRANCH   1   2
DOCKED: BRANCH   1  19
DOCKED: ATOM     19  N   UNL     1     136.889  69.658 224.134 -0.12 +0.02    -0.243 NA 
DOCKED: BRANCH  19  20
DOCKED: ATOM     20  C   UNL     1     138.123  68.904 224.385 -0.26 -0.01    +0.136 C  
DOCKED: ATOM     21  C   UNL     1     138.753  68.444 223.061 -0.24 -0.01    +0.038 C  
DOCKED: BRANCH  20  22
DOCKED: ATOM     22  C   UNL     1     139.044  69.643 225.348 -0.39 +0.00    -0.024 A  
DOCKED: ATOM     23  C   UNL     1     139.695  70.851 225.012 -0.46 -0.00    +0.006 A  
DOCKED: ATOM     24  C   UNL     1     139.290  69.076 226.612 -0.50 -0.00    +0.006 A  
DOCKED: ATOM     25  C   UNL     1     140.543  71.477 225.930 -0.60 -0.00    +0.000 A  
DOCKED: ATOM     26  C   UNL     1     140.140  69.707 227.525 -0.61 -0.00    +0.000 A  
DOCKED: ATOM     27  C   UNL     1     140.765  70.907 227.185 -0.68 -0.00    +0.000 A  
DOCKED: ENDBRANCH  20  22
DOCKED: ENDBRANCH  19  20
DOCKED: ENDBRANCH   1  19
DOCKED: BRANCH   1  28
DOCKED: ATOM     28  O   UNL     1     135.078  68.142 224.192 -0.56 -0.05    -0.493 OA 
DOCKED: ATOM     29  H   UNL     1     134.385  67.687 224.767 +0.08 +0.00    +0.295 HD 
DOCKED: ENDBRANCH   1  28
DOCKED: TORSDOF 6
DOCKED: TER
DOCKED: ENDMDL
________________________________________________________________________________


    FINAL DOCKED STATE:
    ________________________


Run:   4 / 20
Time taken for this run:   0.028s

DOCKED: MODEL        4
DOCKED: USER    Run = 4
DOCKED: USER
DOCKED: USER    Estimated Free Energy of Binding    =  -7.58 kcal/mol  [=(1)+(2)+(3)-(4)]
DOCKED: USER
DOCKED: USER    (1) Final Intermolecular Energy     =  -9.37 kcal/mol
DOCKED: USER        vdW + Hbond + desolv Energy     =  -9.35 kcal/mol
DOCKED: USER        Electrostatic Energy            =  -0.02 kcal/mol
DOCKED: USER        Moving Ligand-Fixed Receptor    =  -9.37 kcal/mol
DOCKED: USER        Moving Ligand-Moving Receptor   =  +0.00 kcal/mol
DOCKED: USER    (2) Final Total Internal Energy     =  -1.63 kcal/mol
DOCKED: USER    (3) Torsional Free Energy           =  +1.79 kcal/mol
DOCKED: USER    (4) Unbound System's Energy         =  -1.63 kcal/mol
DOCKED: USER
DOCKED: USER
DOCKED: REMARK SMILES [H]/N=c1\[n-]c2nc3ccccn3c(=O)c2cc1/C(O)=N/[C@@H](C)c1ccccc1
DOCKED: REMARK SMILES IDX 18 1 17 2 3 3 4 4 5 5 16 6 6 7 15 8 7 9 13 10 8 11 12 12
DOCKED: REMARK SMILES IDX 9 13 11 14 10 15 14 16 2 17 1 18 20 19 21 20 22 21 23 22
DOCKED: REMARK SMILES IDX 24 23 28 24 25 25 27 26 26 27 19 28
DOCKED: REMARK H PARENT 19 29
DOCKED: USER                              x       y       z     vdW  Elec       q    Type
DOCKED: USER                           _______ _______ _______ _____ _____    ______ ____
DOCKED: ROOT
DOCKED: ATOM      1  C   UNL     1     135.656  69.384 224.488 -0.15 -0.01    +0.215 C  
DOCKED: ENDROOT
DOCKED: BRANCH   1   2
DOCKED: ATOM      2  C   UNL     1     134.864  70.403 225.234 -0.21 -0.00    +0.049 A  
DOCKED: ATOM      3  C   UNL     1     133.877  70.045 226.184 -0.31 -0.00    +0.015 A  
DOCKED: ATOM      4  N   UNL     1     133.174  71.015 226.831 -0.20 +0.03    -0.357 NA 
DOCKED: ATOM      5  C   UNL     1     133.379  72.336 226.604 -0.38 -0.00    +0.025 A  
DOCKED: ATOM      6  C   UNL     1     135.090  71.773 224.996 -0.13 -0.00    +0.029 A  
DOCKED: ATOM      7  N   UNL     1     132.649  73.256 227.275 -0.46 +0.03    -0.345 NA 
DOCKED: ATOM      8  C   UNL     1     134.347  72.750 225.680 -0.25 -0.00    +0.054 A  
DOCKED: ATOM      9  C   UNL     1     132.829  74.587 227.074 -0.35 +0.00    +0.069 A  
DOCKED: ATOM     10  C   UNL     1     134.532  74.129 225.472 -0.20 -0.00    +0.263 A  
DOCKED: ATOM     11  C   UNL     1     132.046  75.495 227.795 -0.34 +0.00    +0.030 A  
DOCKED: ATOM     12  N   UNL     1     133.771  75.037 226.171 -0.21 -0.01    -0.281 N  
DOCKED: ATOM     13  C   UNL     1     132.221  76.862 227.599 -0.34 +0.00    +0.004 A  
DOCKED: ATOM     14  C   UNL     1     133.941  76.386 225.980 -0.29 -0.01    +0.095 A  
DOCKED: ATOM     15  C   UNL     1     133.171  77.312 226.688 -0.30 -0.00    +0.019 A  
DOCKED: ATOM     16  O   UNL     1     135.399  74.523 224.642 -0.26 +0.05    -0.268 OA 
DOCKED: BRANCH   3  17
DOCKED: ATOM     17  N   UNL     1     133.640  68.803 226.466 -0.65 -0.03    -0.412 NA 
DOCKED: ATOM     18  H   UNL     1     134.316  68.046 226.218 +0.01 -0.00    +0.076 HD 
DOCKED: ENDBRANCH   3  17
DOCKED: ENDBRANCH   1   2
DOCKED: BRANCH   1  19
DOCKED: ATOM     19  N   UNL     1     136.870  69.679 224.106 -0.12 +0.03    -0.243 NA 
DOCKED: BRANCH  19  20
DOCKED: ATOM     20  C   UNL     1     138.117  68.941 224.347 -0.26 -0.01    +0.136 C  
DOCKED: ATOM     21  C   UNL     1     138.760  68.519 223.016 -0.24 -0.01    +0.038 C  
DOCKED: BRANCH  20  22
DOCKED: ATOM     22  C   UNL     1     139.021  69.677 225.328 -0.39 +0.00    -0.024 A  
DOCKED: ATOM     23  C   UNL     1     139.692  70.876 225.002 -0.46 -0.00    +0.006 A  
DOCKED: ATOM     24  C   UNL     1     139.231  69.114 226.600 -0.49 -0.00    +0.006 A  
DOCKED: ATOM     25  C   UNL     1     140.524  71.500 225.936 -0.60 -0.00    +0.000 A  
DOCKED: ATOM     26  C   UNL     1     140.064  69.742 227.531 -0.61 -0.00    +0.000 A  
DOCKED: ATOM     27  C   UNL     1     140.709  70.934 227.200 -0.69 -0.00    +0.000 A  
DOCKED: ENDBRANCH  20  22
DOCKED: ENDBRANCH  19  20
DOCKED: ENDBRANCH   1  19
DOCKED: BRANCH   1  28
DOCKED: ATOM     28  O   UNL     1     135.077  68.144 224.202 -0.56 -0.05    -0.493 OA 
DOCKED: ATOM     29  H   UNL     1     134.235  67.797 224.636 +0.08 -0.01    +0.295 HD 
DOCKED: ENDBRANCH   1  28
DOCKED: TORSDOF 6
DOCKED: TER
DOCKED: ENDMDL
________________________________________________________________________________


    FINAL DOCKED STATE:
    ________________________


Run:   5 / 20
Time taken for this run:   0.028s

DOCKED: MODEL        5
DOCKED: USER    Run = 5
DOCKED: USER
DOCKED: USER    Estimated Free Energy of Binding    =  -5.91 kcal/mol  [=(1)+(2)+(3)-(4)]
DOCKED: USER
DOCKED: USER    (1) Final Intermolecular Energy     =  -7.70 kcal/mol
DOCKED: USER        vdW + Hbond + desolv Energy     =  -7.97 kcal/mol
DOCKED: USER        Electrostatic Energy            =  +0.27 kcal/mol
DOCKED: USER        Moving Ligand-Fixed Receptor    =  -7.70 kcal/mol
DOCKED: USER        Moving Ligand-Moving Receptor   =  +0.00 kcal/mol
DOCKED: USER    (2) Final Total Internal Energy     =  -2.42 kcal/mol
DOCKED: USER    (3) Torsional Free Energy           =  +1.79 kcal/mol
DOCKED: USER    (4) Unbound System's Energy         =  -2.42 kcal/mol
DOCKED: USER
DOCKED: USER
DOCKED: REMARK SMILES [H]/N=c1\[n-]c2nc3ccccn3c(=O)c2cc1/C(O)=N/[C@@H](C)c1ccccc1
DOCKED: REMARK SMILES IDX 18 1 17 2 3 3 4 4 5 5 16 6 6 7 15 8 7 9 13 10 8 11 12 12
DOCKED: REMARK SMILES IDX 9 13 11 14 10 15 14 16 2 17 1 18 20 19 21 20 22 21 23 22
DOCKED: REMARK SMILES IDX 24 23 28 24 25 25 27 26 26 27 19 28
DOCKED: REMARK H PARENT 19 29
DOCKED: USER                              x       y       z     vdW  Elec       q    Type
DOCKED: USER                           _______ _______ _______ _____ _____    ______ ____
DOCKED: ROOT
DOCKED: ATOM      1  C   UNL     1     137.445  79.030 222.145 -0.11 -0.03    +0.215 C  
DOCKED: ENDROOT
DOCKED: BRANCH   1   2
DOCKED: ATOM      2  C   UNL     1     138.296  77.814 222.005 -0.20 -0.01    +0.049 A  
DOCKED: ATOM      3  C   UNL     1     137.929  76.565 222.565 -0.29 -0.00    +0.015 A  
DOCKED: ATOM      4  N   UNL     1     138.747  75.488 222.417 -0.19 +0.09    -0.357 NA 
DOCKED: ATOM      5  C   UNL     1     139.923  75.555 221.744 -0.32 -0.00    +0.025 A  
DOCKED: ATOM      6  C   UNL     1     139.513  77.891 221.299 -0.18 -0.01    +0.029 A  
DOCKED: ATOM      7  N   UNL     1     140.697  74.450 221.630 -0.50 +0.04    -0.345 NA 
DOCKED: ATOM      8  C   UNL     1     140.336  76.761 221.164 -0.25 -0.02    +0.054 A  
DOCKED: ATOM      9  C   UNL     1     141.879  74.481 220.963 -0.25 -0.02    +0.069 A  
DOCKED: ATOM     10  C   UNL     1     141.561  76.789 220.473 -0.17 -0.13    +0.263 A  
DOCKED: ATOM     11  C   UNL     1     142.640  73.310 220.877 -0.24 -0.01    +0.030 A  
DOCKED: ATOM     12  N   UNL     1     142.323  75.649 220.378 -0.16 +0.14    -0.281 N  
DOCKED: ATOM     13  C   UNL     1     143.854  73.326 220.195 -0.36 -0.00    +0.004 A  
DOCKED: ATOM     14  C   UNL     1     143.520  75.662 219.706 -0.36 -0.06    +0.095 A  
DOCKED: ATOM     15  C   UNL     1     144.298  74.506 219.607 -0.34 -0.01    +0.019 A  
DOCKED: ATOM     16  O   UNL     1     141.952  77.868 219.943 -0.20 +0.17    -0.268 OA 
DOCKED: BRANCH   3  17
DOCKED: ATOM     17  N   UNL     1     136.812  76.424 223.205 -0.10 +0.09    -0.412 NA 
DOCKED: ATOM     18  H   UNL     1     136.322  77.238 223.641 +0.01 -0.01    +0.076 HD 
DOCKED: ENDBRANCH   3  17
DOCKED: ENDBRANCH   1   2
DOCKED: BRANCH   1  19
DOCKED: ATOM     19  N   UNL     1     138.016  80.205 222.161 -0.08 +0.04    -0.243 NA 
DOCKED: BRANCH  19  20
DOCKED: ATOM     20  C   UNL     1     138.779  80.845 223.241 -0.28 -0.02    +0.136 C  
DOCKED: ATOM     21  C   UNL     1     138.090  80.618 224.596 -0.36 -0.00    +0.038 C  
DOCKED: BRANCH  20  22
DOCKED: ATOM     22  C   UNL     1     140.258  80.486 223.168 -0.41 +0.00    -0.024 A  
DOCKED: ATOM     23  C   UNL     1     141.188  81.220 222.400 -0.44 -0.00    +0.006 A  
DOCKED: ATOM     24  C   UNL     1     140.709  79.350 223.865 -0.51 -0.00    +0.006 A  
DOCKED: ATOM     25  C   UNL     1     142.531  80.835 222.355 -0.52 -0.00    +0.000 A  
DOCKED: ATOM     26  C   UNL     1     142.054  78.970 223.817 -0.57 -0.00    +0.000 A  
DOCKED: ATOM     27  C   UNL     1     142.964  79.712 223.065 -0.61 -0.00    +0.000 A  
DOCKED: ENDBRANCH  20  22
DOCKED: ENDBRANCH  19  20
DOCKED: ENDBRANCH   1  19
DOCKED: BRANCH   1  28
DOCKED: ATOM     28  O   UNL     1     136.061  78.883 222.271 -0.02 +0.07    -0.493 OA 
DOCKED: ATOM     29  H   UNL     1     135.592  77.999 222.394 +0.06 -0.04    +0.295 HD 
DOCKED: ENDBRANCH   1  28
DOCKED: TORSDOF 6
DOCKED: TER
DOCKED: ENDMDL
________________________________________________________________________________


    FINAL DOCKED STATE:
    ________________________


Run:   6 / 20
Time taken for this run:   0.028s

DOCKED: MODEL        6
DOCKED: USER    Run = 6
DOCKED: USER
DOCKED: USER    Estimated Free Energy of Binding    =  -7.56 kcal/mol  [=(1)+(2)+(3)-(4)]
DOCKED: USER
DOCKED: USER    (1) Final Intermolecular Energy     =  -9.35 kcal/mol
DOCKED: USER        vdW + Hbond + desolv Energy     =  -9.35 kcal/mol
DOCKED: USER        Electrostatic Energy            =  -0.00 kcal/mol
DOCKED: USER        Moving Ligand-Fixed Receptor    =  -9.35 kcal/mol
DOCKED: USER        Moving Ligand-Moving Receptor   =  +0.00 kcal/mol
DOCKED: USER    (2) Final Total Internal Energy     =  -1.60 kcal/mol
DOCKED: USER    (3) Torsional Free Energy           =  +1.79 kcal/mol
DOCKED: USER    (4) Unbound System's Energy         =  -1.60 kcal/mol
DOCKED: USER
DOCKED: USER
DOCKED: REMARK SMILES [H]/N=c1\[n-]c2nc3ccccn3c(=O)c2cc1/C(O)=N/[C@@H](C)c1ccccc1
DOCKED: REMARK SMILES IDX 18 1 17 2 3 3 4 4 5 5 16 6 6 7 15 8 7 9 13 10 8 11 12 12
DOCKED: REMARK SMILES IDX 9 13 11 14 10 15 14 16 2 17 1 18 20 19 21 20 22 21 23 22
DOCKED: REMARK SMILES IDX 24 23 28 24 25 25 27 26 26 27 19 28
DOCKED: REMARK H PARENT 19 29
DOCKED: USER                              x       y       z     vdW  Elec       q    Type
DOCKED: USER                           _______ _______ _______ _____ _____    ______ ____
DOCKED: ROOT
DOCKED: ATOM      1  C   UNL     1     135.669  69.410 224.488 -0.15 -0.01    +0.215 C  
DOCKED: ENDROOT
DOCKED: BRANCH   1   2
DOCKED: ATOM      2  C   UNL     1     134.868  70.412 225.247 -0.21 -0.00    +0.049 A  
DOCKED: ATOM      3  C   UNL     1     133.880  70.033 226.188 -0.31 -0.00    +0.015 A  
DOCKED: ATOM      4  N   UNL     1     133.168  70.988 226.847 -0.20 +0.03    -0.357 NA 
DOCKED: ATOM      5  C   UNL     1     133.365  72.314 226.641 -0.39 -0.00    +0.025 A  
DOCKED: ATOM      6  C   UNL     1     135.084  71.787 225.030 -0.11 -0.00    +0.029 A  
DOCKED: ATOM      7  N   UNL     1     132.626  73.219 227.324 -0.43 +0.04    -0.345 NA 
DOCKED: ATOM      8  C   UNL     1     134.333  72.748 225.726 -0.26 -0.00    +0.054 A  
DOCKED: ATOM      9  C   UNL     1     132.798  74.554 227.143 -0.35 +0.00    +0.069 A  
DOCKED: ATOM     10  C   UNL     1     134.508  74.132 225.541 -0.20 -0.00    +0.263 A  
DOCKED: ATOM     11  C   UNL     1     132.006  75.445 227.875 -0.33 +0.00    +0.030 A  
DOCKED: ATOM     12  N   UNL     1     133.739  75.024 226.251 -0.21 -0.01    -0.281 N  
DOCKED: ATOM     13  C   UNL     1     132.171  76.816 227.701 -0.34 +0.00    +0.004 A  
DOCKED: ATOM     14  C   UNL     1     133.900  76.376 226.080 -0.29 -0.01    +0.095 A  
DOCKED: ATOM     15  C   UNL     1     133.122  77.287 226.800 -0.31 -0.00    +0.019 A  
DOCKED: ATOM     16  O   UNL     1     135.376  74.545 224.719 -0.27 +0.04    -0.268 OA 
DOCKED: BRANCH   3  17
DOCKED: ATOM     17  N   UNL     1     133.651  68.786 226.450 -0.65 -0.03    -0.412 NA 
DOCKED: ATOM     18  H   UNL     1     134.293  68.029 226.122 +0.01 -0.01    +0.076 HD 
DOCKED: ENDBRANCH   3  17
DOCKED: ENDBRANCH   1   2
DOCKED: BRANCH   1  19
DOCKED: ATOM     19  N   UNL     1     136.905  69.693 224.174 -0.13 +0.03    -0.243 NA 
DOCKED: BRANCH  19  20
DOCKED: ATOM     20  C   UNL     1     138.123  68.912 224.428 -0.26 -0.01    +0.136 C  
DOCKED: ATOM     21  C   UNL     1     138.741  68.431 223.106 -0.25 -0.01    +0.038 C  
DOCKED: BRANCH  20  22
DOCKED: ATOM     22  C   UNL     1     139.061  69.636 225.387 -0.39 +0.00    -0.024 A  
DOCKED: ATOM     23  C   UNL     1     139.272  69.213 226.717 -0.49 -0.00    +0.006 A  
DOCKED: ATOM     24  C   UNL     1     139.711  70.800 224.940 -0.45 -0.00    +0.006 A  
DOCKED: ATOM     25  C   UNL     1     140.131  69.926 227.559 -0.61 -0.00    +0.000 A  
DOCKED: ATOM     26  C   UNL     1     140.569  71.509 225.786 -0.60 -0.00    +0.000 A  
DOCKED: ATOM     27  C   UNL     1     140.780  71.071 227.094 -0.70 -0.00    +0.000 A  
DOCKED: ENDBRANCH  20  22
DOCKED: ENDBRANCH  19  20
DOCKED: ENDBRANCH   1  19
DOCKED: BRANCH   1  28
DOCKED: ATOM     28  O   UNL     1     135.075  68.200 224.118 -0.56 -0.04    -0.493 OA 
DOCKED: ATOM     29  H   UNL     1     134.273  67.797 224.578 +0.08 -0.01    +0.295 HD 
DOCKED: ENDBRANCH   1  28
DOCKED: TORSDOF 6
DOCKED: TER
DOCKED: ENDMDL
________________________________________________________________________________


    FINAL DOCKED STATE:
    ________________________


Run:   7 / 20
Time taken for this run:   0.028s

DOCKED: MODEL        7
DOCKED: USER    Run = 7
DOCKED: USER
DOCKED: USER    Estimated Free Energy of Binding    =  -7.56 kcal/mol  [=(1)+(2)+(3)-(4)]
DOCKED: USER
DOCKED: USER    (1) Final Intermolecular Energy     =  -9.35 kcal/mol
DOCKED: USER        vdW + Hbond + desolv Energy     =  -9.34 kcal/mol
DOCKED: USER        Electrostatic Energy            =  -0.01 kcal/mol
DOCKED: USER        Moving Ligand-Fixed Receptor    =  -9.35 kcal/mol
DOCKED: USER        Moving Ligand-Moving Receptor   =  +0.00 kcal/mol
DOCKED: USER    (2) Final Total Internal Energy     =  -1.59 kcal/mol
DOCKED: USER    (3) Torsional Free Energy           =  +1.79 kcal/mol
DOCKED: USER    (4) Unbound System's Energy         =  -1.59 kcal/mol
DOCKED: USER
DOCKED: USER
DOCKED: REMARK SMILES [H]/N=c1\[n-]c2nc3ccccn3c(=O)c2cc1/C(O)=N/[C@@H](C)c1ccccc1
DOCKED: REMARK SMILES IDX 18 1 17 2 3 3 4 4 5 5 16 6 6 7 15 8 7 9 13 10 8 11 12 12
DOCKED: REMARK SMILES IDX 9 13 11 14 10 15 14 16 2 17 1 18 20 19 21 20 22 21 23 22
DOCKED: REMARK SMILES IDX 24 23 28 24 25 25 27 26 26 27 19 28
DOCKED: REMARK H PARENT 19 29
DOCKED: USER                              x       y       z     vdW  Elec       q    Type
DOCKED: USER                           _______ _______ _______ _____ _____    ______ ____
DOCKED: ROOT
DOCKED: ATOM      1  C   UNL     1     135.640  69.393 224.467 -0.15 -0.01    +0.215 C  
DOCKED: ENDROOT
DOCKED: BRANCH   1   2
DOCKED: ATOM      2  C   UNL     1     134.852  70.401 225.231 -0.21 -0.00    +0.049 A  
DOCKED: ATOM      3  C   UNL     1     133.876  70.029 226.189 -0.31 -0.00    +0.015 A  
DOCKED: ATOM      4  N   UNL     1     133.175  70.989 226.852 -0.20 +0.03    -0.357 NA 
DOCKED: ATOM      5  C   UNL     1     133.371  72.313 226.635 -0.39 -0.00    +0.025 A  
DOCKED: ATOM      6  C   UNL     1     135.067  71.774 225.003 -0.13 -0.00    +0.029 A  
DOCKED: ATOM      7  N   UNL     1     132.644  73.224 227.323 -0.44 +0.04    -0.345 NA 
DOCKED: ATOM      8  C   UNL     1     134.327  72.741 225.704 -0.26 -0.00    +0.054 A  
DOCKED: ATOM      9  C   UNL     1     132.815  74.557 227.131 -0.35 +0.00    +0.069 A  
DOCKED: ATOM     10  C   UNL     1     134.502  74.123 225.507 -0.20 -0.00    +0.263 A  
DOCKED: ATOM     11  C   UNL     1     132.035  75.454 227.869 -0.33 +0.00    +0.030 A  
DOCKED: ATOM     12  N   UNL     1     133.744  75.020 226.223 -0.21 -0.01    -0.281 N  
DOCKED: ATOM     13  C   UNL     1     132.200  76.824 227.683 -0.34 +0.00    +0.004 A  
DOCKED: ATOM     14  C   UNL     1     133.905  76.372 226.041 -0.29 -0.01    +0.095 A  
DOCKED: ATOM     15  C   UNL     1     133.138  77.287 226.766 -0.31 -0.00    +0.019 A  
DOCKED: ATOM     16  O   UNL     1     135.358  74.529 224.671 -0.26 +0.05    -0.268 OA 
DOCKED: BRANCH   3  17
DOCKED: ATOM     17  N   UNL     1     133.649  68.784 226.462 -0.65 -0.03    -0.412 NA 
DOCKED: ATOM     18  H   UNL     1     134.322  68.031 226.191 +0.01 -0.01    +0.076 HD 
DOCKED: ENDBRANCH   3  17
DOCKED: ENDBRANCH   1   2
DOCKED: BRANCH   1  19
DOCKED: ATOM     19  N   UNL     1     136.851  69.695 224.082 -0.12 +0.03    -0.243 NA 
DOCKED: BRANCH  19  20
DOCKED: ATOM     20  C   UNL     1     138.044  68.839 224.031 -0.23 -0.01    +0.136 C  
DOCKED: ATOM     21  C   UNL     1     138.697  68.905 222.642 -0.21 -0.01    +0.038 C  
DOCKED: BRANCH  20  22
DOCKED: ATOM     22  C   UNL     1     138.963  69.091 225.221 -0.40 +0.00    -0.024 A  
DOCKED: ATOM     23  C   UNL     1     139.549  70.348 225.484 -0.44 -0.00    +0.006 A  
DOCKED: ATOM     24  C   UNL     1     139.274  68.012 226.069 -0.57 -0.00    +0.006 A  
DOCKED: ATOM     25  C   UNL     1     140.400  70.517 226.581 -0.59 -0.00    +0.000 A  
DOCKED: ATOM     26  C   UNL     1     140.125  68.188 227.165 -0.67 -0.00    +0.000 A  
DOCKED: ATOM     27  C   UNL     1     140.686  69.439 227.421 -0.61 -0.00    +0.000 A  
DOCKED: ENDBRANCH  20  22
DOCKED: ENDBRANCH  19  20
DOCKED: ENDBRANCH   1  19
DOCKED: BRANCH   1  28
DOCKED: ATOM     28  O   UNL     1     135.061  68.156 224.169 -0.56 -0.05    -0.493 OA 
DOCKED: ATOM     29  H   UNL     1     134.230  67.797 224.613 +0.08 -0.01    +0.295 HD 
DOCKED: ENDBRANCH   1  28
DOCKED: TORSDOF 6
DOCKED: TER
DOCKED: ENDMDL
________________________________________________________________________________


    FINAL DOCKED STATE:
    ________________________


Run:   8 / 20
Time taken for this run:   0.028s

DOCKED: MODEL        8
DOCKED: USER    Run = 8
DOCKED: USER
DOCKED: USER    Estimated Free Energy of Binding    =  -7.38 kcal/mol  [=(1)+(2)+(3)-(4)]
DOCKED: USER
DOCKED: USER    (1) Final Intermolecular Energy     =  -9.17 kcal/mol
DOCKED: USER        vdW + Hbond + desolv Energy     =  -9.20 kcal/mol
DOCKED: USER        Electrostatic Energy            =  +0.02 kcal/mol
DOCKED: USER        Moving Ligand-Fixed Receptor    =  -9.17 kcal/mol
DOCKED: USER        Moving Ligand-Moving Receptor   =  +0.00 kcal/mol
DOCKED: USER    (2) Final Total Internal Energy     =  -1.57 kcal/mol
DOCKED: USER    (3) Torsional Free Energy           =  +1.79 kcal/mol
DOCKED: USER    (4) Unbound System's Energy         =  -1.57 kcal/mol
DOCKED: USER
DOCKED: USER
DOCKED: REMARK SMILES [H]/N=c1\[n-]c2nc3ccccn3c(=O)c2cc1/C(O)=N/[C@@H](C)c1ccccc1
DOCKED: REMARK SMILES IDX 18 1 17 2 3 3 4 4 5 5 16 6 6 7 15 8 7 9 13 10 8 11 12 12
DOCKED: REMARK SMILES IDX 9 13 11 14 10 15 14 16 2 17 1 18 20 19 21 20 22 21 23 22
DOCKED: REMARK SMILES IDX 24 23 28 24 25 25 27 26 26 27 19 28
DOCKED: REMARK H PARENT 19 29
DOCKED: USER                              x       y       z     vdW  Elec       q    Type
DOCKED: USER                           _______ _______ _______ _____ _____    ______ ____
DOCKED: ROOT
DOCKED: ATOM      1  C   UNL     1     135.855  69.804 224.449 -0.15 -0.02    +0.215 C  
DOCKED: ENDROOT
DOCKED: BRANCH   1   2
DOCKED: ATOM      2  C   UNL     1     135.031  70.780 225.215 -0.16 -0.00    +0.049 A  
DOCKED: ATOM      3  C   UNL     1     134.097  70.373 226.200 -0.33 -0.00    +0.015 A  
DOCKED: ATOM      4  N   UNL     1     133.361  71.305 226.864 -0.20 +0.03    -0.357 NA 
DOCKED: ATOM      5  C   UNL     1     133.481  72.634 226.623 -0.38 -0.00    +0.025 A  
DOCKED: ATOM      6  C   UNL     1     135.167  72.160 224.962 -0.10 -0.00    +0.029 A  
DOCKED: ATOM      7  N   UNL     1     132.721  73.516 227.313 -0.56 +0.02    -0.345 NA 
DOCKED: ATOM      8  C   UNL     1     134.392  73.097 225.665 -0.24 +0.00    +0.054 A  
DOCKED: ATOM      9  C   UNL     1     132.816  74.853 227.098 -0.36 +0.00    +0.069 A  
DOCKED: ATOM     10  C   UNL     1     134.489  74.483 225.444 -0.23 -0.01    +0.263 A  
DOCKED: ATOM     11  C   UNL     1     132.006  75.719 227.840 -0.32 +0.00    +0.030 A  
DOCKED: ATOM     12  N   UNL     1     133.700  75.350 226.163 -0.21 +0.00    -0.281 N  
DOCKED: ATOM     13  C   UNL     1     132.093  77.093 227.631 -0.33 +0.00    +0.004 A  
DOCKED: ATOM     14  C   UNL     1     133.785  76.705 225.958 -0.24 -0.01    +0.095 A  
DOCKED: ATOM     15  C   UNL     1     132.985  77.590 226.686 -0.27 -0.00    +0.019 A  
DOCKED: ATOM     16  O   UNL     1     135.304  74.921 224.583 -0.26 +0.04    -0.268 OA 
DOCKED: BRANCH   3  17
DOCKED: ATOM     17  N   UNL     1     133.943  69.122 226.496 -0.62 -0.02    -0.412 NA 
DOCKED: ATOM     18  H   UNL     1     133.831  68.392 225.755 +0.02 -0.00    +0.076 HD 
DOCKED: ENDBRANCH   3  17
DOCKED: ENDBRANCH   1   2
DOCKED: BRANCH   1  19
DOCKED: ATOM     19  N   UNL     1     137.024  70.176 223.999 -0.12 +0.03    -0.243 NA 
DOCKED: BRANCH  19  20
DOCKED: ATOM     20  C   UNL     1     138.306  69.463 224.063 -0.25 -0.02    +0.136 C  
DOCKED: ATOM     21  C   UNL     1     139.017  69.507 222.701 -0.20 -0.01    +0.038 C  
DOCKED: BRANCH  20  22
DOCKED: ATOM     22  C   UNL     1     139.131  69.903 225.267 -0.39 +0.00    -0.024 A  
DOCKED: ATOM     23  C   UNL     1     139.100  69.226 226.506 -0.45 -0.00    +0.006 A  
DOCKED: ATOM     24  C   UNL     1     139.924  71.059 225.152 -0.49 -0.00    +0.006 A  
DOCKED: ATOM     25  C   UNL     1     139.864  69.685 227.583 -0.60 -0.00    +0.000 A  
DOCKED: ATOM     26  C   UNL     1     140.686  71.513 226.233 -0.66 -0.00    +0.000 A  
DOCKED: ATOM     27  C   UNL     1     140.657  70.826 227.447 -0.69 -0.00    +0.000 A  
DOCKED: ENDBRANCH  20  22
DOCKED: ENDBRANCH  19  20
DOCKED: ENDBRANCH   1  19
DOCKED: BRANCH   1  28
DOCKED: ATOM     28  O   UNL     1     135.354  68.520 224.218 -0.49 -0.02    -0.493 OA 
DOCKED: ATOM     29  H   UNL     1     134.509  68.157 224.632 +0.09 +0.00    +0.295 HD 
DOCKED: ENDBRANCH   1  28
DOCKED: TORSDOF 6
DOCKED: TER
DOCKED: ENDMDL
________________________________________________________________________________


    FINAL DOCKED STATE:
    ________________________


Run:   9 / 20
Time taken for this run:   0.028s

DOCKED: MODEL        9
DOCKED: USER    Run = 9
DOCKED: USER
DOCKED: USER    Estimated Free Energy of Binding    =  -7.57 kcal/mol  [=(1)+(2)+(3)-(4)]
DOCKED: USER
DOCKED: USER    (1) Final Intermolecular Energy     =  -9.36 kcal/mol
DOCKED: USER        vdW + Hbond + desolv Energy     =  -9.34 kcal/mol
DOCKED: USER        Electrostatic Energy            =  -0.02 kcal/mol
DOCKED: USER        Moving Ligand-Fixed Receptor    =  -9.36 kcal/mol
DOCKED: USER        Moving Ligand-Moving Receptor   =  +0.00 kcal/mol
DOCKED: USER    (2) Final Total Internal Energy     =  -1.63 kcal/mol
DOCKED: USER    (3) Torsional Free Energy           =  +1.79 kcal/mol
DOCKED: USER    (4) Unbound System's Energy         =  -1.63 kcal/mol
DOCKED: USER
DOCKED: USER
DOCKED: REMARK SMILES [H]/N=c1\[n-]c2nc3ccccn3c(=O)c2cc1/C(O)=N/[C@@H](C)c1ccccc1
DOCKED: REMARK SMILES IDX 18 1 17 2 3 3 4 4 5 5 16 6 6 7 15 8 7 9 13 10 8 11 12 12
DOCKED: REMARK SMILES IDX 9 13 11 14 10 15 14 16 2 17 1 18 20 19 21 20 22 21 23 22
DOCKED: REMARK SMILES IDX 24 23 28 24 25 25 27 26 26 27 19 28
DOCKED: REMARK H PARENT 19 29
DOCKED: USER                              x       y       z     vdW  Elec       q    Type
DOCKED: USER                           _______ _______ _______ _____ _____    ______ ____
DOCKED: ROOT
DOCKED: ATOM      1  C   UNL     1     135.634  69.385 224.501 -0.15 -0.01    +0.215 C  
DOCKED: ENDROOT
DOCKED: BRANCH   1   2
DOCKED: ATOM      2  C   UNL     1     134.839  70.405 225.242 -0.21 -0.00    +0.049 A  
DOCKED: ATOM      3  C   UNL     1     133.842  70.049 226.183 -0.31 -0.00    +0.015 A  
DOCKED: ATOM      4  N   UNL     1     133.136  71.020 226.825 -0.19 +0.03    -0.357 NA 
DOCKED: ATOM      5  C   UNL     1     133.346  72.341 226.600 -0.38 -0.00    +0.025 A  
DOCKED: ATOM      6  C   UNL     1     135.069  71.775 225.006 -0.13 -0.00    +0.029 A  
DOCKED: ATOM      7  N   UNL     1     132.613  73.262 227.266 -0.44 +0.03    -0.345 NA 
DOCKED: ATOM      8  C   UNL     1     134.323  72.753 225.684 -0.26 -0.00    +0.054 A  
DOCKED: ATOM      9  C   UNL     1     132.798  74.593 227.067 -0.35 +0.00    +0.069 A  
DOCKED: ATOM     10  C   UNL     1     134.512  74.132 225.480 -0.20 -0.00    +0.263 A  
DOCKED: ATOM     11  C   UNL     1     132.011  75.502 227.782 -0.34 +0.00    +0.030 A  
DOCKED: ATOM     12  N   UNL     1     133.748  75.041 226.173 -0.21 -0.01    -0.281 N  
DOCKED: ATOM     13  C   UNL     1     132.189  76.869 227.589 -0.34 +0.00    +0.004 A  
DOCKED: ATOM     14  C   UNL     1     133.922  76.390 225.984 -0.29 -0.01    +0.095 A  
DOCKED: ATOM     15  C   UNL     1     133.149  77.317 226.686 -0.30 -0.00    +0.019 A  
DOCKED: ATOM     16  O   UNL     1     135.387  74.525 224.657 -0.26 +0.05    -0.268 OA 
DOCKED: BRANCH   3  17
DOCKED: ATOM     17  N   UNL     1     133.600  68.808 226.462 -0.65 -0.04    -0.412 NA 
DOCKED: ATOM     18  H   UNL     1     134.268  68.047 226.202 +0.01 -0.00    +0.076 HD 
DOCKED: ENDBRANCH   3  17
DOCKED: ENDBRANCH   1   2
DOCKED: BRANCH   1  19
DOCKED: ATOM     19  N   UNL     1     136.858  69.671 224.146 -0.12 +0.02    -0.243 NA 
DOCKED: BRANCH  19  20
DOCKED: ATOM     20  C   UNL     1     138.090  68.909 224.388 -0.26 -0.01    +0.136 C  
DOCKED: ATOM     21  C   UNL     1     138.725  68.473 223.059 -0.24 -0.01    +0.038 C  
DOCKED: BRANCH  20  22
DOCKED: ATOM     22  C   UNL     1     139.008  69.629 225.369 -0.39 +0.00    -0.024 A  
DOCKED: ATOM     23  C   UNL     1     139.193  69.201 226.702 -0.48 -0.00    +0.006 A  
DOCKED: ATOM     24  C   UNL     1     139.669  70.795 224.940 -0.45 -0.00    +0.006 A  
DOCKED: ATOM     25  C   UNL     1     140.034  69.910 227.565 -0.61 -0.00    +0.000 A  
DOCKED: ATOM     26  C   UNL     1     140.509  71.500 225.807 -0.59 -0.00    +0.000 A  
DOCKED: ATOM     27  C   UNL     1     140.692  71.057 227.117 -0.70 -0.00    +0.000 A  
DOCKED: ENDBRANCH  20  22
DOCKED: ENDBRANCH  19  20
DOCKED: ENDBRANCH   1  19
DOCKED: BRANCH   1  28
DOCKED: ATOM     28  O   UNL     1     135.048  68.154 224.192 -0.57 -0.05    -0.493 OA 
DOCKED: ATOM     29  H   UNL     1     134.210  67.799 224.628 +0.08 -0.01    +0.295 HD 
DOCKED: ENDBRANCH   1  28
DOCKED: TORSDOF 6
DOCKED: TER
DOCKED: ENDMDL
________________________________________________________________________________


    FINAL DOCKED STATE:
    ________________________


Run:   10 / 20
Time taken for this run:   0.028s

DOCKED: MODEL        10
DOCKED: USER    Run = 10
DOCKED: USER
DOCKED: USER    Estimated Free Energy of Binding    =  -7.57 kcal/mol  [=(1)+(2)+(3)-(4)]
DOCKED: USER
DOCKED: USER    (1) Final Intermolecular Energy     =  -9.36 kcal/mol
DOCKED: USER        vdW + Hbond + desolv Energy     =  -9.39 kcal/mol
DOCKED: USER        Electrostatic Energy            =  +0.02 kcal/mol
DOCKED: USER        Moving Ligand-Fixed Receptor    =  -9.36 kcal/mol
DOCKED: USER        Moving Ligand-Moving Receptor   =  +0.00 kcal/mol
DOCKED: USER    (2) Final Total Internal Energy     =  -1.46 kcal/mol
DOCKED: USER    (3) Torsional Free Energy           =  +1.79 kcal/mol
DOCKED: USER    (4) Unbound System's Energy         =  -1.46 kcal/mol
DOCKED: USER
DOCKED: USER
DOCKED: REMARK SMILES [H]/N=c1\[n-]c2nc3ccccn3c(=O)c2cc1/C(O)=N/[C@@H](C)c1ccccc1
DOCKED: REMARK SMILES IDX 18 1 17 2 3 3 4 4 5 5 16 6 6 7 15 8 7 9 13 10 8 11 12 12
DOCKED: REMARK SMILES IDX 9 13 11 14 10 15 14 16 2 17 1 18 20 19 21 20 22 21 23 22
DOCKED: REMARK SMILES IDX 24 23 28 24 25 25 27 26 26 27 19 28
DOCKED: REMARK H PARENT 19 29
DOCKED: USER                              x       y       z     vdW  Elec       q    Type
DOCKED: USER                           _______ _______ _______ _____ _____    ______ ____
DOCKED: ROOT
DOCKED: ATOM      1  C   UNL     1     135.660  69.519 224.560 -0.15 -0.01    +0.215 C  
DOCKED: ENDROOT
DOCKED: BRANCH   1   2
DOCKED: ATOM      2  C   UNL     1     134.805  70.481 225.312 -0.21 -0.00    +0.049 A  
DOCKED: ATOM      3  C   UNL     1     133.777  70.054 226.189 -0.31 -0.00    +0.015 A  
DOCKED: ATOM      4  N   UNL     1     133.018  70.974 226.844 -0.19 +0.03    -0.357 NA 
DOCKED: ATOM      5  C   UNL     1     133.202  72.309 226.694 -0.39 -0.00    +0.025 A  
DOCKED: ATOM      6  C   UNL     1     135.008  71.866 225.155 -0.06 -0.00    +0.029 A  
DOCKED: ATOM      7  N   UNL     1     132.415  73.178 227.370 -0.32 +0.05    -0.345 NA 
DOCKED: ATOM      8  C   UNL     1     134.207  72.791 225.845 -0.27 -0.00    +0.054 A  
DOCKED: ATOM      9  C   UNL     1     132.572  74.521 227.244 -0.37 -0.00    +0.069 A  
DOCKED: ATOM     10  C   UNL     1     134.368  74.182 225.717 -0.22 +0.00    +0.263 A  
DOCKED: ATOM     11  C   UNL     1     131.730  75.373 227.966 -0.34 -0.00    +0.030 A  
DOCKED: ATOM     12  N   UNL     1     133.549  75.036 226.418 -0.21 -0.01    -0.281 N  
DOCKED: ATOM     13  C   UNL     1     131.881  76.752 227.848 -0.33 +0.00    +0.004 A  
DOCKED: ATOM     14  C   UNL     1     133.696  76.397 226.303 -0.31 -0.01    +0.095 A  
DOCKED: ATOM     15  C   UNL     1     132.867  77.269 227.013 -0.32 -0.00    +0.019 A  
DOCKED: ATOM     16  O   UNL     1     135.268  74.637 224.955 -0.29 +0.03    -0.268 OA 
DOCKED: BRANCH   3  17
DOCKED: ATOM     17  N   UNL     1     133.557  68.794 226.395 -0.65 -0.03    -0.412 NA 
DOCKED: ATOM     18  H   UNL     1     133.624  68.092 225.624 +0.02 -0.01    +0.076 HD 
DOCKED: ENDBRANCH   3  17
DOCKED: ENDBRANCH   1   2
DOCKED: BRANCH   1  19
DOCKED: ATOM     19  N   UNL     1     136.922  69.802 224.376 -0.13 +0.02    -0.243 NA 
DOCKED: BRANCH  19  20
DOCKED: ATOM     20  C   UNL     1     138.105  68.993 224.697 -0.27 -0.01    +0.136 C  
DOCKED: ATOM     21  C   UNL     1     138.717  68.401 223.419 -0.27 -0.01    +0.038 C  
DOCKED: BRANCH  20  22
DOCKED: ATOM     22  C   UNL     1     139.061  69.742 225.618 -0.38 +0.00    -0.024 A  
DOCKED: ATOM     23  C   UNL     1     139.810  70.862 225.198 -0.47 -0.00    +0.006 A  
DOCKED: ATOM     24  C   UNL     1     139.235  69.271 226.932 -0.49 -0.00    +0.006 A  
DOCKED: ATOM     25  C   UNL     1     140.687  71.500 226.081 -0.64 -0.00    +0.000 A  
DOCKED: ATOM     26  C   UNL     1     140.113  69.913 227.811 -0.63 -0.00    +0.000 A  
DOCKED: ATOM     27  C   UNL     1     140.837  71.027 227.386 -0.71 -0.00    +0.000 A  
DOCKED: ENDBRANCH  20  22
DOCKED: ENDBRANCH  19  20
DOCKED: ENDBRANCH   1  19
DOCKED: BRANCH   1  28
DOCKED: ATOM     28  O   UNL     1     135.089  68.346 224.058 -0.55 -0.02    -0.493 OA 
DOCKED: ATOM     29  H   UNL     1     134.281  67.892 224.457 +0.08 -0.01    +0.295 HD 
DOCKED: ENDBRANCH   1  28
DOCKED: TORSDOF 6
DOCKED: TER
DOCKED: ENDMDL
________________________________________________________________________________


    FINAL DOCKED STATE:
    ________________________


Run:   11 / 20
Time taken for this run:   0.028s

DOCKED: MODEL        11
DOCKED: USER    Run = 11
DOCKED: USER
DOCKED: USER    Estimated Free Energy of Binding    =  -5.97 kcal/mol  [=(1)+(2)+(3)-(4)]
DOCKED: USER
DOCKED: USER    (1) Final Intermolecular Energy     =  -7.76 kcal/mol
DOCKED: USER        vdW + Hbond + desolv Energy     =  -8.05 kcal/mol
DOCKED: USER        Electrostatic Energy            =  +0.28 kcal/mol
DOCKED: USER        Moving Ligand-Fixed Receptor    =  -7.76 kcal/mol
DOCKED: USER        Moving Ligand-Moving Receptor   =  +0.00 kcal/mol
DOCKED: USER    (2) Final Total Internal Energy     =  -2.31 kcal/mol
DOCKED: USER    (3) Torsional Free Energy           =  +1.79 kcal/mol
DOCKED: USER    (4) Unbound System's Energy         =  -2.31 kcal/mol
DOCKED: USER
DOCKED: USER
DOCKED: REMARK SMILES [H]/N=c1\[n-]c2nc3ccccn3c(=O)c2cc1/C(O)=N/[C@@H](C)c1ccccc1
DOCKED: REMARK SMILES IDX 18 1 17 2 3 3 4 4 5 5 16 6 6 7 15 8 7 9 13 10 8 11 12 12
DOCKED: REMARK SMILES IDX 9 13 11 14 10 15 14 16 2 17 1 18 20 19 21 20 22 21 23 22
DOCKED: REMARK SMILES IDX 24 23 28 24 25 25 27 26 26 27 19 28
DOCKED: REMARK H PARENT 19 29
DOCKED: USER                              x       y       z     vdW  Elec       q    Type
DOCKED: USER                           _______ _______ _______ _____ _____    ______ ____
DOCKED: ROOT
DOCKED: ATOM      1  C   UNL     1     137.433  78.776 222.395 -0.13 -0.03    +0.215 C  
DOCKED: ENDROOT
DOCKED: BRANCH   1   2
DOCKED: ATOM      2  C   UNL     1     138.291  77.576 222.180 -0.23 -0.01    +0.049 A  
DOCKED: ATOM      3  C   UNL     1     137.918  76.288 222.639 -0.29 -0.00    +0.015 A  
DOCKED: ATOM      4  N   UNL     1     138.742  75.227 222.427 -0.18 +0.10    -0.357 NA 
DOCKED: ATOM      5  C   UNL     1     139.930  75.345 221.782 -0.31 -0.00    +0.025 A  
DOCKED: ATOM      6  C   UNL     1     139.520  77.708 221.504 -0.21 -0.01    +0.029 A  
DOCKED: ATOM      7  N   UNL     1     140.709  74.254 221.601 -0.49 +0.04    -0.345 NA 
DOCKED: ATOM      8  C   UNL     1     140.348  76.592 221.301 -0.27 -0.02    +0.054 A  
DOCKED: ATOM      9  C   UNL     1     141.903  74.336 220.959 -0.24 -0.02    +0.069 A  
DOCKED: ATOM     10  C   UNL     1     141.586  76.674 220.637 -0.16 -0.13    +0.263 A  
DOCKED: ATOM     11  C   UNL     1     142.669  73.177 220.801 -0.27 -0.00    +0.030 A  
DOCKED: ATOM     12  N   UNL     1     142.354  75.545 220.471 -0.16 +0.14    -0.281 N  
DOCKED: ATOM     13  C   UNL     1     143.895  73.245 220.144 -0.36 -0.00    +0.004 A  
DOCKED: ATOM     14  C   UNL     1     143.563  75.611 219.824 -0.35 -0.06    +0.095 A  
DOCKED: ATOM     15  C   UNL     1     144.346  74.467 219.653 -0.35 -0.01    +0.019 A  
DOCKED: ATOM     16  O   UNL     1     141.983  77.790 220.195 -0.21 +0.17    -0.268 OA 
DOCKED: BRANCH   3  17
DOCKED: ATOM     17  N   UNL     1     136.789  76.097 223.245 -0.12 +0.10    -0.412 NA 
DOCKED: ATOM     18  H   UNL     1     136.412  76.789 223.932 +0.01 -0.01    +0.076 HD 
DOCKED: ENDBRANCH   3  17
DOCKED: ENDBRANCH   1   2
DOCKED: BRANCH   1  19
DOCKED: ATOM     19  N   UNL     1     137.942  79.962 222.194 -0.08 +0.04    -0.243 NA 
DOCKED: BRANCH  19  20
DOCKED: ATOM     20  C   UNL     1     138.703  80.808 223.122 -0.26 -0.02    +0.136 C  
DOCKED: ATOM     21  C   UNL     1     138.047  80.812 224.511 -0.38 -0.00    +0.038 C  
DOCKED: BRANCH  20  22
DOCKED: ATOM     22  C   UNL     1     140.192  80.484 223.081 -0.40 +0.00    -0.024 A  
DOCKED: ATOM     23  C   UNL     1     141.105  81.174 222.255 -0.42 -0.00    +0.006 A  
DOCKED: ATOM     24  C   UNL     1     140.670  79.421 223.870 -0.50 -0.00    +0.006 A  
DOCKED: ATOM     25  C   UNL     1     142.457  80.822 222.244 -0.51 -0.00    +0.000 A  
DOCKED: ATOM     26  C   UNL     1     142.024  79.073 223.855 -0.59 -0.00    +0.000 A  
DOCKED: ATOM     27  C   UNL     1     142.917  79.774 223.044 -0.63 -0.00    +0.000 A  
DOCKED: ENDBRANCH  20  22
DOCKED: ENDBRANCH  19  20
DOCKED: ENDBRANCH   1  19
DOCKED: BRANCH   1  28
DOCKED: ATOM     28  O   UNL     1     136.112  78.605 222.818 -0.04 +0.07    -0.493 OA 
DOCKED: ATOM     29  H   UNL     1     135.630  77.719 222.830 +0.07 -0.04    +0.295 HD 
DOCKED: ENDBRANCH   1  28
DOCKED: TORSDOF 6
DOCKED: TER
DOCKED: ENDMDL
________________________________________________________________________________


    FINAL DOCKED STATE:
    ________________________


Run:   12 / 20
Time taken for this run:   0.028s

DOCKED: MODEL        12
DOCKED: USER    Run = 12
DOCKED: USER
DOCKED: USER    Estimated Free Energy of Binding    =  -7.60 kcal/mol  [=(1)+(2)+(3)-(4)]
DOCKED: USER
DOCKED: USER    (1) Final Intermolecular Energy     =  -9.39 kcal/mol
DOCKED: USER        vdW + Hbond + desolv Energy     =  -9.37 kcal/mol
DOCKED: USER        Electrostatic Energy            =  -0.02 kcal/mol
DOCKED: USER        Moving Ligand-Fixed Receptor    =  -9.39 kcal/mol
DOCKED: USER        Moving Ligand-Moving Receptor   =  +0.00 kcal/mol
DOCKED: USER    (2) Final Total Internal Energy     =  -1.63 kcal/mol
DOCKED: USER    (3) Torsional Free Energy           =  +1.79 kcal/mol
DOCKED: USER    (4) Unbound System's Energy         =  -1.63 kcal/mol
DOCKED: USER
DOCKED: USER
DOCKED: REMARK SMILES [H]/N=c1\[n-]c2nc3ccccn3c(=O)c2cc1/C(O)=N/[C@@H](C)c1ccccc1
DOCKED: REMARK SMILES IDX 18 1 17 2 3 3 4 4 5 5 16 6 6 7 15 8 7 9 13 10 8 11 12 12
DOCKED: REMARK SMILES IDX 9 13 11 14 10 15 14 16 2 17 1 18 20 19 21 20 22 21 23 22
DOCKED: REMARK SMILES IDX 24 23 28 24 25 25 27 26 26 27 19 28
DOCKED: REMARK H PARENT 19 29
DOCKED: USER                              x       y       z     vdW  Elec       q    Type
DOCKED: USER                           _______ _______ _______ _____ _____    ______ ____
DOCKED: ROOT
DOCKED: ATOM      1  C   UNL     1     135.640  69.385 224.507 -0.15 -0.01    +0.215 C  
DOCKED: ENDROOT
DOCKED: BRANCH   1   2
DOCKED: ATOM      2  C   UNL     1     134.844  70.411 225.238 -0.21 -0.00    +0.049 A  
DOCKED: ATOM      3  C   UNL     1     133.842  70.063 226.177 -0.31 -0.00    +0.015 A  
DOCKED: ATOM      4  N   UNL     1     133.136  71.039 226.810 -0.19 +0.03    -0.357 NA 
DOCKED: ATOM      5  C   UNL     1     133.352  72.358 226.580 -0.38 -0.00    +0.025 A  
DOCKED: ATOM      6  C   UNL     1     135.080  71.779 224.998 -0.13 -0.00    +0.029 A  
DOCKED: ATOM      7  N   UNL     1     132.618  73.285 227.238 -0.45 +0.03    -0.345 NA 
DOCKED: ATOM      8  C   UNL     1     134.334  72.763 225.667 -0.26 -0.00    +0.054 A  
DOCKED: ATOM      9  C   UNL     1     132.808  74.614 227.033 -0.35 +0.00    +0.069 A  
DOCKED: ATOM     10  C   UNL     1     134.529  74.141 225.457 -0.20 -0.01    +0.263 A  
DOCKED: ATOM     11  C   UNL     1     132.020  75.529 227.740 -0.35 +0.00    +0.030 A  
DOCKED: ATOM     12  N   UNL     1     133.764  75.055 226.142 -0.21 -0.00    -0.281 N  
DOCKED: ATOM     13  C   UNL     1     132.204  76.895 227.541 -0.34 +0.00    +0.004 A  
DOCKED: ATOM     14  C   UNL     1     133.944  76.402 225.947 -0.28 -0.01    +0.095 A  
DOCKED: ATOM     15  C   UNL     1     133.169  77.336 226.641 -0.29 -0.00    +0.019 A  
DOCKED: ATOM     16  O   UNL     1     135.409  74.527 224.637 -0.26 +0.05    -0.268 OA 
DOCKED: BRANCH   3  17
DOCKED: ATOM     17  N   UNL     1     133.595  68.824 226.460 -0.65 -0.04    -0.412 NA 
DOCKED: ATOM     18  H   UNL     1     134.261  68.059 226.207 +0.01 -0.00    +0.076 HD 
DOCKED: ENDBRANCH   3  17
DOCKED: ENDBRANCH   1   2
DOCKED: BRANCH   1  19
DOCKED: ATOM     19  N   UNL     1     136.867  69.666 224.156 -0.12 +0.02    -0.243 NA 
DOCKED: BRANCH  19  20
DOCKED: ATOM     20  C   UNL     1     138.100  68.918 224.436 -0.26 -0.01    +0.136 C  
DOCKED: ATOM     21  C   UNL     1     138.733  68.412 223.131 -0.25 -0.01    +0.038 C  
DOCKED: BRANCH  20  22
DOCKED: ATOM     22  C   UNL     1     139.019  69.689 225.376 -0.39 +0.00    -0.024 A  
DOCKED: ATOM     23  C   UNL     1     139.731  70.842 224.978 -0.46 -0.00    +0.006 A  
DOCKED: ATOM     24  C   UNL     1     139.199  69.207 226.686 -0.48 -0.00    +0.006 A  
DOCKED: ATOM     25  C   UNL     1     140.575  71.500 225.878 -0.60 -0.00    +0.000 A  
DOCKED: ATOM     26  C   UNL     1     140.044  69.869 227.581 -0.61 -0.00    +0.000 A  
DOCKED: ATOM     27  C   UNL     1     140.730  71.015 227.178 -0.70 -0.00    +0.000 A  
DOCKED: ENDBRANCH  20  22
DOCKED: ENDBRANCH  19  20
DOCKED: ENDBRANCH   1  19
DOCKED: BRANCH   1  28
DOCKED: ATOM     28  O   UNL     1     135.052  68.155 224.201 -0.57 -0.05    -0.493 OA 
DOCKED: ATOM     29  H   UNL     1     134.206  67.808 224.629 +0.08 -0.01    +0.295 HD 
DOCKED: ENDBRANCH   1  28
DOCKED: TORSDOF 6
DOCKED: TER
DOCKED: ENDMDL
________________________________________________________________________________


    FINAL DOCKED STATE:
    ________________________


Run:   13 / 20
Time taken for this run:   0.028s

DOCKED: MODEL        13
DOCKED: USER    Run = 13
DOCKED: USER
DOCKED: USER    Estimated Free Energy of Binding    =  -7.57 kcal/mol  [=(1)+(2)+(3)-(4)]
DOCKED: USER
DOCKED: USER    (1) Final Intermolecular Energy     =  -9.36 kcal/mol
DOCKED: USER        vdW + Hbond + desolv Energy     =  -9.34 kcal/mol
DOCKED: USER        Electrostatic Energy            =  -0.02 kcal/mol
DOCKED: USER        Moving Ligand-Fixed Receptor    =  -9.36 kcal/mol
DOCKED: USER        Moving Ligand-Moving Receptor   =  +0.00 kcal/mol
DOCKED: USER    (2) Final Total Internal Energy     =  -1.60 kcal/mol
DOCKED: USER    (3) Torsional Free Energy           =  +1.79 kcal/mol
DOCKED: USER    (4) Unbound System's Energy         =  -1.60 kcal/mol
DOCKED: USER
DOCKED: USER
DOCKED: REMARK SMILES [H]/N=c1\[n-]c2nc3ccccn3c(=O)c2cc1/C(O)=N/[C@@H](C)c1ccccc1
DOCKED: REMARK SMILES IDX 18 1 17 2 3 3 4 4 5 5 16 6 6 7 15 8 7 9 13 10 8 11 12 12
DOCKED: REMARK SMILES IDX 9 13 11 14 10 15 14 16 2 17 1 18 20 19 21 20 22 21 23 22
DOCKED: REMARK SMILES IDX 24 23 28 24 25 25 27 26 26 27 19 28
DOCKED: REMARK H PARENT 19 29
DOCKED: USER                              x       y       z     vdW  Elec       q    Type
DOCKED: USER                           _______ _______ _______ _____ _____    ______ ____
DOCKED: ROOT
DOCKED: ATOM      1  C   UNL     1     135.645  69.390 224.470 -0.15 -0.01    +0.215 C  
DOCKED: ENDROOT
DOCKED: BRANCH   1   2
DOCKED: ATOM      2  C   UNL     1     134.856  70.404 225.227 -0.21 -0.00    +0.049 A  
DOCKED: ATOM      3  C   UNL     1     133.877  70.040 226.184 -0.31 -0.00    +0.015 A  
DOCKED: ATOM      4  N   UNL     1     133.177  71.005 226.839 -0.20 +0.03    -0.357 NA 
DOCKED: ATOM      5  C   UNL     1     133.376  72.328 226.615 -0.38 -0.00    +0.025 A  
DOCKED: ATOM      6  C   UNL     1     135.074  71.776 224.991 -0.14 -0.00    +0.029 A  
DOCKED: ATOM      7  N   UNL     1     132.648  73.244 227.296 -0.45 +0.03    -0.345 NA 
DOCKED: ATOM      8  C   UNL     1     134.334  72.748 225.684 -0.26 -0.00    +0.054 A  
DOCKED: ATOM      9  C   UNL     1     132.822  74.576 227.097 -0.35 +0.00    +0.069 A  
DOCKED: ATOM     10  C   UNL     1     134.512  74.129 225.480 -0.20 -0.00    +0.263 A  
DOCKED: ATOM     11  C   UNL     1     132.042  75.478 227.827 -0.33 +0.00    +0.030 A  
DOCKED: ATOM     12  N   UNL     1     133.755  75.032 226.188 -0.21 -0.01    -0.281 N  
DOCKED: ATOM     13  C   UNL     1     132.210  76.847 227.635 -0.34 +0.00    +0.004 A  
DOCKED: ATOM     14  C   UNL     1     133.919  76.381 226.000 -0.29 -0.01    +0.095 A  
DOCKED: ATOM     15  C   UNL     1     133.151  77.303 226.717 -0.30 -0.00    +0.019 A  
DOCKED: ATOM     16  O   UNL     1     135.372  74.529 224.644 -0.26 +0.05    -0.268 OA 
DOCKED: BRANCH   3  17
DOCKED: ATOM     17  N   UNL     1     133.647  68.796 226.463 -0.65 -0.03    -0.412 NA 
DOCKED: ATOM     18  H   UNL     1     134.332  68.044 226.224 +0.01 -0.00    +0.076 HD 
DOCKED: ENDBRANCH   3  17
DOCKED: ENDBRANCH   1   2
DOCKED: BRANCH   1  19
DOCKED: ATOM     19  N   UNL     1     136.848  69.698 224.063 -0.12 +0.03    -0.243 NA 
DOCKED: BRANCH  19  20
DOCKED: ATOM     20  C   UNL     1     138.050  68.856 224.023 -0.23 -0.01    +0.136 C  
DOCKED: ATOM     21  C   UNL     1     138.714  68.928 222.639 -0.21 -0.01    +0.038 C  
DOCKED: BRANCH  20  22
DOCKED: ATOM     22  C   UNL     1     138.957  69.120 225.220 -0.40 +0.00    -0.024 A  
DOCKED: ATOM     23  C   UNL     1     139.552  70.376 225.469 -0.44 -0.00    +0.006 A  
DOCKED: ATOM     24  C   UNL     1     139.247  68.054 226.091 -0.56 -0.00    +0.006 A  
DOCKED: ATOM     25  C   UNL     1     140.390  70.556 226.573 -0.59 -0.00    +0.000 A  
DOCKED: ATOM     26  C   UNL     1     140.086  68.240 227.194 -0.66 -0.00    +0.000 A  
DOCKED: ATOM     27  C   UNL     1     140.656  69.490 227.435 -0.61 -0.00    +0.000 A  
DOCKED: ENDBRANCH  20  22
DOCKED: ENDBRANCH  19  20
DOCKED: ENDBRANCH   1  19
DOCKED: BRANCH   1  28
DOCKED: ATOM     28  O   UNL     1     135.074  68.143 224.202 -0.56 -0.05    -0.493 OA 
DOCKED: ATOM     29  H   UNL     1     134.224  67.804 224.626 +0.08 -0.01    +0.295 HD 
DOCKED: ENDBRANCH   1  28
DOCKED: TORSDOF 6
DOCKED: TER
DOCKED: ENDMDL
________________________________________________________________________________


    FINAL DOCKED STATE:
    ________________________


Run:   14 / 20
Time taken for this run:   0.028s

DOCKED: MODEL        14
DOCKED: USER    Run = 14
DOCKED: USER
DOCKED: USER    Estimated Free Energy of Binding    =  -5.93 kcal/mol  [=(1)+(2)+(3)-(4)]
DOCKED: USER
DOCKED: USER    (1) Final Intermolecular Energy     =  -7.72 kcal/mol
DOCKED: USER        vdW + Hbond + desolv Energy     =  -7.99 kcal/mol
DOCKED: USER        Electrostatic Energy            =  +0.27 kcal/mol
DOCKED: USER        Moving Ligand-Fixed Receptor    =  -7.72 kcal/mol
DOCKED: USER        Moving Ligand-Moving Receptor   =  +0.00 kcal/mol
DOCKED: USER    (2) Final Total Internal Energy     =  -2.41 kcal/mol
DOCKED: USER    (3) Torsional Free Energy           =  +1.79 kcal/mol
DOCKED: USER    (4) Unbound System's Energy         =  -2.41 kcal/mol
DOCKED: USER
DOCKED: USER
DOCKED: REMARK SMILES [H]/N=c1\[n-]c2nc3ccccn3c(=O)c2cc1/C(O)=N/[C@@H](C)c1ccccc1
DOCKED: REMARK SMILES IDX 18 1 17 2 3 3 4 4 5 5 16 6 6 7 15 8 7 9 13 10 8 11 12 12
DOCKED: REMARK SMILES IDX 9 13 11 14 10 15 14 16 2 17 1 18 20 19 21 20 22 21 23 22
DOCKED: REMARK SMILES IDX 24 23 28 24 25 25 27 26 26 27 19 28
DOCKED: REMARK H PARENT 19 29
DOCKED: USER                              x       y       z     vdW  Elec       q    Type
DOCKED: USER                           _______ _______ _______ _____ _____    ______ ____
DOCKED: ROOT
DOCKED: ATOM      1  C   UNL     1     137.437  79.041 222.178 -0.11 -0.03    +0.215 C  
DOCKED: ENDROOT
DOCKED: BRANCH   1   2
DOCKED: ATOM      2  C   UNL     1     138.290  77.826 222.035 -0.20 -0.01    +0.049 A  
DOCKED: ATOM      3  C   UNL     1     137.923  76.576 222.591 -0.29 -0.00    +0.015 A  
DOCKED: ATOM      4  N   UNL     1     138.742  75.499 222.441 -0.19 +0.09    -0.357 NA 
DOCKED: ATOM      5  C   UNL     1     139.919  75.569 221.770 -0.32 -0.00    +0.025 A  
DOCKED: ATOM      6  C   UNL     1     139.507  77.906 221.330 -0.19 -0.01    +0.029 A  
DOCKED: ATOM      7  N   UNL     1     140.694  74.466 221.654 -0.51 +0.04    -0.345 NA 
DOCKED: ATOM      8  C   UNL     1     140.331  76.777 221.193 -0.25 -0.02    +0.054 A  
DOCKED: ATOM      9  C   UNL     1     141.877  74.499 220.988 -0.25 -0.02    +0.069 A  
DOCKED: ATOM     10  C   UNL     1     141.557  76.809 220.504 -0.17 -0.13    +0.263 A  
DOCKED: ATOM     11  C   UNL     1     142.639  73.329 220.899 -0.23 -0.01    +0.030 A  
DOCKED: ATOM     12  N   UNL     1     142.320  75.669 220.407 -0.16 +0.14    -0.281 N  
DOCKED: ATOM     13  C   UNL     1     143.854  73.348 220.219 -0.37 -0.00    +0.004 A  
DOCKED: ATOM     14  C   UNL     1     143.518  75.686 219.736 -0.36 -0.06    +0.095 A  
DOCKED: ATOM     15  C   UNL     1     144.297  74.530 219.634 -0.34 -0.01    +0.019 A  
DOCKED: ATOM     16  O   UNL     1     141.948  77.889 219.978 -0.20 +0.17    -0.268 OA 
DOCKED: BRANCH   3  17
DOCKED: ATOM     17  N   UNL     1     136.805  76.431 223.229 -0.09 +0.09    -0.412 NA 
DOCKED: ATOM     18  H   UNL     1     136.325  77.240 223.685 +0.01 -0.01    +0.076 HD 
DOCKED: ENDBRANCH   3  17
DOCKED: ENDBRANCH   1   2
DOCKED: BRANCH   1  19
DOCKED: ATOM     19  N   UNL     1     138.005  80.217 222.174 -0.08 +0.04    -0.243 NA 
DOCKED: BRANCH  19  20
DOCKED: ATOM     20  C   UNL     1     138.768  80.876 223.242 -0.28 -0.02    +0.136 C  
DOCKED: ATOM     21  C   UNL     1     138.082  80.670 224.601 -0.37 -0.00    +0.038 C  
DOCKED: BRANCH  20  22
DOCKED: ATOM     22  C   UNL     1     140.248  80.520 223.173 -0.41 +0.00    -0.024 A  
DOCKED: ATOM     23  C   UNL     1     141.178  81.253 222.404 -0.44 -0.00    +0.006 A  
DOCKED: ATOM     24  C   UNL     1     140.699  79.386 223.873 -0.51 -0.00    +0.006 A  
DOCKED: ATOM     25  C   UNL     1     142.522  80.870 222.363 -0.52 -0.00    +0.000 A  
DOCKED: ATOM     26  C   UNL     1     142.045  79.008 223.829 -0.58 -0.00    +0.000 A  
DOCKED: ATOM     27  C   UNL     1     142.955  79.750 223.076 -0.63 -0.00    +0.000 A  
DOCKED: ENDBRANCH  20  22
DOCKED: ENDBRANCH  19  20
DOCKED: ENDBRANCH   1  19
DOCKED: BRANCH   1  28
DOCKED: ATOM     28  O   UNL     1     136.056  78.892 222.326 -0.02 +0.07    -0.493 OA 
DOCKED: ATOM     29  H   UNL     1     135.587  78.003 222.417 +0.06 -0.04    +0.295 HD 
DOCKED: ENDBRANCH   1  28
DOCKED: TORSDOF 6
DOCKED: TER
DOCKED: ENDMDL
________________________________________________________________________________


    FINAL DOCKED STATE:
    ________________________


Run:   15 / 20
Time taken for this run:   0.028s

DOCKED: MODEL        15
DOCKED: USER    Run = 15
DOCKED: USER
DOCKED: USER    Estimated Free Energy of Binding    =  -5.96 kcal/mol  [=(1)+(2)+(3)-(4)]
DOCKED: USER
DOCKED: USER    (1) Final Intermolecular Energy     =  -7.75 kcal/mol
DOCKED: USER        vdW + Hbond + desolv Energy     =  -8.02 kcal/mol
DOCKED: USER        Electrostatic Energy            =  +0.27 kcal/mol
DOCKED: USER        Moving Ligand-Fixed Receptor    =  -7.75 kcal/mol
DOCKED: USER        Moving Ligand-Moving Receptor   =  +0.00 kcal/mol
DOCKED: USER    (2) Final Total Internal Energy     =  -2.39 kcal/mol
DOCKED: USER    (3) Torsional Free Energy           =  +1.79 kcal/mol
DOCKED: USER    (4) Unbound System's Energy         =  -2.39 kcal/mol
DOCKED: USER
DOCKED: USER
DOCKED: REMARK SMILES [H]/N=c1\[n-]c2nc3ccccn3c(=O)c2cc1/C(O)=N/[C@@H](C)c1ccccc1
DOCKED: REMARK SMILES IDX 18 1 17 2 3 3 4 4 5 5 16 6 6 7 15 8 7 9 13 10 8 11 12 12
DOCKED: REMARK SMILES IDX 9 13 11 14 10 15 14 16 2 17 1 18 20 19 21 20 22 21 23 22
DOCKED: REMARK SMILES IDX 24 23 28 24 25 25 27 26 26 27 19 28
DOCKED: REMARK H PARENT 19 29
DOCKED: USER                              x       y       z     vdW  Elec       q    Type
DOCKED: USER                           _______ _______ _______ _____ _____    ______ ____
DOCKED: ROOT
DOCKED: ATOM      1  C   UNL     1     137.431  78.954 222.202 -0.12 -0.03    +0.215 C  
DOCKED: ENDROOT
DOCKED: BRANCH   1   2
DOCKED: ATOM      2  C   UNL     1     138.288  77.745 222.042 -0.21 -0.01    +0.049 A  
DOCKED: ATOM      3  C   UNL     1     137.922  76.482 222.569 -0.29 -0.00    +0.015 A  
DOCKED: ATOM      4  N   UNL     1     138.746  75.412 222.404 -0.19 +0.09    -0.357 NA 
DOCKED: ATOM      5  C   UNL     1     139.928  75.499 221.744 -0.32 -0.00    +0.025 A  
DOCKED: ATOM      6  C   UNL     1     139.511  77.844 221.349 -0.19 -0.01    +0.029 A  
DOCKED: ATOM      7  N   UNL     1     140.708  74.401 221.612 -0.49 +0.04    -0.345 NA 
DOCKED: ATOM      8  C   UNL     1     140.340  76.720 221.196 -0.25 -0.02    +0.054 A  
DOCKED: ATOM      9  C   UNL     1     141.896  74.452 220.956 -0.25 -0.02    +0.069 A  
DOCKED: ATOM     10  C   UNL     1     141.572  76.770 220.518 -0.17 -0.13    +0.263 A  
DOCKED: ATOM     11  C   UNL     1     142.663  73.287 220.850 -0.26 -0.01    +0.030 A  
DOCKED: ATOM     12  N   UNL     1     142.340  75.635 220.403 -0.16 +0.14    -0.281 N  
DOCKED: ATOM     13  C   UNL     1     143.883  73.324 220.181 -0.36 -0.00    +0.004 A  
DOCKED: ATOM     14  C   UNL     1     143.543  75.670 219.744 -0.36 -0.06    +0.095 A  
DOCKED: ATOM     15  C   UNL     1     144.327  74.519 219.624 -0.34 -0.01    +0.019 A  
DOCKED: ATOM     16  O   UNL     1     141.963  77.863 220.017 -0.20 +0.17    -0.268 OA 
DOCKED: BRANCH   3  17
DOCKED: ATOM     17  N   UNL     1     136.799  76.321 223.194 -0.11 +0.09    -0.412 NA 
DOCKED: ATOM     18  H   UNL     1     136.334  77.109 223.700 +0.01 -0.01    +0.076 HD 
DOCKED: ENDBRANCH   3  17
DOCKED: ENDBRANCH   1   2
DOCKED: BRANCH   1  19
DOCKED: ATOM     19  N   UNL     1     137.988  80.135 222.175 -0.08 +0.04    -0.243 NA 
DOCKED: BRANCH  19  20
DOCKED: ATOM     20  C   UNL     1     138.737  80.826 223.232 -0.28 -0.02    +0.136 C  
DOCKED: ATOM     21  C   UNL     1     138.059  80.621 224.596 -0.36 -0.00    +0.038 C  
DOCKED: BRANCH  20  22
DOCKED: ATOM     22  C   UNL     1     140.225  80.504 223.165 -0.41 +0.00    -0.024 A  
DOCKED: ATOM     23  C   UNL     1     141.136  81.249 222.384 -0.43 -0.00    +0.006 A  
DOCKED: ATOM     24  C   UNL     1     140.705  79.391 223.879 -0.51 -0.00    +0.006 A  
DOCKED: ATOM     25  C   UNL     1     142.488  80.898 222.345 -0.51 -0.00    +0.000 A  
DOCKED: ATOM     26  C   UNL     1     142.059  79.045 223.836 -0.58 -0.00    +0.000 A  
DOCKED: ATOM     27  C   UNL     1     142.950  79.798 223.072 -0.64 -0.00    +0.000 A  
DOCKED: ENDBRANCH  20  22
DOCKED: ENDBRANCH  19  20
DOCKED: ENDBRANCH   1  19
DOCKED: BRANCH   1  28
DOCKED: ATOM     28  O   UNL     1     136.055  78.794 222.393 -0.02 +0.07    -0.493 OA 
DOCKED: ATOM     29  H   UNL     1     135.578  77.906 222.369 +0.06 -0.04    +0.295 HD 
DOCKED: ENDBRANCH   1  28
DOCKED: TORSDOF 6
DOCKED: TER
DOCKED: ENDMDL
________________________________________________________________________________


    FINAL DOCKED STATE:
    ________________________


Run:   16 / 20
Time taken for this run:   0.028s

DOCKED: MODEL        16
DOCKED: USER    Run = 16
DOCKED: USER
DOCKED: USER    Estimated Free Energy of Binding    =  -5.91 kcal/mol  [=(1)+(2)+(3)-(4)]
DOCKED: USER
DOCKED: USER    (1) Final Intermolecular Energy     =  -7.70 kcal/mol
DOCKED: USER        vdW + Hbond + desolv Energy     =  -7.96 kcal/mol
DOCKED: USER        Electrostatic Energy            =  +0.27 kcal/mol
DOCKED: USER        Moving Ligand-Fixed Receptor    =  -7.70 kcal/mol
DOCKED: USER        Moving Ligand-Moving Receptor   =  +0.00 kcal/mol
DOCKED: USER    (2) Final Total Internal Energy     =  -2.43 kcal/mol
DOCKED: USER    (3) Torsional Free Energy           =  +1.79 kcal/mol
DOCKED: USER    (4) Unbound System's Energy         =  -2.43 kcal/mol
DOCKED: USER
DOCKED: USER
DOCKED: REMARK SMILES [H]/N=c1\[n-]c2nc3ccccn3c(=O)c2cc1/C(O)=N/[C@@H](C)c1ccccc1
DOCKED: REMARK SMILES IDX 18 1 17 2 3 3 4 4 5 5 16 6 6 7 15 8 7 9 13 10 8 11 12 12
DOCKED: REMARK SMILES IDX 9 13 11 14 10 15 14 16 2 17 1 18 20 19 21 20 22 21 23 22
DOCKED: REMARK SMILES IDX 24 23 28 24 25 25 27 26 26 27 19 28
DOCKED: REMARK H PARENT 19 29
DOCKED: USER                              x       y       z     vdW  Elec       q    Type
DOCKED: USER                           _______ _______ _______ _____ _____    ______ ____
DOCKED: ROOT
DOCKED: ATOM      1  C   UNL     1     137.436  79.096 222.100 -0.11 -0.03    +0.215 C  
DOCKED: ENDROOT
DOCKED: BRANCH   1   2
DOCKED: ATOM      2  C   UNL     1     138.283  77.876 221.969 -0.20 -0.01    +0.049 A  
DOCKED: ATOM      3  C   UNL     1     137.907  76.630 222.528 -0.28 -0.00    +0.015 A  
DOCKED: ATOM      4  N   UNL     1     138.722  75.550 222.390 -0.19 +0.09    -0.357 NA 
DOCKED: ATOM      5  C   UNL     1     139.904  75.610 221.726 -0.32 -0.01    +0.025 A  
DOCKED: ATOM      6  C   UNL     1     139.506  77.947 221.272 -0.18 -0.01    +0.029 A  
DOCKED: ATOM      7  N   UNL     1     140.674  74.503 221.621 -0.50 +0.04    -0.345 NA 
DOCKED: ATOM      8  C   UNL     1     140.326  76.813 221.147 -0.24 -0.02    +0.054 A  
DOCKED: ATOM      9  C   UNL     1     141.862  74.527 220.964 -0.26 -0.02    +0.069 A  
DOCKED: ATOM     10  C   UNL     1     141.557  76.836 220.466 -0.17 -0.13    +0.263 A  
DOCKED: ATOM     11  C   UNL     1     142.619  73.353 220.886 -0.24 -0.01    +0.030 A  
DOCKED: ATOM     12  N   UNL     1     142.315  75.692 220.380 -0.16 +0.14    -0.281 N  
DOCKED: ATOM     13  C   UNL     1     143.838  73.363 220.214 -0.36 -0.00    +0.004 A  
DOCKED: ATOM     14  C   UNL     1     143.518  75.699 219.718 -0.37 -0.06    +0.095 A  
DOCKED: ATOM     15  C   UNL     1     144.292  74.539 219.627 -0.33 -0.01    +0.019 A  
DOCKED: ATOM     16  O   UNL     1     141.956  77.912 219.937 -0.20 +0.17    -0.268 OA 
DOCKED: BRANCH   3  17
DOCKED: ATOM     17  N   UNL     1     136.784  76.494 223.159 -0.10 +0.08    -0.412 NA 
DOCKED: ATOM     18  H   UNL     1     136.277  77.316 223.560 +0.01 -0.01    +0.076 HD 
DOCKED: ENDBRANCH   3  17
DOCKED: ENDBRANCH   1   2
DOCKED: BRANCH   1  19
DOCKED: ATOM     19  N   UNL     1     138.014  80.266 222.150 -0.08 +0.04    -0.243 NA 
DOCKED: BRANCH  19  20
DOCKED: ATOM     20  C   UNL     1     138.765  80.876 223.254 -0.28 -0.02    +0.136 C  
DOCKED: ATOM     21  C   UNL     1     138.067  80.608 224.597 -0.36 -0.00    +0.038 C  
DOCKED: BRANCH  20  22
DOCKED: ATOM     22  C   UNL     1     140.247  80.525 223.183 -0.41 +0.00    -0.024 A  
DOCKED: ATOM     23  C   UNL     1     141.176  81.270 222.425 -0.44 -0.00    +0.006 A  
DOCKED: ATOM     24  C   UNL     1     140.700  79.383 223.869 -0.51 -0.00    +0.006 A  
DOCKED: ATOM     25  C   UNL     1     142.521  80.891 222.381 -0.52 -0.00    +0.000 A  
DOCKED: ATOM     26  C   UNL     1     142.046  79.009 223.822 -0.58 -0.00    +0.000 A  
DOCKED: ATOM     27  C   UNL     1     142.956  79.763 223.080 -0.63 -0.00    +0.000 A  
DOCKED: ENDBRANCH  20  22
DOCKED: ENDBRANCH  19  20
DOCKED: ENDBRANCH   1  19
DOCKED: BRANCH   1  28
DOCKED: ATOM     28  O   UNL     1     136.047  78.957 222.179 -0.02 +0.07    -0.493 OA 
DOCKED: ATOM     29  H   UNL     1     135.573  78.081 222.337 +0.05 -0.04    +0.295 HD 
DOCKED: ENDBRANCH   1  28
DOCKED: TORSDOF 6
DOCKED: TER
DOCKED: ENDMDL
________________________________________________________________________________


    FINAL DOCKED STATE:
    ________________________


Run:   17 / 20
Time taken for this run:   0.028s

DOCKED: MODEL        17
DOCKED: USER    Run = 17
DOCKED: USER
DOCKED: USER    Estimated Free Energy of Binding    =  -5.92 kcal/mol  [=(1)+(2)+(3)-(4)]
DOCKED: USER
DOCKED: USER    (1) Final Intermolecular Energy     =  -7.71 kcal/mol
DOCKED: USER        vdW + Hbond + desolv Energy     =  -7.97 kcal/mol
DOCKED: USER        Electrostatic Energy            =  +0.26 kcal/mol
DOCKED: USER        Moving Ligand-Fixed Receptor    =  -7.71 kcal/mol
DOCKED: USER        Moving Ligand-Moving Receptor   =  +0.00 kcal/mol
DOCKED: USER    (2) Final Total Internal Energy     =  -2.42 kcal/mol
DOCKED: USER    (3) Torsional Free Energy           =  +1.79 kcal/mol
DOCKED: USER    (4) Unbound System's Energy         =  -2.42 kcal/mol
DOCKED: USER
DOCKED: USER
DOCKED: REMARK SMILES [H]/N=c1\[n-]c2nc3ccccn3c(=O)c2cc1/C(O)=N/[C@@H](C)c1ccccc1
DOCKED: REMARK SMILES IDX 18 1 17 2 3 3 4 4 5 5 16 6 6 7 15 8 7 9 13 10 8 11 12 12
DOCKED: REMARK SMILES IDX 9 13 11 14 10 15 14 16 2 17 1 18 20 19 21 20 22 21 23 22
DOCKED: REMARK SMILES IDX 24 23 28 24 25 25 27 26 26 27 19 28
DOCKED: REMARK H PARENT 19 29
DOCKED: USER                              x       y       z     vdW  Elec       q    Type
DOCKED: USER                           _______ _______ _______ _____ _____    ______ ____
DOCKED: ROOT
DOCKED: ATOM      1  C   UNL     1     137.443  79.047 222.178 -0.11 -0.03    +0.215 C  
DOCKED: ENDROOT
DOCKED: BRANCH   1   2
DOCKED: ATOM      2  C   UNL     1     138.296  77.832 222.037 -0.21 -0.01    +0.049 A  
DOCKED: ATOM      3  C   UNL     1     137.935  76.584 222.601 -0.29 -0.00    +0.015 A  
DOCKED: ATOM      4  N   UNL     1     138.754  75.509 222.452 -0.19 +0.09    -0.357 NA 
DOCKED: ATOM      5  C   UNL     1     139.927  75.576 221.774 -0.32 -0.00    +0.025 A  
DOCKED: ATOM      6  C   UNL     1     139.509  77.911 221.324 -0.19 -0.01    +0.029 A  
DOCKED: ATOM      7  N   UNL     1     140.703  74.473 221.659 -0.52 +0.04    -0.345 NA 
DOCKED: ATOM      8  C   UNL     1     140.334  76.782 221.188 -0.25 -0.02    +0.054 A  
DOCKED: ATOM      9  C   UNL     1     141.882  74.504 220.986 -0.25 -0.02    +0.069 A  
DOCKED: ATOM     10  C   UNL     1     141.556  76.811 220.492 -0.17 -0.13    +0.263 A  
DOCKED: ATOM     11  C   UNL     1     142.644  73.335 220.899 -0.23 -0.01    +0.030 A  
DOCKED: ATOM     12  N   UNL     1     142.320  75.672 220.396 -0.16 +0.14    -0.281 N  
DOCKED: ATOM     13  C   UNL     1     143.855  73.352 220.211 -0.37 -0.00    +0.004 A  
DOCKED: ATOM     14  C   UNL     1     143.514  75.686 219.718 -0.37 -0.06    +0.095 A  
DOCKED: ATOM     15  C   UNL     1     144.294  74.531 219.618 -0.33 -0.01    +0.019 A  
DOCKED: ATOM     16  O   UNL     1     141.942  77.889 219.957 -0.20 +0.17    -0.268 OA 
DOCKED: BRANCH   3  17
DOCKED: ATOM     17  N   UNL     1     136.820  76.442 223.246 -0.09 +0.08    -0.412 NA 
DOCKED: ATOM     18  H   UNL     1     136.337  77.254 223.693 +0.01 -0.01    +0.076 HD 
DOCKED: ENDBRANCH   3  17
DOCKED: ENDBRANCH   1   2
DOCKED: BRANCH   1  19
DOCKED: ATOM     19  N   UNL     1     138.011  80.224 222.177 -0.08 +0.04    -0.243 NA 
DOCKED: BRANCH  19  20
DOCKED: ATOM     20  C   UNL     1     138.777  80.879 223.244 -0.28 -0.02    +0.136 C  
DOCKED: ATOM     21  C   UNL     1     138.095  80.669 224.605 -0.36 -0.00    +0.038 C  
DOCKED: BRANCH  20  22
DOCKED: ATOM     22  C   UNL     1     140.257  80.522 223.170 -0.41 +0.00    -0.024 A  
DOCKED: ATOM     23  C   UNL     1     141.184  81.252 222.394 -0.44 -0.00    +0.006 A  
DOCKED: ATOM     24  C   UNL     1     140.711  79.390 223.871 -0.51 -0.00    +0.006 A  
DOCKED: ATOM     25  C   UNL     1     142.527  80.868 222.348 -0.52 -0.00    +0.000 A  
DOCKED: ATOM     26  C   UNL     1     142.056  79.011 223.822 -0.58 -0.00    +0.000 A  
DOCKED: ATOM     27  C   UNL     1     142.964  79.750 223.063 -0.62 -0.00    +0.000 A  
DOCKED: ENDBRANCH  20  22
DOCKED: ENDBRANCH  19  20
DOCKED: ENDBRANCH   1  19
DOCKED: BRANCH   1  28
DOCKED: ATOM     28  O   UNL     1     136.061  78.897 222.323 -0.02 +0.07    -0.493 OA 
DOCKED: ATOM     29  H   UNL     1     135.597  78.012 222.458 +0.06 -0.04    +0.295 HD 
DOCKED: ENDBRANCH   1  28
DOCKED: TORSDOF 6
DOCKED: TER
DOCKED: ENDMDL
________________________________________________________________________________


    FINAL DOCKED STATE:
    ________________________


Run:   18 / 20
Time taken for this run:   0.028s

DOCKED: MODEL        18
DOCKED: USER    Run = 18
DOCKED: USER
DOCKED: USER    Estimated Free Energy of Binding    =  -7.58 kcal/mol  [=(1)+(2)+(3)-(4)]
DOCKED: USER
DOCKED: USER    (1) Final Intermolecular Energy     =  -9.37 kcal/mol
DOCKED: USER        vdW + Hbond + desolv Energy     =  -9.36 kcal/mol
DOCKED: USER        Electrostatic Energy            =  -0.02 kcal/mol
DOCKED: USER        Moving Ligand-Fixed Receptor    =  -9.37 kcal/mol
DOCKED: USER        Moving Ligand-Moving Receptor   =  +0.00 kcal/mol
DOCKED: USER    (2) Final Total Internal Energy     =  -1.63 kcal/mol
DOCKED: USER    (3) Torsional Free Energy           =  +1.79 kcal/mol
DOCKED: USER    (4) Unbound System's Energy         =  -1.63 kcal/mol
DOCKED: USER
DOCKED: USER
DOCKED: REMARK SMILES [H]/N=c1\[n-]c2nc3ccccn3c(=O)c2cc1/C(O)=N/[C@@H](C)c1ccccc1
DOCKED: REMARK SMILES IDX 18 1 17 2 3 3 4 4 5 5 16 6 6 7 15 8 7 9 13 10 8 11 12 12
DOCKED: REMARK SMILES IDX 9 13 11 14 10 15 14 16 2 17 1 18 20 19 21 20 22 21 23 22
DOCKED: REMARK SMILES IDX 24 23 28 24 25 25 27 26 26 27 19 28
DOCKED: REMARK H PARENT 19 29
DOCKED: USER                              x       y       z     vdW  Elec       q    Type
DOCKED: USER                           _______ _______ _______ _____ _____    ______ ____
DOCKED: ROOT
DOCKED: ATOM      1  C   UNL     1     135.653  69.390 224.489 -0.15 -0.01    +0.215 C  
DOCKED: ENDROOT
DOCKED: BRANCH   1   2
DOCKED: ATOM      2  C   UNL     1     134.863  70.412 225.234 -0.21 -0.00    +0.049 A  
DOCKED: ATOM      3  C   UNL     1     133.873  70.058 226.183 -0.31 -0.00    +0.015 A  
DOCKED: ATOM      4  N   UNL     1     133.172  71.029 226.828 -0.20 +0.03    -0.357 NA 
DOCKED: ATOM      5  C   UNL     1     133.382  72.350 226.600 -0.38 -0.00    +0.025 A  
DOCKED: ATOM      6  C   UNL     1     135.093  71.781 224.996 -0.12 -0.00    +0.029 A  
DOCKED: ATOM      7  N   UNL     1     132.653  73.273 227.271 -0.47 +0.03    -0.345 NA 
DOCKED: ATOM      8  C   UNL     1     134.353  72.761 225.678 -0.25 -0.00    +0.054 A  
DOCKED: ATOM      9  C   UNL     1     132.838  74.603 227.069 -0.34 +0.00    +0.069 A  
DOCKED: ATOM     10  C   UNL     1     134.542  74.139 225.471 -0.20 -0.00    +0.263 A  
DOCKED: ATOM     11  C   UNL     1     132.056  75.513 227.788 -0.34 +0.00    +0.030 A  
DOCKED: ATOM     12  N   UNL     1     133.783  75.050 226.168 -0.21 -0.01    -0.281 N  
DOCKED: ATOM     13  C   UNL     1     132.235  76.880 227.592 -0.34 +0.00    +0.004 A  
DOCKED: ATOM     14  C   UNL     1     133.957  76.398 225.977 -0.28 -0.01    +0.095 A  
DOCKED: ATOM     15  C   UNL     1     133.189  77.327 226.683 -0.30 -0.00    +0.019 A  
DOCKED: ATOM     16  O   UNL     1     135.412  74.531 224.642 -0.26 +0.05    -0.268 OA 
DOCKED: BRANCH   3  17
DOCKED: ATOM     17  N   UNL     1     133.631  68.816 226.464 -0.65 -0.03    -0.412 NA 
DOCKED: ATOM     18  H   UNL     1     134.301  68.056 226.209 +0.01 -0.00    +0.076 HD 
DOCKED: ENDBRANCH   3  17
DOCKED: ENDBRANCH   1   2
DOCKED: BRANCH   1  19
DOCKED: ATOM     19  N   UNL     1     136.873  69.678 224.119 -0.12 +0.03    -0.243 NA 
DOCKED: BRANCH  19  20
DOCKED: ATOM     20  C   UNL     1     138.114  68.936 224.376 -0.26 -0.01    +0.136 C  
DOCKED: ATOM     21  C   UNL     1     138.738  68.455 223.057 -0.24 -0.01    +0.038 C  
DOCKED: BRANCH  20  22
DOCKED: ATOM     22  C   UNL     1     139.036  69.699 225.319 -0.39 +0.00    -0.024 A  
DOCKED: ATOM     23  C   UNL     1     139.741  70.859 224.930 -0.46 -0.00    +0.006 A  
DOCKED: ATOM     24  C   UNL     1     139.226  69.202 226.621 -0.49 -0.00    +0.006 A  
DOCKED: ATOM     25  C   UNL     1     140.588  71.509 225.832 -0.60 -0.00    +0.000 A  
DOCKED: ATOM     26  C   UNL     1     140.075  69.856 227.519 -0.61 -0.00    +0.000 A  
DOCKED: ATOM     27  C   UNL     1     140.754  71.010 227.125 -0.69 -0.00    +0.000 A  
DOCKED: ENDBRANCH  20  22
DOCKED: ENDBRANCH  19  20
DOCKED: ENDBRANCH   1  19
DOCKED: BRANCH   1  28
DOCKED: ATOM     28  O   UNL     1     135.067  68.157 224.193 -0.56 -0.05    -0.493 OA 
DOCKED: ATOM     29  H   UNL     1     134.228  67.807 224.632 +0.08 -0.01    +0.295 HD 
DOCKED: ENDBRANCH   1  28
DOCKED: TORSDOF 6
DOCKED: TER
DOCKED: ENDMDL
________________________________________________________________________________


    FINAL DOCKED STATE:
    ________________________


Run:   19 / 20
Time taken for this run:   0.028s

DOCKED: MODEL        19
DOCKED: USER    Run = 19
DOCKED: USER
DOCKED: USER    Estimated Free Energy of Binding    =  -7.60 kcal/mol  [=(1)+(2)+(3)-(4)]
DOCKED: USER
DOCKED: USER    (1) Final Intermolecular Energy     =  -9.39 kcal/mol
DOCKED: USER        vdW + Hbond + desolv Energy     =  -9.38 kcal/mol
DOCKED: USER        Electrostatic Energy            =  -0.01 kcal/mol
DOCKED: USER        Moving Ligand-Fixed Receptor    =  -9.39 kcal/mol
DOCKED: USER        Moving Ligand-Moving Receptor   =  +0.00 kcal/mol
DOCKED: USER    (2) Final Total Internal Energy     =  -1.61 kcal/mol
DOCKED: USER    (3) Torsional Free Energy           =  +1.79 kcal/mol
DOCKED: USER    (4) Unbound System's Energy         =  -1.61 kcal/mol
DOCKED: USER
DOCKED: USER
DOCKED: REMARK SMILES [H]/N=c1\[n-]c2nc3ccccn3c(=O)c2cc1/C(O)=N/[C@@H](C)c1ccccc1
DOCKED: REMARK SMILES IDX 18 1 17 2 3 3 4 4 5 5 16 6 6 7 15 8 7 9 13 10 8 11 12 12
DOCKED: REMARK SMILES IDX 9 13 11 14 10 15 14 16 2 17 1 18 20 19 21 20 22 21 23 22
DOCKED: REMARK SMILES IDX 24 23 28 24 25 25 27 26 26 27 19 28
DOCKED: REMARK H PARENT 19 29
DOCKED: USER                              x       y       z     vdW  Elec       q    Type
DOCKED: USER                           _______ _______ _______ _____ _____    ______ ____
DOCKED: ROOT
DOCKED: ATOM      1  C   UNL     1     135.638  69.360 224.515 -0.15 -0.01    +0.215 C  
DOCKED: ENDROOT
DOCKED: BRANCH   1   2
DOCKED: ATOM      2  C   UNL     1     134.839  70.380 225.251 -0.21 -0.00    +0.049 A  
DOCKED: ATOM      3  C   UNL     1     133.841  70.025 226.192 -0.31 -0.00    +0.015 A  
DOCKED: ATOM      4  N   UNL     1     133.133  70.996 226.830 -0.20 +0.03    -0.357 NA 
DOCKED: ATOM      5  C   UNL     1     133.342  72.317 226.603 -0.38 -0.00    +0.025 A  
DOCKED: ATOM      6  C   UNL     1     135.069  71.750 225.014 -0.13 -0.00    +0.029 A  
DOCKED: ATOM      7  N   UNL     1     132.606  73.239 227.266 -0.43 +0.03    -0.345 NA 
DOCKED: ATOM      8  C   UNL     1     134.320  72.729 225.689 -0.26 -0.00    +0.054 A  
DOCKED: ATOM      9  C   UNL     1     132.790  74.569 227.065 -0.35 +0.00    +0.069 A  
DOCKED: ATOM     10  C   UNL     1     134.508  74.108 225.482 -0.20 -0.00    +0.263 A  
DOCKED: ATOM     11  C   UNL     1     132.000  75.479 227.776 -0.35 +0.00    +0.030 A  
DOCKED: ATOM     12  N   UNL     1     133.742  75.017 226.172 -0.21 -0.01    -0.281 N  
DOCKED: ATOM     13  C   UNL     1     132.178  76.846 227.581 -0.34 +0.00    +0.004 A  
DOCKED: ATOM     14  C   UNL     1     133.915  76.365 225.981 -0.29 -0.01    +0.095 A  
DOCKED: ATOM     15  C   UNL     1     133.139  77.293 226.679 -0.30 -0.00    +0.019 A  
DOCKED: ATOM     16  O   UNL     1     135.385  74.500 224.660 -0.26 +0.05    -0.268 OA 
DOCKED: BRANCH   3  17
DOCKED: ATOM     17  N   UNL     1     133.600  68.784 226.472 -0.64 -0.04    -0.412 NA 
DOCKED: ATOM     18  H   UNL     1     134.249  68.019 226.177 +0.01 -0.01    +0.076 HD 
DOCKED: ENDBRANCH   3  17
DOCKED: ENDBRANCH   1   2
DOCKED: BRANCH   1  19
DOCKED: ATOM     19  N   UNL     1     136.875  69.632 224.196 -0.13 +0.02    -0.243 NA 
DOCKED: BRANCH  19  20
DOCKED: ATOM     20  C   UNL     1     138.094  68.873 224.503 -0.26 -0.01    +0.136 C  
DOCKED: ATOM     21  C   UNL     1     138.720  68.313 223.216 -0.25 -0.01    +0.038 C  
DOCKED: BRANCH  20  22
DOCKED: ATOM     22  C   UNL     1     139.026  69.659 225.419 -0.39 +0.00    -0.024 A  
DOCKED: ATOM     23  C   UNL     1     139.750  70.791 224.987 -0.46 -0.00    +0.006 A  
DOCKED: ATOM     24  C   UNL     1     139.204  69.210 226.740 -0.48 -0.00    +0.006 A  
DOCKED: ATOM     25  C   UNL     1     140.604  71.463 225.866 -0.61 -0.00    +0.000 A  
DOCKED: ATOM     26  C   UNL     1     140.060  69.886 227.615 -0.61 -0.00    +0.000 A  
DOCKED: ATOM     27  C   UNL     1     140.758  71.013 227.179 -0.70 -0.00    +0.000 A  
DOCKED: ENDBRANCH  20  22
DOCKED: ENDBRANCH  19  20
DOCKED: ENDBRANCH   1  19
DOCKED: BRANCH   1  28
DOCKED: ATOM     28  O   UNL     1     135.040  68.144 224.170 -0.57 -0.05    -0.493 OA 
DOCKED: ATOM     29  H   UNL     1     134.223  67.764 224.624 +0.08 -0.01    +0.295 HD 
DOCKED: ENDBRANCH   1  28
DOCKED: TORSDOF 6
DOCKED: TER
DOCKED: ENDMDL
________________________________________________________________________________


    FINAL DOCKED STATE:
    ________________________


Run:   20 / 20
Time taken for this run:   0.028s

DOCKED: MODEL        20
DOCKED: USER    Run = 20
DOCKED: USER
DOCKED: USER    Estimated Free Energy of Binding    =  -5.91 kcal/mol  [=(1)+(2)+(3)-(4)]
DOCKED: USER
DOCKED: USER    (1) Final Intermolecular Energy     =  -7.70 kcal/mol
DOCKED: USER        vdW + Hbond + desolv Energy     =  -7.96 kcal/mol
DOCKED: USER        Electrostatic Energy            =  +0.26 kcal/mol
DOCKED: USER        Moving Ligand-Fixed Receptor    =  -7.70 kcal/mol
DOCKED: USER        Moving Ligand-Moving Receptor   =  +0.00 kcal/mol
DOCKED: USER    (2) Final Total Internal Energy     =  -2.42 kcal/mol
DOCKED: USER    (3) Torsional Free Energy           =  +1.79 kcal/mol
DOCKED: USER    (4) Unbound System's Energy         =  -2.42 kcal/mol
DOCKED: USER
DOCKED: USER
DOCKED: REMARK SMILES [H]/N=c1\[n-]c2nc3ccccn3c(=O)c2cc1/C(O)=N/[C@@H](C)c1ccccc1
DOCKED: REMARK SMILES IDX 18 1 17 2 3 3 4 4 5 5 16 6 6 7 15 8 7 9 13 10 8 11 12 12
DOCKED: REMARK SMILES IDX 9 13 11 14 10 15 14 16 2 17 1 18 20 19 21 20 22 21 23 22
DOCKED: REMARK SMILES IDX 24 23 28 24 25 25 27 26 26 27 19 28
DOCKED: REMARK H PARENT 19 29
DOCKED: USER                              x       y       z     vdW  Elec       q    Type
DOCKED: USER                           _______ _______ _______ _____ _____    ______ ____
DOCKED: ROOT
DOCKED: ATOM      1  C   UNL     1     137.424  79.037 222.213 -0.11 -0.03    +0.215 C  
DOCKED: ENDROOT
DOCKED: BRANCH   1   2
DOCKED: ATOM      2  C   UNL     1     138.282  77.826 222.070 -0.21 -0.01    +0.049 A  
DOCKED: ATOM      3  C   UNL     1     137.928  76.577 222.636 -0.29 -0.00    +0.015 A  
DOCKED: ATOM      4  N   UNL     1     138.751  75.505 222.485 -0.18 +0.09    -0.357 NA 
DOCKED: ATOM      5  C   UNL     1     139.921  75.577 221.802 -0.32 -0.00    +0.025 A  
DOCKED: ATOM      6  C   UNL     1     139.492  77.909 221.353 -0.19 -0.01    +0.029 A  
DOCKED: ATOM      7  N   UNL     1     140.702  74.477 221.685 -0.53 +0.04    -0.345 NA 
DOCKED: ATOM      8  C   UNL     1     140.321  76.784 221.215 -0.25 -0.02    +0.054 A  
DOCKED: ATOM      9  C   UNL     1     141.878  74.513 221.008 -0.25 -0.02    +0.069 A  
DOCKED: ATOM     10  C   UNL     1     141.541  76.818 220.514 -0.17 -0.13    +0.263 A  
DOCKED: ATOM     11  C   UNL     1     142.645  73.347 220.919 -0.21 -0.01    +0.030 A  
DOCKED: ATOM     12  N   UNL     1     142.309  75.682 220.416 -0.15 +0.14    -0.281 N  
DOCKED: ATOM     13  C   UNL     1     143.854  73.369 220.227 -0.37 -0.00    +0.004 A  
DOCKED: ATOM     14  C   UNL     1     143.501  75.701 219.734 -0.36 -0.06    +0.095 A  
DOCKED: ATOM     15  C   UNL     1     144.285  74.549 219.632 -0.33 -0.01    +0.019 A  
DOCKED: ATOM     16  O   UNL     1     141.920  77.898 219.978 -0.20 +0.17    -0.268 OA 
DOCKED: BRANCH   3  17
DOCKED: ATOM     17  N   UNL     1     136.816  76.430 223.285 -0.08 +0.09    -0.412 NA 
DOCKED: ATOM     18  H   UNL     1     136.339  77.238 223.747 +0.01 -0.01    +0.076 HD 
DOCKED: ENDBRANCH   3  17
DOCKED: ENDBRANCH   1   2
DOCKED: BRANCH   1  19
DOCKED: ATOM     19  N   UNL     1     137.984  80.217 222.187 -0.08 +0.04    -0.243 NA 
DOCKED: BRANCH  19  20
DOCKED: ATOM     20  C   UNL     1     138.758  80.894 223.236 -0.28 -0.02    +0.136 C  
DOCKED: ATOM     21  C   UNL     1     138.080  80.723 224.604 -0.37 -0.00    +0.038 C  
DOCKED: BRANCH  20  22
DOCKED: ATOM     22  C   UNL     1     140.236  80.525 223.166 -0.41 +0.00    -0.024 A  
DOCKED: ATOM     23  C   UNL     1     141.165  81.230 222.370 -0.43 -0.00    +0.006 A  
DOCKED: ATOM     24  C   UNL     1     140.684  79.408 223.893 -0.50 -0.00    +0.006 A  
DOCKED: ATOM     25  C   UNL     1     142.506  80.837 222.330 -0.52 -0.00    +0.000 A  
DOCKED: ATOM     26  C   UNL     1     142.027  79.019 223.849 -0.58 -0.00    +0.000 A  
DOCKED: ATOM     27  C   UNL     1     142.937  79.733 223.070 -0.63 -0.00    +0.000 A  
DOCKED: ENDBRANCH  20  22
DOCKED: ENDBRANCH  19  20
DOCKED: ENDBRANCH   1  19
DOCKED: BRANCH   1  28
DOCKED: ATOM     28  O   UNL     1     136.046  78.881 222.386 -0.02 +0.07    -0.493 OA 
DOCKED: ATOM     29  H   UNL     1     135.589  77.993 222.527 +0.06 -0.04    +0.295 HD 
DOCKED: ENDBRANCH   1  28
DOCKED: TORSDOF 6
DOCKED: TER
DOCKED: ENDMDL
________________________________________________________________________________


    CLUSTERING HISTOGRAM
    ____________________


________________________________________________________________________________
     |           |     |           |     |
Clus | Lowest    | Run | Mean      | Num | Histogram
-ter | Binding   |     | Binding   | in  |
Rank | Energy    |     | Energy    | Clus|    5    10   15   20   25   30   35
_____|___________|_____|___________|_____|____:____|____:____|____:____|____:___
   1 |     -7.60 |  12 |     -7.56 |  13 |#############
   2 |     -5.97 |  11 |     -5.93 |   7 |#######
_____|___________|_____|___________|_____|______________________________________


    RMSD TABLE
    __________


_______________________________________________________________________
     |      |      |           |         |                 |
Rank | Sub- | Run  | Binding   | Cluster | Reference       | Grep
     | Rank |      | Energy    | RMSD    | RMSD            | Pattern
_____|______|______|___________|_________|_________________|___________
   1      1     12       -7.60      0.00    270.72           RANKING
   1      2     19       -7.60      0.06    270.73           RANKING
   1      3     18       -7.58      0.05    270.72           RANKING
   1      4      1       -7.58      0.06    270.72           RANKING
   1      5      4       -7.58      0.07    270.72           RANKING
   1      6      2       -7.58      0.08    270.72           RANKING
   1      7     10       -7.57      0.32    270.79           RANKING
   1      8      9       -7.57      0.05    270.71           RANKING
   1      9     13       -7.57      0.47    270.65           RANKING
   1     10      6       -7.56      0.10    270.74           RANKING
   1     11      7       -7.56      0.49    270.66           RANKING
   1     12      3       -7.55      0.19    270.71           RANKING
   1     13      8       -7.38      0.45    270.81           RANKING
   2      1     11       -5.97      0.00    271.62           RANKING
   2      2     15       -5.96      0.21    271.60           RANKING
   2      3     14       -5.93      0.26    271.62           RANKING
   2      4     17       -5.92      0.26    271.63           RANKING
   2      5      5       -5.91      0.27    271.60           RANKING
   2      6     16       -5.91      0.32    271.60           RANKING
   2      7     20       -5.91      0.25    271.64           RANKING

Run time 0.532 sec
Idle time 0.000 sec
