AutoDock-GPU version: v1.6

**********************************************************
**    AutoDock-GPU AUTODOCKTOOLS-COMPATIBLE DLG FILE    **
**********************************************************


    DOCKING PARAMETERS
    ________________________


Ligand file:                               /home/a/REINVENT4/ReinventStudies/scoringData/graph-dock-34dfml/graph-DockGPU/node-autodockgpu/inputs/JBHRSOAXAGIKHA-MUXIEFDRNA-N.pdbqt
Grid fld file:                             /home/a/REINVENT4/ReinventStudies/mols/Rad51/maps/rad51_receptor.maps.fld

Random seed:                               42
Number of runs:                            20
Number of energy evaluations:              3119281
Number of generations:                     42000
Size of population:                        150
Rate of crossover:                         80.000000%
Tournament selection probability limit:    60.000000%
Rate of mutation:                          2.000000%
Maximal allowed delta movement:            +/- 6.000000A
Maximal allowed delta angle:               +/- 90.000000

Rate of local search:                      100.000000%
Maximal number of local search iterations: 300
Rho lower bound:                           0.010000
Spread of local search delta movement:     2.000000A
Spread of local search delta angle:        74.999999
Limit of consecutive successes/failures:   4

Handle symmetry during clustering:         YES
RMSD tolerance:                            2.000000A

Program call in command line was:          /home/a/REINVENT4/ReinventStudies/adgpu-v1.6_linux_x64_cuda12_128wi --filelist batch.txt --heuristics 1 --nrun 20 --psize 150 --lsit 300 --seed 42 --heurmax 12000000 


    GRID PARAMETERS
    ________________________


Receptor name:                             rad51_receptor
Number of grid points (x, y, z):           53, 53, 53
Grid center (x, y, z):                     139.950000, 75.640000, 221.970000A
Grid size (x, y, z):                       19.500000, 19.500000, 19.500000A
Grid spacing:                              0.375000A


    LIGAND PARAMETERS
    ________________________


Ligand name:                               /home/a/REINVENT4/ReinventStudies/scoringData/graph-dock-34dfml/graph-DockGPU/node-autodockgpu/inputs/JBHRSOAXAGIKHA-MUXIEFDRNA-N
Number of atoms:                           28
Number of rotatable bonds:                 11
Number of atom types:                      7


    DUMMY DATA (only for ADT-compatibility)
    ________________________


DPF> outlev 1
DPF> ga_run 20
DPF> fld /home/a/REINVENT4/ReinventStudies/mols/Rad51/maps/rad51_receptor.maps.fld
DPF> move /home/a/REINVENT4/ReinventStudies/scoringData/graph-dock-34dfml/graph-DockGPU/node-autodockgpu/inputs/JBHRSOAXAGIKHA-MUXIEFDRNA-N.pdbqt


    COUNTER STATES
    ________________________


Number of energy evaluations performed:    2530922
Number of generations used:                130


    INPUT LIGAND PDBQT FILE:
    ________________________


INPUT-LIGAND-PDBQT: REMARK SMILES O/C(=C\CCOc1ccc(Cl)cc1Cl)[N-]/N=C\c1cccc(C(F)(F)F)c1
INPUT-LIGAND-PDBQT: REMARK SMILES IDX 2 1 1 2 15 4 16 5 17 6 18 7 19 8 27 9 20 10 22 11 21 12
INPUT-LIGAND-PDBQT: REMARK SMILES IDX 23 13 24 14 25 15 26 16 3 17 4 18 5 19 6 20 7 21 8 22 13 23
INPUT-LIGAND-PDBQT: REMARK SMILES IDX 9 24 12 25 10 26 14 27 11 28
INPUT-LIGAND-PDBQT: REMARK H PARENT 1 3
INPUT-LIGAND-PDBQT: ROOT
INPUT-LIGAND-PDBQT: ATOM      1  C   UNL     1      -1.040  -0.573  -0.306  1.00  0.00     0.023 C 
INPUT-LIGAND-PDBQT: ENDROOT
INPUT-LIGAND-PDBQT: BRANCH   1   2
INPUT-LIGAND-PDBQT: ATOM      2  O   UNL     1      -1.540   0.710  -0.094  1.00  0.00    -0.530 OA
INPUT-LIGAND-PDBQT: ATOM      3  H   UNL     1      -1.800   1.018   0.835  1.00  0.00     0.290 HD
INPUT-LIGAND-PDBQT: ENDBRANCH   1   2
INPUT-LIGAND-PDBQT: BRANCH   1   4
INPUT-LIGAND-PDBQT: ATOM      4  N   UNL     1      -0.901  -1.453   0.816  1.00  0.00    -0.546 NA
INPUT-LIGAND-PDBQT: BRANCH   4   5
INPUT-LIGAND-PDBQT: ATOM      5  N   UNL     1      -0.381  -2.750   0.701  1.00  0.00    -0.372 NA
INPUT-LIGAND-PDBQT: BRANCH   5   6
INPUT-LIGAND-PDBQT: ATOM      6  C   UNL     1      -0.242  -3.551   1.715  1.00  0.00     0.094 C 
INPUT-LIGAND-PDBQT: BRANCH   6   7
INPUT-LIGAND-PDBQT: ATOM      7  C   UNL     1      -0.600  -3.184   3.105  1.00  0.00    -0.009 A 
INPUT-LIGAND-PDBQT: ATOM      8  C   UNL     1      -1.221  -4.141   3.919  1.00  0.00     0.009 A 
INPUT-LIGAND-PDBQT: ATOM      9  C   UNL     1      -0.260  -1.932   3.651  1.00  0.00     0.022 A 
INPUT-LIGAND-PDBQT: ATOM     10  C   UNL     1      -1.536  -3.842   5.246  1.00  0.00     0.001 A 
INPUT-LIGAND-PDBQT: ATOM     11  C   UNL     1      -0.594  -1.617   4.981  1.00  0.00     0.056 A 
INPUT-LIGAND-PDBQT: ATOM     12  C   UNL     1      -1.224  -2.588   5.776  1.00  0.00     0.013 A 
INPUT-LIGAND-PDBQT: BRANCH  11  13
INPUT-LIGAND-PDBQT: ATOM     13  C   UNL     1      -0.205  -0.291   5.588  1.00  0.00     0.416 C 
INPUT-LIGAND-PDBQT: ATOM     14  F   UNL     1      -1.222   0.175   6.401  1.00  0.00    -0.166 F 
INPUT-LIGAND-PDBQT: ATOM     15  F   UNL     1       0.038   0.658   4.610  1.00  0.00    -0.166 F 
INPUT-LIGAND-PDBQT: ATOM     16  F   UNL     1       0.940  -0.456   6.346  1.00  0.00    -0.166 F 
INPUT-LIGAND-PDBQT: ENDBRANCH  11  13
INPUT-LIGAND-PDBQT: ENDBRANCH   6   7
INPUT-LIGAND-PDBQT: ENDBRANCH   5   6
INPUT-LIGAND-PDBQT: ENDBRANCH   4   5
INPUT-LIGAND-PDBQT: ENDBRANCH   1   4
INPUT-LIGAND-PDBQT: BRANCH   1  17
INPUT-LIGAND-PDBQT: ATOM     17  C   UNL     1      -0.696  -0.959  -1.543  1.00  0.00    -0.001 C 
INPUT-LIGAND-PDBQT: BRANCH  17  18
INPUT-LIGAND-PDBQT: ATOM     18  C   UNL     1      -0.833  -0.035  -2.721  1.00  0.00     0.071 C 
INPUT-LIGAND-PDBQT: BRANCH  18  19
INPUT-LIGAND-PDBQT: ATOM     19  C   UNL     1      -0.375  -0.711  -4.016  1.00  0.00     0.234 C 
INPUT-LIGAND-PDBQT: BRANCH  19  20
INPUT-LIGAND-PDBQT: ATOM     20  O   UNL     1      -0.538   0.171  -5.126  1.00  0.00    -0.492 OA
INPUT-LIGAND-PDBQT: BRANCH  20  21
INPUT-LIGAND-PDBQT: ATOM     21  C   UNL     1       0.274   1.281  -5.418  1.00  0.00     0.137 A 
INPUT-LIGAND-PDBQT: ATOM     22  C   UNL     1       1.469   1.549  -4.718  1.00  0.00     0.049 A 
INPUT-LIGAND-PDBQT: ATOM     23  C   UNL     1      -0.121   2.148  -6.451  1.00  0.00     0.084 A 
INPUT-LIGAND-PDBQT: ATOM     24  C   UNL     1       2.246   2.663  -5.050  1.00  0.00     0.024 A 
INPUT-LIGAND-PDBQT: ATOM     25  C   UNL     1       0.661   3.262  -6.777  1.00  0.00     0.045 A 
INPUT-LIGAND-PDBQT: ATOM     26  C   UNL     1       1.844   3.519  -6.079  1.00  0.00     0.042 A 
INPUT-LIGAND-PDBQT: ATOM     27  Cl  UNL     1      -1.607   1.854  -7.343  1.00  0.00    -0.080 Cl
INPUT-LIGAND-PDBQT: ATOM     28  Cl  UNL     1       2.824   4.914  -6.494  1.00  0.00    -0.084 Cl
INPUT-LIGAND-PDBQT: ENDBRANCH  20  21
INPUT-LIGAND-PDBQT: ENDBRANCH  19  20
INPUT-LIGAND-PDBQT: ENDBRANCH  18  19
INPUT-LIGAND-PDBQT: ENDBRANCH  17  18
INPUT-LIGAND-PDBQT: ENDBRANCH   1  17
INPUT-LIGAND-PDBQT: TORSDOF 11


    FINAL DOCKED STATE:
    ________________________


Run:   1 / 20
Time taken for this run:   0.110s

DOCKED: MODEL        1
DOCKED: USER    Run = 1
DOCKED: USER
DOCKED: USER    Estimated Free Energy of Binding    =  -6.47 kcal/mol  [=(1)+(2)+(3)-(4)]
DOCKED: USER
DOCKED: USER    (1) Final Intermolecular Energy     =  -9.75 kcal/mol
DOCKED: USER        vdW + Hbond + desolv Energy     = -10.00 kcal/mol
DOCKED: USER        Electrostatic Energy            =  +0.25 kcal/mol
DOCKED: USER        Moving Ligand-Fixed Receptor    =  -9.75 kcal/mol
DOCKED: USER        Moving Ligand-Moving Receptor   =  +0.00 kcal/mol
DOCKED: USER    (2) Final Total Internal Energy     =  -1.13 kcal/mol
DOCKED: USER    (3) Torsional Free Energy           =  +3.28 kcal/mol
DOCKED: USER    (4) Unbound System's Energy         =  -1.13 kcal/mol
DOCKED: USER
DOCKED: USER
DOCKED: REMARK SMILES O/C(=C\CCOc1ccc(Cl)cc1Cl)[N-]/N=C\c1cccc(C(F)(F)F)c1
DOCKED: REMARK SMILES IDX 2 1 1 2 15 4 16 5 17 6 18 7 19 8 27 9 20 10 22 11 21 12
DOCKED: REMARK SMILES IDX 23 13 24 14 25 15 26 16 3 17 4 18 5 19 6 20 7 21 8 22 13 23
DOCKED: REMARK SMILES IDX 9 24 12 25 10 26 14 27 11 28
DOCKED: REMARK H PARENT 1 3
DOCKED: USER                              x       y       z     vdW  Elec       q    Type
DOCKED: USER                           _______ _______ _______ _____ _____    ______ ____
DOCKED: ROOT
DOCKED: ATOM      1  C   UNL     1     140.296  74.343 221.364 -0.28 -0.00    +0.023 C  
DOCKED: ENDROOT
DOCKED: BRANCH   1   2
DOCKED: ATOM      2  O   UNL     1     139.575  74.549 222.538 -0.55 +0.06    -0.530 OA 
DOCKED: ATOM      3  H   UNL     1     139.252  73.765 223.093 -0.47 -0.12    +0.290 HD 
DOCKED: ENDBRANCH   1   2
DOCKED: BRANCH   1   4
DOCKED: ATOM      4  N   UNL     1     141.225  75.348 220.940 -0.06 +0.17    -0.546 NA 
DOCKED: BRANCH   4   5
DOCKED: ATOM      5  N   UNL     1     141.026  76.714 221.185 -0.12 +0.15    -0.372 NA 
DOCKED: BRANCH   5   6
DOCKED: ATOM      6  C   UNL     1     141.060  77.234 222.376 -0.34 -0.04    +0.094 C  
DOCKED: BRANCH   6   7
DOCKED: ATOM      7  C   UNL     1     141.413  78.648 222.644 -0.50 +0.00    -0.009 A  
DOCKED: ATOM      8  C   UNL     1     142.199  78.948 223.765 -0.53 -0.00    +0.009 A  
DOCKED: ATOM      9  C   UNL     1     141.051  79.682 221.761 -0.35 -0.01    +0.022 A  
DOCKED: ATOM     10  C   UNL     1     142.584  80.264 224.026 -0.60 -0.00    +0.001 A  
DOCKED: ATOM     11  C   UNL     1     141.417  81.013 222.029 -0.41 -0.01    +0.056 A  
DOCKED: ATOM     12  C   UNL     1     142.197  81.292 223.163 -0.56 -0.00    +0.013 A  
DOCKED: BRANCH  11  13
DOCKED: ATOM     13  C   UNL     1     141.063  82.126 221.073 -0.15 -0.09    +0.416 C  
DOCKED: ATOM     14  F   UNL     1     141.439  83.346 221.605 -0.12 +0.02    -0.166 F  
DOCKED: ATOM     15  F   UNL     1     139.702  82.162 220.824 -0.05 +0.03    -0.166 F  
DOCKED: ATOM     16  F   UNL     1     141.732  81.929 219.878 -0.10 +0.05    -0.166 F  
DOCKED: ENDBRANCH  11  13
DOCKED: ENDBRANCH   6   7
DOCKED: ENDBRANCH   5   6
DOCKED: ENDBRANCH   4   5
DOCKED: ENDBRANCH   1   4
DOCKED: BRANCH   1  17
DOCKED: ATOM     17  C   UNL     1     140.108  73.222 220.654 -0.16 +0.00    -0.001 C  
DOCKED: BRANCH  17  18
DOCKED: ATOM     18  C   UNL     1     139.857  71.900 221.325 -0.17 -0.01    +0.071 C  
DOCKED: BRANCH  18  19
DOCKED: ATOM     19  C   UNL     1     140.751  71.720 222.554 -0.17 -0.02    +0.234 C  
DOCKED: BRANCH  19  20
DOCKED: ATOM     20  O   UNL     1     139.983  71.827 223.752 -0.20 +0.10    -0.492 OA 
DOCKED: BRANCH  20  21
DOCKED: ATOM     21  C   UNL     1     140.176  71.070 224.921 -0.41 -0.02    +0.137 A  
DOCKED: ATOM     22  C   UNL     1     140.896  71.561 226.030 -0.60 -0.01    +0.049 A  
DOCKED: ATOM     23  C   UNL     1     139.622  69.780 224.983 -0.35 -0.01    +0.084 A  
DOCKED: ATOM     24  C   UNL     1     141.055  70.771 227.173 -0.63 -0.00    +0.024 A  
DOCKED: ATOM     25  C   UNL     1     139.786  68.995 226.130 -0.48 -0.01    +0.045 A  
DOCKED: ATOM     26  C   UNL     1     140.500  69.489 227.224 -0.56 -0.01    +0.042 A  
DOCKED: ATOM     27  Cl  UNL     1     138.724  69.128 223.620 -0.35 +0.01    -0.080 Cl 
DOCKED: ATOM     28  Cl  UNL     1     140.700  68.504 228.662 -0.73 +0.02    -0.084 Cl 
DOCKED: ENDBRANCH  20  21
DOCKED: ENDBRANCH  19  20
DOCKED: ENDBRANCH  18  19
DOCKED: ENDBRANCH  17  18
DOCKED: ENDBRANCH   1  17
DOCKED: TORSDOF 11
DOCKED: TER
DOCKED: ENDMDL
________________________________________________________________________________


    FINAL DOCKED STATE:
    ________________________


Run:   2 / 20
Time taken for this run:   0.110s

DOCKED: MODEL        2
DOCKED: USER    Run = 2
DOCKED: USER
DOCKED: USER    Estimated Free Energy of Binding    =  -6.10 kcal/mol  [=(1)+(2)+(3)-(4)]
DOCKED: USER
DOCKED: USER    (1) Final Intermolecular Energy     =  -9.39 kcal/mol
DOCKED: USER        vdW + Hbond + desolv Energy     =  -9.56 kcal/mol
DOCKED: USER        Electrostatic Energy            =  +0.17 kcal/mol
DOCKED: USER        Moving Ligand-Fixed Receptor    =  -9.39 kcal/mol
DOCKED: USER        Moving Ligand-Moving Receptor   =  +0.00 kcal/mol
DOCKED: USER    (2) Final Total Internal Energy     =  -1.27 kcal/mol
DOCKED: USER    (3) Torsional Free Energy           =  +3.28 kcal/mol
DOCKED: USER    (4) Unbound System's Energy         =  -1.27 kcal/mol
DOCKED: USER
DOCKED: USER
DOCKED: REMARK SMILES O/C(=C\CCOc1ccc(Cl)cc1Cl)[N-]/N=C\c1cccc(C(F)(F)F)c1
DOCKED: REMARK SMILES IDX 2 1 1 2 15 4 16 5 17 6 18 7 19 8 27 9 20 10 22 11 21 12
DOCKED: REMARK SMILES IDX 23 13 24 14 25 15 26 16 3 17 4 18 5 19 6 20 7 21 8 22 13 23
DOCKED: REMARK SMILES IDX 9 24 12 25 10 26 14 27 11 28
DOCKED: REMARK H PARENT 1 3
DOCKED: USER                              x       y       z     vdW  Elec       q    Type
DOCKED: USER                           _______ _______ _______ _____ _____    ______ ____
DOCKED: ROOT
DOCKED: ATOM      1  C   UNL     1     139.183  74.543 221.789 -0.25 -0.00    +0.023 C  
DOCKED: ENDROOT
DOCKED: BRANCH   1   2
DOCKED: ATOM      2  O   UNL     1     138.143  73.746 222.262 -0.02 +0.19    -0.530 OA 
DOCKED: ATOM      3  H   UNL     1     138.265  73.170 223.086 -0.44 -0.18    +0.290 HD 
DOCKED: ENDBRANCH   1   2
DOCKED: BRANCH   1   4
DOCKED: ATOM      4  N   UNL     1     139.211  75.928 222.153 -0.13 +0.11    -0.546 NA 
DOCKED: BRANCH   4   5
DOCKED: ATOM      5  N   UNL     1     140.363  76.559 222.644 -0.18 +0.08    -0.372 NA 
DOCKED: BRANCH   5   6
DOCKED: ATOM      6  C   UNL     1     141.084  77.372 221.932 -0.33 -0.04    +0.094 C  
DOCKED: BRANCH   6   7
DOCKED: ATOM      7  C   UNL     1     141.382  78.768 222.332 -0.46 +0.00    -0.009 A  
DOCKED: ATOM      8  C   UNL     1     142.146  78.993 223.485 -0.59 -0.00    +0.009 A  
DOCKED: ATOM      9  C   UNL     1     140.989  79.864 221.542 -0.32 -0.01    +0.022 A  
DOCKED: ATOM     10  C   UNL     1     142.479  80.293 223.869 -0.65 -0.00    +0.001 A  
DOCKED: ATOM     11  C   UNL     1     141.303  81.178 221.934 -0.39 -0.01    +0.056 A  
DOCKED: ATOM     12  C   UNL     1     142.062  81.381 223.099 -0.53 -0.00    +0.013 A  
DOCKED: BRANCH  11  13
DOCKED: ATOM     13  C   UNL     1     140.917  82.360 221.078 -0.14 -0.09    +0.416 C  
DOCKED: ATOM     14  F   UNL     1     141.407  83.528 221.633 -0.10 +0.02    -0.166 F  
DOCKED: ATOM     15  F   UNL     1     139.542  82.474 220.970 -0.05 +0.03    -0.166 F  
DOCKED: ATOM     16  F   UNL     1     141.453  82.200 219.814 -0.09 +0.05    -0.166 F  
DOCKED: ENDBRANCH  11  13
DOCKED: ENDBRANCH   6   7
DOCKED: ENDBRANCH   5   6
DOCKED: ENDBRANCH   4   5
DOCKED: ENDBRANCH   1   4
DOCKED: BRANCH   1  17
DOCKED: ATOM     17  C   UNL     1     140.129  74.008 221.004 -0.23 +0.00    -0.001 C  
DOCKED: BRANCH  17  18
DOCKED: ATOM     18  C   UNL     1     141.249  73.183 221.575 -0.22 -0.01    +0.071 C  
DOCKED: BRANCH  18  19
DOCKED: ATOM     19  C   UNL     1     140.720  71.914 222.248 -0.20 -0.02    +0.234 C  
DOCKED: BRANCH  19  20
DOCKED: ATOM     20  O   UNL     1     140.148  72.222 223.519 -0.27 +0.08    -0.492 OA 
DOCKED: BRANCH  20  21
DOCKED: ATOM     21  C   UNL     1     140.241  71.427 224.675 -0.39 -0.02    +0.137 A  
DOCKED: ATOM     22  C   UNL     1     141.078  71.763 225.759 -0.52 -0.01    +0.049 A  
DOCKED: ATOM     23  C   UNL     1     139.464  70.258 224.749 -0.35 -0.01    +0.084 A  
DOCKED: ATOM     24  C   UNL     1     141.131  70.943 226.890 -0.62 -0.00    +0.024 A  
DOCKED: ATOM     25  C   UNL     1     139.523  69.441 225.884 -0.43 -0.01    +0.045 A  
DOCKED: ATOM     26  C   UNL     1     140.354  69.783 226.954 -0.54 -0.01    +0.042 A  
DOCKED: ATOM     27  Cl  UNL     1     138.414  69.798 223.416 -0.32 +0.01    -0.080 Cl 
DOCKED: ATOM     28  Cl  UNL     1     140.421  68.758 228.377 -0.78 +0.02    -0.084 Cl 
DOCKED: ENDBRANCH  20  21
DOCKED: ENDBRANCH  19  20
DOCKED: ENDBRANCH  18  19
DOCKED: ENDBRANCH  17  18
DOCKED: ENDBRANCH   1  17
DOCKED: TORSDOF 11
DOCKED: TER
DOCKED: ENDMDL
________________________________________________________________________________


    FINAL DOCKED STATE:
    ________________________


Run:   3 / 20
Time taken for this run:   0.110s

DOCKED: MODEL        3
DOCKED: USER    Run = 3
DOCKED: USER
DOCKED: USER    Estimated Free Energy of Binding    =  -6.99 kcal/mol  [=(1)+(2)+(3)-(4)]
DOCKED: USER
DOCKED: USER    (1) Final Intermolecular Energy     = -10.27 kcal/mol
DOCKED: USER        vdW + Hbond + desolv Energy     = -10.32 kcal/mol
DOCKED: USER        Electrostatic Energy            =  +0.05 kcal/mol
DOCKED: USER        Moving Ligand-Fixed Receptor    = -10.27 kcal/mol
DOCKED: USER        Moving Ligand-Moving Receptor   =  +0.00 kcal/mol
DOCKED: USER    (2) Final Total Internal Energy     =  -0.82 kcal/mol
DOCKED: USER    (3) Torsional Free Energy           =  +3.28 kcal/mol
DOCKED: USER    (4) Unbound System's Energy         =  -0.82 kcal/mol
DOCKED: USER
DOCKED: USER
DOCKED: REMARK SMILES O/C(=C\CCOc1ccc(Cl)cc1Cl)[N-]/N=C\c1cccc(C(F)(F)F)c1
DOCKED: REMARK SMILES IDX 2 1 1 2 15 4 16 5 17 6 18 7 19 8 27 9 20 10 22 11 21 12
DOCKED: REMARK SMILES IDX 23 13 24 14 25 15 26 16 3 17 4 18 5 19 6 20 7 21 8 22 13 23
DOCKED: REMARK SMILES IDX 9 24 12 25 10 26 14 27 11 28
DOCKED: REMARK H PARENT 1 3
DOCKED: USER                              x       y       z     vdW  Elec       q    Type
DOCKED: USER                           _______ _______ _______ _____ _____    ______ ____
DOCKED: ROOT
DOCKED: ATOM      1  C   UNL     1     140.443  73.440 221.702 -0.28 -0.00    +0.023 C  
DOCKED: ENDROOT
DOCKED: BRANCH   1   2
DOCKED: ATOM      2  O   UNL     1     139.883  74.563 222.309 -0.67 +0.03    -0.530 OA 
DOCKED: ATOM      3  H   UNL     1     139.208  74.465 223.057 -0.48 -0.09    +0.290 HD 
DOCKED: ENDBRANCH   1   2
DOCKED: BRANCH   1   4
DOCKED: ATOM      4  N   UNL     1     139.833  72.162 221.922 -0.07 +0.09    -0.546 NA 
DOCKED: BRANCH   4   5
DOCKED: ATOM      5  N   UNL     1     139.554  71.667 223.203 -0.16 +0.08    -0.372 NA 
DOCKED: BRANCH   5   6
DOCKED: ATOM      6  C   UNL     1     140.266  70.744 223.778 -0.26 -0.01    +0.094 C  
DOCKED: BRANCH   6   7
DOCKED: ATOM      7  C   UNL     1     140.577  70.732 225.227 -0.53 +0.00    -0.009 A  
DOCKED: ATOM      8  C   UNL     1     141.075  71.899 225.822 -0.53 -0.00    +0.009 A  
DOCKED: ATOM      9  C   UNL     1     140.310  69.609 226.032 -0.49 -0.00    +0.022 A  
DOCKED: ATOM     10  C   UNL     1     141.342  71.934 227.192 -0.78 -0.00    +0.001 A  
DOCKED: ATOM     11  C   UNL     1     140.597  69.631 227.409 -0.55 -0.01    +0.056 A  
DOCKED: ATOM     12  C   UNL     1     141.103  70.808 227.983 -0.66 -0.00    +0.013 A  
DOCKED: BRANCH  11  13
DOCKED: ATOM     13  C   UNL     1     140.283  68.445 228.289 -0.25 -0.09    +0.416 C  
DOCKED: ATOM     14  F   UNL     1     141.456  67.858 228.729 -0.22 +0.05    -0.166 F  
DOCKED: ATOM     15  F   UNL     1     139.551  67.491 227.604 -0.12 +0.04    -0.166 F  
DOCKED: ATOM     16  F   UNL     1     139.552  68.871 229.383 -0.04 +0.02    -0.166 F  
DOCKED: ENDBRANCH  11  13
DOCKED: ENDBRANCH   6   7
DOCKED: ENDBRANCH   5   6
DOCKED: ENDBRANCH   4   5
DOCKED: ENDBRANCH   1   4
DOCKED: BRANCH   1  17
DOCKED: ATOM     17  C   UNL     1     141.533  73.571 220.934 -0.27 +0.00    -0.001 C  
DOCKED: BRANCH  17  18
DOCKED: ATOM     18  C   UNL     1     142.259  74.882 220.816 -0.24 -0.03    +0.071 C  
DOCKED: BRANCH  18  19
DOCKED: ATOM     19  C   UNL     1     141.610  75.785 219.764 -0.14 -0.09    +0.234 C  
DOCKED: BRANCH  19  20
DOCKED: ATOM     20  O   UNL     1     140.750  76.740 220.385 -0.03 +0.18    -0.492 OA 
DOCKED: BRANCH  20  21
DOCKED: ATOM     21  C   UNL     1     141.155  77.756 221.269 -0.26 -0.06    +0.137 A  
DOCKED: ATOM     22  C   UNL     1     141.055  77.624 222.670 -0.43 -0.02    +0.049 A  
DOCKED: ATOM     23  C   UNL     1     141.685  78.941 220.731 -0.28 -0.05    +0.084 A  
DOCKED: ATOM     24  C   UNL     1     141.478  78.660 223.508 -0.58 -0.01    +0.024 A  
DOCKED: ATOM     25  C   UNL     1     142.104  79.975 221.576 -0.41 -0.02    +0.045 A  
DOCKED: ATOM     26  C   UNL     1     142.003  79.835 222.963 -0.56 -0.01    +0.042 A  
DOCKED: ATOM     27  Cl  UNL     1     141.820  79.149 218.991 -0.35 +0.05    -0.080 Cl 
DOCKED: ATOM     28  Cl  UNL     1     142.534  81.132 224.019 -0.69 +0.01    -0.084 Cl 
DOCKED: ENDBRANCH  20  21
DOCKED: ENDBRANCH  19  20
DOCKED: ENDBRANCH  18  19
DOCKED: ENDBRANCH  17  18
DOCKED: ENDBRANCH   1  17
DOCKED: TORSDOF 11
DOCKED: TER
DOCKED: ENDMDL
________________________________________________________________________________


    FINAL DOCKED STATE:
    ________________________


Run:   4 / 20
Time taken for this run:   0.110s

DOCKED: MODEL        4
DOCKED: USER    Run = 4
DOCKED: USER
DOCKED: USER    Estimated Free Energy of Binding    =  -7.18 kcal/mol  [=(1)+(2)+(3)-(4)]
DOCKED: USER
DOCKED: USER    (1) Final Intermolecular Energy     = -10.47 kcal/mol
DOCKED: USER        vdW + Hbond + desolv Energy     = -10.47 kcal/mol
DOCKED: USER        Electrostatic Energy            =  +0.01 kcal/mol
DOCKED: USER        Moving Ligand-Fixed Receptor    = -10.47 kcal/mol
DOCKED: USER        Moving Ligand-Moving Receptor   =  +0.00 kcal/mol
DOCKED: USER    (2) Final Total Internal Energy     =  -0.92 kcal/mol
DOCKED: USER    (3) Torsional Free Energy           =  +3.28 kcal/mol
DOCKED: USER    (4) Unbound System's Energy         =  -0.92 kcal/mol
DOCKED: USER
DOCKED: USER
DOCKED: REMARK SMILES O/C(=C\CCOc1ccc(Cl)cc1Cl)[N-]/N=C\c1cccc(C(F)(F)F)c1
DOCKED: REMARK SMILES IDX 2 1 1 2 15 4 16 5 17 6 18 7 19 8 27 9 20 10 22 11 21 12
DOCKED: REMARK SMILES IDX 23 13 24 14 25 15 26 16 3 17 4 18 5 19 6 20 7 21 8 22 13 23
DOCKED: REMARK SMILES IDX 9 24 12 25 10 26 14 27 11 28
DOCKED: REMARK H PARENT 1 3
DOCKED: USER                              x       y       z     vdW  Elec       q    Type
DOCKED: USER                           _______ _______ _______ _____ _____    ______ ____
DOCKED: ROOT
DOCKED: ATOM      1  C   UNL     1     140.618  73.136 221.728 -0.29 -0.00    +0.023 C  
DOCKED: ENDROOT
DOCKED: BRANCH   1   2
DOCKED: ATOM      2  O   UNL     1     139.771  74.057 222.340 -0.71 +0.05    -0.530 OA 
DOCKED: ATOM      3  H   UNL     1     139.057  73.752 222.991 -0.47 -0.14    +0.290 HD 
DOCKED: ENDBRANCH   1   2
DOCKED: BRANCH   1   4
DOCKED: ATOM      4  N   UNL     1     140.530  71.758 222.111 -0.06 +0.07    -0.546 NA 
DOCKED: BRANCH   4   5
DOCKED: ATOM      5  N   UNL     1     139.535  71.273 222.971 -0.13 +0.07    -0.372 NA 
DOCKED: BRANCH   5   6
DOCKED: ATOM      6  C   UNL     1     139.589  70.100 223.528 -0.24 -0.02    +0.094 C  
DOCKED: BRANCH   6   7
DOCKED: ATOM      7  C   UNL     1     139.851  69.888 224.971 -0.41 +0.00    -0.009 A  
DOCKED: ATOM      8  C   UNL     1     139.836  68.581 225.477 -0.46 -0.00    +0.009 A  
DOCKED: ATOM      9  C   UNL     1     140.195  70.953 225.825 -0.54 -0.00    +0.022 A  
DOCKED: ATOM     10  C   UNL     1     140.119  68.342 226.823 -0.64 -0.00    +0.001 A  
DOCKED: ATOM     11  C   UNL     1     140.459  70.721 227.187 -0.59 -0.01    +0.056 A  
DOCKED: ATOM     12  C   UNL     1     140.430  69.404 227.674 -0.61 -0.00    +0.013 A  
DOCKED: BRANCH  11  13
DOCKED: ATOM     13  C   UNL     1     140.861  71.849 228.105 -0.37 -0.10    +0.416 C  
DOCKED: ATOM     14  F   UNL     1     139.773  72.264 228.852 -0.26 +0.06    -0.166 F  
DOCKED: ATOM     15  F   UNL     1     141.335  72.936 227.389 -0.31 +0.04    -0.166 F  
DOCKED: ATOM     16  F   UNL     1     141.855  71.409 228.960 -0.17 +0.03    -0.166 F  
DOCKED: ENDBRANCH  11  13
DOCKED: ENDBRANCH   6   7
DOCKED: ENDBRANCH   5   6
DOCKED: ENDBRANCH   4   5
DOCKED: ENDBRANCH   1   4
DOCKED: BRANCH   1  17
DOCKED: ATOM     17  C   UNL     1     141.497  73.549 220.804 -0.26 +0.00    -0.001 C  
DOCKED: BRANCH  17  18
DOCKED: ATOM     18  C   UNL     1     142.080  74.934 220.839 -0.26 -0.03    +0.071 C  
DOCKED: BRANCH  18  19
DOCKED: ATOM     19  C   UNL     1     141.502  75.811 219.725 -0.13 -0.09    +0.234 C  
DOCKED: BRANCH  19  20
DOCKED: ATOM     20  O   UNL     1     140.706  76.859 220.275 -0.02 +0.18    -0.492 OA 
DOCKED: BRANCH  20  21
DOCKED: ATOM     21  C   UNL     1     141.147  77.829 221.192 -0.26 -0.06    +0.137 A  
DOCKED: ATOM     22  C   UNL     1     141.049  77.650 222.588 -0.43 -0.02    +0.049 A  
DOCKED: ATOM     23  C   UNL     1     141.712  79.016 220.695 -0.28 -0.05    +0.084 A  
DOCKED: ATOM     24  C   UNL     1     141.508  78.642 223.460 -0.58 -0.01    +0.024 A  
DOCKED: ATOM     25  C   UNL     1     142.168  80.005 221.574 -0.41 -0.02    +0.045 A  
DOCKED: ATOM     26  C   UNL     1     142.068  79.818 222.955 -0.57 -0.01    +0.042 A  
DOCKED: ATOM     27  Cl  UNL     1     141.846  79.282 218.962 -0.35 +0.05    -0.080 Cl 
DOCKED: ATOM     28  Cl  UNL     1     142.645  81.058 224.053 -0.67 +0.01    -0.084 Cl 
DOCKED: ENDBRANCH  20  21
DOCKED: ENDBRANCH  19  20
DOCKED: ENDBRANCH  18  19
DOCKED: ENDBRANCH  17  18
DOCKED: ENDBRANCH   1  17
DOCKED: TORSDOF 11
DOCKED: TER
DOCKED: ENDMDL
________________________________________________________________________________


    FINAL DOCKED STATE:
    ________________________


Run:   5 / 20
Time taken for this run:   0.110s

DOCKED: MODEL        5
DOCKED: USER    Run = 5
DOCKED: USER
DOCKED: USER    Estimated Free Energy of Binding    =  -5.91 kcal/mol  [=(1)+(2)+(3)-(4)]
DOCKED: USER
DOCKED: USER    (1) Final Intermolecular Energy     =  -9.19 kcal/mol
DOCKED: USER        vdW + Hbond + desolv Energy     =  -9.27 kcal/mol
DOCKED: USER        Electrostatic Energy            =  +0.08 kcal/mol
DOCKED: USER        Moving Ligand-Fixed Receptor    =  -9.19 kcal/mol
DOCKED: USER        Moving Ligand-Moving Receptor   =  +0.00 kcal/mol
DOCKED: USER    (2) Final Total Internal Energy     =  -1.41 kcal/mol
DOCKED: USER    (3) Torsional Free Energy           =  +3.28 kcal/mol
DOCKED: USER    (4) Unbound System's Energy         =  -1.41 kcal/mol
DOCKED: USER
DOCKED: USER
DOCKED: REMARK SMILES O/C(=C\CCOc1ccc(Cl)cc1Cl)[N-]/N=C\c1cccc(C(F)(F)F)c1
DOCKED: REMARK SMILES IDX 2 1 1 2 15 4 16 5 17 6 18 7 19 8 27 9 20 10 22 11 21 12
DOCKED: REMARK SMILES IDX 23 13 24 14 25 15 26 16 3 17 4 18 5 19 6 20 7 21 8 22 13 23
DOCKED: REMARK SMILES IDX 9 24 12 25 10 26 14 27 11 28
DOCKED: REMARK H PARENT 1 3
DOCKED: USER                              x       y       z     vdW  Elec       q    Type
DOCKED: USER                           _______ _______ _______ _____ _____    ______ ____
DOCKED: ROOT
DOCKED: ATOM      1  C   UNL     1     140.218  75.190 221.622 -0.32 -0.00    +0.023 C  
DOCKED: ENDROOT
DOCKED: BRANCH   1   2
DOCKED: ATOM      2  O   UNL     1     141.103  76.031 222.293 -0.23 +0.16    -0.530 OA 
DOCKED: ATOM      3  H   UNL     1     142.045  76.174 221.949 -0.45 -0.22    +0.290 HD 
DOCKED: ENDBRANCH   1   2
DOCKED: BRANCH   1   4
DOCKED: ATOM      4  N   UNL     1     139.606  74.115 222.345 -0.61 +0.07    -0.546 NA 
DOCKED: BRANCH   4   5
DOCKED: ATOM      5  N   UNL     1     139.875  72.767 222.070 -0.27 +0.06    -0.372 NA 
DOCKED: BRANCH   5   6
DOCKED: ATOM      6  C   UNL     1     140.697  72.050 222.776 -0.26 -0.01    +0.094 C  
DOCKED: BRANCH   6   7
DOCKED: ATOM      7  C   UNL     1     140.314  71.358 224.028 -0.43 +0.00    -0.009 A  
DOCKED: ATOM      8  C   UNL     1     139.575  70.170 223.946 -0.33 -0.00    +0.009 A  
DOCKED: ATOM      9  C   UNL     1     140.741  71.817 225.288 -0.43 -0.00    +0.022 A  
DOCKED: ATOM     10  C   UNL     1     139.231  69.470 225.105 -0.40 -0.00    +0.001 A  
DOCKED: ATOM     11  C   UNL     1     140.380  71.128 226.461 -0.58 -0.01    +0.056 A  
DOCKED: ATOM     12  C   UNL     1     139.631  69.945 226.356 -0.47 -0.00    +0.013 A  
DOCKED: BRANCH  11  13
DOCKED: ATOM     13  C   UNL     1     140.859  71.592 227.815 -0.40 -0.09    +0.416 C  
DOCKED: ATOM     14  F   UNL     1     139.791  72.042 228.568 -0.26 +0.05    -0.166 F  
DOCKED: ATOM     15  F   UNL     1     141.774  72.624 227.698 -0.33 +0.04    -0.166 F  
DOCKED: ATOM     16  F   UNL     1     141.461  70.533 228.471 -0.17 +0.03    -0.166 F  
DOCKED: ENDBRANCH  11  13
DOCKED: ENDBRANCH   6   7
DOCKED: ENDBRANCH   5   6
DOCKED: ENDBRANCH   4   5
DOCKED: ENDBRANCH   1   4
DOCKED: BRANCH   1  17
DOCKED: ATOM     17  C   UNL     1     139.960  75.393 220.322 -0.15 +0.00    -0.001 C  
DOCKED: BRANCH  17  18
DOCKED: ATOM     18  C   UNL     1     139.195  74.389 219.506 -0.05 -0.02    +0.071 C  
DOCKED: BRANCH  18  19
DOCKED: ATOM     19  C   UNL     1     140.118  73.300 218.952 -0.01 -0.05    +0.234 C  
DOCKED: BRANCH  19  20
DOCKED: ATOM     20  O   UNL     1     141.397  73.845 218.631 +0.02 +0.12    -0.492 OA 
DOCKED: BRANCH  20  21
DOCKED: ATOM     21  C   UNL     1     142.567  73.699 219.397 -0.13 -0.03    +0.137 A  
DOCKED: ATOM     22  C   UNL     1     142.948  72.467 219.968 -0.20 -0.01    +0.049 A  
DOCKED: ATOM     23  C   UNL     1     143.386  74.824 219.592 -0.31 -0.03    +0.084 A  
DOCKED: ATOM     24  C   UNL     1     144.125  72.371 220.717 -0.36 -0.00    +0.024 A  
DOCKED: ATOM     25  C   UNL     1     144.562  74.721 220.344 -0.39 -0.02    +0.045 A  
DOCKED: ATOM     26  C   UNL     1     144.932  73.496 220.905 -0.52 -0.01    +0.042 A  
DOCKED: ATOM     27  Cl  UNL     1     142.943  76.380 218.903 -0.43 +0.05    -0.080 Cl 
DOCKED: ATOM     28  Cl  UNL     1     146.410  73.370 221.843 -0.81 +0.01    -0.084 Cl 
DOCKED: ENDBRANCH  20  21
DOCKED: ENDBRANCH  19  20
DOCKED: ENDBRANCH  18  19
DOCKED: ENDBRANCH  17  18
DOCKED: ENDBRANCH   1  17
DOCKED: TORSDOF 11
DOCKED: TER
DOCKED: ENDMDL
________________________________________________________________________________


    FINAL DOCKED STATE:
    ________________________


Run:   6 / 20
Time taken for this run:   0.110s

DOCKED: MODEL        6
DOCKED: USER    Run = 6
DOCKED: USER
DOCKED: USER    Estimated Free Energy of Binding    =  -5.61 kcal/mol  [=(1)+(2)+(3)-(4)]
DOCKED: USER
DOCKED: USER    (1) Final Intermolecular Energy     =  -8.89 kcal/mol
DOCKED: USER        vdW + Hbond + desolv Energy     =  -9.12 kcal/mol
DOCKED: USER        Electrostatic Energy            =  +0.22 kcal/mol
DOCKED: USER        Moving Ligand-Fixed Receptor    =  -8.89 kcal/mol
DOCKED: USER        Moving Ligand-Moving Receptor   =  +0.00 kcal/mol
DOCKED: USER    (2) Final Total Internal Energy     =  -1.60 kcal/mol
DOCKED: USER    (3) Torsional Free Energy           =  +3.28 kcal/mol
DOCKED: USER    (4) Unbound System's Energy         =  -1.60 kcal/mol
DOCKED: USER
DOCKED: USER
DOCKED: REMARK SMILES O/C(=C\CCOc1ccc(Cl)cc1Cl)[N-]/N=C\c1cccc(C(F)(F)F)c1
DOCKED: REMARK SMILES IDX 2 1 1 2 15 4 16 5 17 6 18 7 19 8 27 9 20 10 22 11 21 12
DOCKED: REMARK SMILES IDX 23 13 24 14 25 15 26 16 3 17 4 18 5 19 6 20 7 21 8 22 13 23
DOCKED: REMARK SMILES IDX 9 24 12 25 10 26 14 27 11 28
DOCKED: REMARK H PARENT 1 3
DOCKED: USER                              x       y       z     vdW  Elec       q    Type
DOCKED: USER                           _______ _______ _______ _____ _____    ______ ____
DOCKED: ROOT
DOCKED: ATOM      1  C   UNL     1     140.585  74.120 221.490 -0.29 -0.00    +0.023 C  
DOCKED: ENDROOT
DOCKED: BRANCH   1   2
DOCKED: ATOM      2  O   UNL     1     139.507  74.364 222.339 -0.65 +0.08    -0.530 OA 
DOCKED: ATOM      3  H   UNL     1     139.233  73.685 223.038 -0.45 -0.11    +0.290 HD 
DOCKED: ENDBRANCH   1   2
DOCKED: BRANCH   1   4
DOCKED: ATOM      4  N   UNL     1     140.840  75.037 220.419 -0.01 +0.15    -0.546 NA 
DOCKED: BRANCH   4   5
DOCKED: ATOM      5  N   UNL     1     142.116  75.556 220.156 -0.11 +0.16    -0.372 NA 
DOCKED: BRANCH   5   6
DOCKED: ATOM      6  C   UNL     1     142.929  75.034 219.287 -0.25 -0.04    +0.094 C  
DOCKED: BRANCH   6   7
DOCKED: ATOM      7  C   UNL     1     144.053  74.140 219.650 -0.36 +0.00    -0.009 A  
DOCKED: ATOM      8  C   UNL     1     145.019  74.601 220.554 -0.41 -0.00    +0.009 A  
DOCKED: ATOM      9  C   UNL     1     144.130  72.817 219.176 -0.23 -0.00    +0.022 A  
DOCKED: ATOM     10  C   UNL     1     146.070  73.771 220.949 -0.71 -0.00    +0.001 A  
DOCKED: ATOM     11  C   UNL     1     145.198  71.982 219.553 -0.32 +0.01    +0.056 A  
DOCKED: ATOM     12  C   UNL     1     146.160  72.468 220.453 -0.40 +0.00    +0.013 A  
DOCKED: BRANCH  11  13
DOCKED: ATOM     13  C   UNL     1     145.273  70.552 219.078 -0.09 +0.16    +0.416 C  
DOCKED: ATOM     14  F   UNL     1     144.359  69.775 219.766 -0.08 -0.02    -0.166 F  
DOCKED: ATOM     15  F   UNL     1     146.535  70.020 219.281 -0.15 -0.15    -0.166 F  
DOCKED: ATOM     16  F   UNL     1     144.980  70.505 217.727 -0.02 -0.04    -0.166 F  
DOCKED: ENDBRANCH  11  13
DOCKED: ENDBRANCH   6   7
DOCKED: ENDBRANCH   5   6
DOCKED: ENDBRANCH   4   5
DOCKED: ENDBRANCH   1   4
DOCKED: BRANCH   1  17
DOCKED: ATOM     17  C   UNL     1     141.356  73.041 221.685 -0.19 +0.00    -0.001 C  
DOCKED: BRANCH  17  18
DOCKED: ATOM     18  C   UNL     1     140.894  71.665 221.292 -0.19 -0.01    +0.071 C  
DOCKED: BRANCH  18  19
DOCKED: ATOM     19  C   UNL     1     139.637  71.257 222.063 -0.15 -0.04    +0.234 C  
DOCKED: BRANCH  19  20
DOCKED: ATOM     20  O   UNL     1     139.669  71.786 223.388 -0.17 +0.11    -0.492 OA 
DOCKED: BRANCH  20  21
DOCKED: ATOM     21  C   UNL     1     139.946  71.055 224.557 -0.38 -0.03    +0.137 A  
DOCKED: ATOM     22  C   UNL     1     141.086  71.301 225.350 -0.51 -0.01    +0.049 A  
DOCKED: ATOM     23  C   UNL     1     139.047  70.048 224.948 -0.34 -0.01    +0.084 A  
DOCKED: ATOM     24  C   UNL     1     141.315  70.551 226.508 -0.54 -0.00    +0.024 A  
DOCKED: ATOM     25  C   UNL     1     139.283  69.300 226.107 -0.44 -0.01    +0.045 A  
DOCKED: ATOM     26  C   UNL     1     140.414  69.552 226.888 -0.53 -0.01    +0.042 A  
DOCKED: ATOM     27  Cl  UNL     1     137.618  69.705 223.983 -0.33 +0.01    -0.080 Cl 
DOCKED: ATOM     28  Cl  UNL     1     140.704  68.615 228.343 -0.81 +0.02    -0.084 Cl 
DOCKED: ENDBRANCH  20  21
DOCKED: ENDBRANCH  19  20
DOCKED: ENDBRANCH  18  19
DOCKED: ENDBRANCH  17  18
DOCKED: ENDBRANCH   1  17
DOCKED: TORSDOF 11
DOCKED: TER
DOCKED: ENDMDL
________________________________________________________________________________


    FINAL DOCKED STATE:
    ________________________


Run:   7 / 20
Time taken for this run:   0.110s

DOCKED: MODEL        7
DOCKED: USER    Run = 7
DOCKED: USER
DOCKED: USER    Estimated Free Energy of Binding    =  -6.52 kcal/mol  [=(1)+(2)+(3)-(4)]
DOCKED: USER
DOCKED: USER    (1) Final Intermolecular Energy     =  -9.80 kcal/mol
DOCKED: USER        vdW + Hbond + desolv Energy     =  -9.86 kcal/mol
DOCKED: USER        Electrostatic Energy            =  +0.06 kcal/mol
DOCKED: USER        Moving Ligand-Fixed Receptor    =  -9.80 kcal/mol
DOCKED: USER        Moving Ligand-Moving Receptor   =  +0.00 kcal/mol
DOCKED: USER    (2) Final Total Internal Energy     =  -1.37 kcal/mol
DOCKED: USER    (3) Torsional Free Energy           =  +3.28 kcal/mol
DOCKED: USER    (4) Unbound System's Energy         =  -1.37 kcal/mol
DOCKED: USER
DOCKED: USER
DOCKED: REMARK SMILES O/C(=C\CCOc1ccc(Cl)cc1Cl)[N-]/N=C\c1cccc(C(F)(F)F)c1
DOCKED: REMARK SMILES IDX 2 1 1 2 15 4 16 5 17 6 18 7 19 8 27 9 20 10 22 11 21 12
DOCKED: REMARK SMILES IDX 23 13 24 14 25 15 26 16 3 17 4 18 5 19 6 20 7 21 8 22 13 23
DOCKED: REMARK SMILES IDX 9 24 12 25 10 26 14 27 11 28
DOCKED: REMARK H PARENT 1 3
DOCKED: USER                              x       y       z     vdW  Elec       q    Type
DOCKED: USER                           _______ _______ _______ _____ _____    ______ ____
DOCKED: ROOT
DOCKED: ATOM      1  C   UNL     1     140.390  74.871 221.597 -0.32 -0.00    +0.023 C  
DOCKED: ENDROOT
DOCKED: BRANCH   1   2
DOCKED: ATOM      2  O   UNL     1     141.770  75.062 221.568 -0.13 +0.16    -0.530 OA 
DOCKED: ATOM      3  H   UNL     1     142.180  75.929 221.891 -0.44 -0.21    +0.290 HD 
DOCKED: ENDBRANCH   1   2
DOCKED: BRANCH   1   4
DOCKED: ATOM      4  N   UNL     1     139.863  73.753 222.321 -0.65 +0.05    -0.546 NA 
DOCKED: BRANCH   4   5
DOCKED: ATOM      5  N   UNL     1     140.664  72.685 222.752 -0.43 +0.01    -0.372 NA 
DOCKED: BRANCH   5   6
DOCKED: ATOM      6  C   UNL     1     140.197  71.493 222.975 -0.30 -0.01    +0.094 C  
DOCKED: BRANCH   6   7
DOCKED: ATOM      7  C   UNL     1     140.092  70.893 224.325 -0.43 +0.00    -0.009 A  
DOCKED: ATOM      8  C   UNL     1     139.576  69.596 224.451 -0.34 -0.00    +0.009 A  
DOCKED: ATOM      9  C   UNL     1     140.572  71.557 225.470 -0.53 -0.00    +0.022 A  
DOCKED: ATOM     10  C   UNL     1     139.500  68.984 225.704 -0.47 -0.00    +0.001 A  
DOCKED: ATOM     11  C   UNL     1     140.479  70.954 226.738 -0.59 -0.01    +0.056 A  
DOCKED: ATOM     12  C   UNL     1     139.950  69.657 226.842 -0.54 -0.00    +0.013 A  
DOCKED: BRANCH  11  13
DOCKED: ATOM     13  C   UNL     1     141.020  71.642 227.968 -0.40 -0.09    +0.416 C  
DOCKED: ATOM     14  F   UNL     1     141.832  72.699 227.602 -0.33 +0.03    -0.166 F  
DOCKED: ATOM     15  F   UNL     1     141.765  70.771 228.744 -0.12 +0.03    -0.166 F  
DOCKED: ATOM     16  F   UNL     1     139.964  72.122 228.722 -0.29 +0.05    -0.166 F  
DOCKED: ENDBRANCH  11  13
DOCKED: ENDBRANCH   6   7
DOCKED: ENDBRANCH   5   6
DOCKED: ENDBRANCH   4   5
DOCKED: ENDBRANCH   1   4
DOCKED: BRANCH   1  17
DOCKED: ATOM     17  C   UNL     1     139.584  75.726 220.950 -0.21 +0.00    -0.001 C  
DOCKED: BRANCH  17  18
DOCKED: ATOM     18  C   UNL     1     139.238  77.070 221.529 -0.22 -0.02    +0.071 C  
DOCKED: BRANCH  18  19
DOCKED: ATOM     19  C   UNL     1     140.147  77.419 222.710 -0.18 -0.06    +0.234 C  
DOCKED: BRANCH  19  20
DOCKED: ATOM     20  O   UNL     1     141.439  77.813 222.248 -0.15 +0.25    -0.492 OA 
DOCKED: BRANCH  20  21
DOCKED: ATOM     21  C   UNL     1     141.698  78.629 221.133 -0.29 -0.08    +0.137 A  
DOCKED: ATOM     22  C   UNL     1     141.940  78.098 219.848 -0.26 -0.03    +0.049 A  
DOCKED: ATOM     23  C   UNL     1     141.707  80.023 221.309 -0.35 -0.03    +0.084 A  
DOCKED: ATOM     24  C   UNL     1     142.187  78.952 218.768 -0.29 -0.02    +0.024 A  
DOCKED: ATOM     25  C   UNL     1     141.956  80.871 220.223 -0.24 -0.02    +0.045 A  
DOCKED: ATOM     26  C   UNL     1     142.194  80.337 218.954 -0.31 -0.03    +0.042 A  
DOCKED: ATOM     27  Cl  UNL     1     141.417  80.724 222.895 -0.64 +0.02    -0.080 Cl 
DOCKED: ATOM     28  Cl  UNL     1     142.501  81.404 217.595 -0.40 +0.07    -0.084 Cl 
DOCKED: ENDBRANCH  20  21
DOCKED: ENDBRANCH  19  20
DOCKED: ENDBRANCH  18  19
DOCKED: ENDBRANCH  17  18
DOCKED: ENDBRANCH   1  17
DOCKED: TORSDOF 11
DOCKED: TER
DOCKED: ENDMDL
________________________________________________________________________________


    FINAL DOCKED STATE:
    ________________________


Run:   8 / 20
Time taken for this run:   0.110s

DOCKED: MODEL        8
DOCKED: USER    Run = 8
DOCKED: USER
DOCKED: USER    Estimated Free Energy of Binding    =  -6.56 kcal/mol  [=(1)+(2)+(3)-(4)]
DOCKED: USER
DOCKED: USER    (1) Final Intermolecular Energy     =  -9.84 kcal/mol
DOCKED: USER        vdW + Hbond + desolv Energy     = -10.08 kcal/mol
DOCKED: USER        Electrostatic Energy            =  +0.25 kcal/mol
DOCKED: USER        Moving Ligand-Fixed Receptor    =  -9.84 kcal/mol
DOCKED: USER        Moving Ligand-Moving Receptor   =  +0.00 kcal/mol
DOCKED: USER    (2) Final Total Internal Energy     =  -1.15 kcal/mol
DOCKED: USER    (3) Torsional Free Energy           =  +3.28 kcal/mol
DOCKED: USER    (4) Unbound System's Energy         =  -1.15 kcal/mol
DOCKED: USER
DOCKED: USER
DOCKED: REMARK SMILES O/C(=C\CCOc1ccc(Cl)cc1Cl)[N-]/N=C\c1cccc(C(F)(F)F)c1
DOCKED: REMARK SMILES IDX 2 1 1 2 15 4 16 5 17 6 18 7 19 8 27 9 20 10 22 11 21 12
DOCKED: REMARK SMILES IDX 23 13 24 14 25 15 26 16 3 17 4 18 5 19 6 20 7 21 8 22 13 23
DOCKED: REMARK SMILES IDX 9 24 12 25 10 26 14 27 11 28
DOCKED: REMARK H PARENT 1 3
DOCKED: USER                              x       y       z     vdW  Elec       q    Type
DOCKED: USER                           _______ _______ _______ _____ _____    ______ ____
DOCKED: ROOT
DOCKED: ATOM      1  C   UNL     1     140.510  74.118 221.771 -0.22 -0.00    +0.023 C  
DOCKED: ENDROOT
DOCKED: BRANCH   1   2
DOCKED: ATOM      2  O   UNL     1     139.240  74.187 222.339 -0.56 +0.12    -0.530 OA 
DOCKED: ATOM      3  H   UNL     1     138.961  73.538 223.065 -0.46 -0.16    +0.290 HD 
DOCKED: ENDBRANCH   1   2
DOCKED: BRANCH   1   4
DOCKED: ATOM      4  N   UNL     1     141.333  75.291 221.778 -0.17 +0.14    -0.546 NA 
DOCKED: BRANCH   4   5
DOCKED: ATOM      5  N   UNL     1     140.813  76.582 221.611 -0.16 +0.13    -0.372 NA 
DOCKED: BRANCH   5   6
DOCKED: ATOM      6  C   UNL     1     140.516  77.361 222.608 -0.33 -0.03    +0.094 C  
DOCKED: BRANCH   6   7
DOCKED: ATOM      7  C   UNL     1     141.060  78.729 222.770 -0.48 +0.00    -0.009 A  
DOCKED: ATOM      8  C   UNL     1     141.992  78.971 223.787 -0.58 -0.00    +0.009 A  
DOCKED: ATOM      9  C   UNL     1     140.727  79.768 221.880 -0.31 -0.01    +0.022 A  
DOCKED: ATOM     10  C   UNL     1     142.555  80.239 223.943 -0.63 -0.00    +0.001 A  
DOCKED: ATOM     11  C   UNL     1     141.274  81.054 222.045 -0.39 -0.01    +0.056 A  
DOCKED: ATOM     12  C   UNL     1     142.200  81.276 223.077 -0.56 -0.00    +0.013 A  
DOCKED: BRANCH  11  13
DOCKED: ATOM     13  C   UNL     1     140.951  82.167 221.078 -0.15 -0.09    +0.416 C  
DOCKED: ATOM     14  F   UNL     1     141.425  83.371 221.566 -0.12 +0.02    -0.166 F  
DOCKED: ATOM     15  F   UNL     1     139.585  82.285 220.885 -0.05 +0.03    -0.166 F  
DOCKED: ATOM     16  F   UNL     1     141.554  81.903 219.862 -0.10 +0.05    -0.166 F  
DOCKED: ENDBRANCH  11  13
DOCKED: ENDBRANCH   6   7
DOCKED: ENDBRANCH   5   6
DOCKED: ENDBRANCH   4   5
DOCKED: ENDBRANCH   1   4
DOCKED: BRANCH   1  17
DOCKED: ATOM     17  C   UNL     1     140.936  72.969 221.227 -0.26 +0.00    -0.001 C  
DOCKED: BRANCH  17  18
DOCKED: ATOM     18  C   UNL     1     141.061  71.713 222.043 -0.18 -0.01    +0.071 C  
DOCKED: BRANCH  18  19
DOCKED: ATOM     19  C   UNL     1     139.689  71.183 222.466 -0.18 -0.04    +0.234 C  
DOCKED: BRANCH  19  20
DOCKED: ATOM     20  O   UNL     1     139.398  71.564 223.810 -0.15 +0.12    -0.492 OA 
DOCKED: BRANCH  20  21
DOCKED: ATOM     21  C   UNL     1     139.803  70.871 224.965 -0.38 -0.02    +0.137 A  
DOCKED: ATOM     22  C   UNL     1     140.754  71.394 225.866 -0.58 -0.01    +0.049 A  
DOCKED: ATOM     23  C   UNL     1     139.230  69.616 225.230 -0.36 -0.01    +0.084 A  
DOCKED: ATOM     24  C   UNL     1     141.120  70.669 227.004 -0.59 -0.00    +0.024 A  
DOCKED: ATOM     25  C   UNL     1     139.601  68.896 226.371 -0.50 -0.01    +0.045 A  
DOCKED: ATOM     26  C   UNL     1     140.544  69.422 227.258 -0.56 -0.01    +0.042 A  
DOCKED: ATOM     27  Cl  UNL     1     138.045  68.926 224.129 -0.37 +0.01    -0.080 Cl 
DOCKED: ATOM     28  Cl  UNL     1     141.004  68.517 228.690 -0.71 +0.02    -0.084 Cl 
DOCKED: ENDBRANCH  20  21
DOCKED: ENDBRANCH  19  20
DOCKED: ENDBRANCH  18  19
DOCKED: ENDBRANCH  17  18
DOCKED: ENDBRANCH   1  17
DOCKED: TORSDOF 11
DOCKED: TER
DOCKED: ENDMDL
________________________________________________________________________________


    FINAL DOCKED STATE:
    ________________________


Run:   9 / 20
Time taken for this run:   0.110s

DOCKED: MODEL        9
DOCKED: USER    Run = 9
DOCKED: USER
DOCKED: USER    Estimated Free Energy of Binding    =  -6.48 kcal/mol  [=(1)+(2)+(3)-(4)]
DOCKED: USER
DOCKED: USER    (1) Final Intermolecular Energy     =  -9.76 kcal/mol
DOCKED: USER        vdW + Hbond + desolv Energy     =  -9.86 kcal/mol
DOCKED: USER        Electrostatic Energy            =  +0.10 kcal/mol
DOCKED: USER        Moving Ligand-Fixed Receptor    =  -9.76 kcal/mol
DOCKED: USER        Moving Ligand-Moving Receptor   =  +0.00 kcal/mol
DOCKED: USER    (2) Final Total Internal Energy     =  -1.30 kcal/mol
DOCKED: USER    (3) Torsional Free Energy           =  +3.28 kcal/mol
DOCKED: USER    (4) Unbound System's Energy         =  -1.30 kcal/mol
DOCKED: USER
DOCKED: USER
DOCKED: REMARK SMILES O/C(=C\CCOc1ccc(Cl)cc1Cl)[N-]/N=C\c1cccc(C(F)(F)F)c1
DOCKED: REMARK SMILES IDX 2 1 1 2 15 4 16 5 17 6 18 7 19 8 27 9 20 10 22 11 21 12
DOCKED: REMARK SMILES IDX 23 13 24 14 25 15 26 16 3 17 4 18 5 19 6 20 7 21 8 22 13 23
DOCKED: REMARK SMILES IDX 9 24 12 25 10 26 14 27 11 28
DOCKED: REMARK H PARENT 1 3
DOCKED: USER                              x       y       z     vdW  Elec       q    Type
DOCKED: USER                           _______ _______ _______ _____ _____    ______ ____
DOCKED: ROOT
DOCKED: ATOM      1  C   UNL     1     140.113  73.784 221.862 -0.25 -0.00    +0.023 C  
DOCKED: ENDROOT
DOCKED: BRANCH   1   2
DOCKED: ATOM      2  O   UNL     1     139.628  75.012 222.308 -0.56 +0.07    -0.530 OA 
DOCKED: ATOM      3  H   UNL     1     139.820  75.863 221.794 +0.10 -0.06    +0.290 HD 
DOCKED: ENDBRANCH   1   2
DOCKED: BRANCH   1   4
DOCKED: ATOM      4  N   UNL     1     140.316  72.735 222.816 -0.38 +0.03    -0.546 NA 
DOCKED: BRANCH   4   5
DOCKED: ATOM      5  N   UNL     1     139.344  71.762 223.089 -0.15 +0.09    -0.372 NA 
DOCKED: BRANCH   5   6
DOCKED: ATOM      6  C   UNL     1     139.636  70.563 223.496 -0.28 -0.02    +0.094 C  
DOCKED: BRANCH   6   7
DOCKED: ATOM      7  C   UNL     1     139.911  70.221 224.911 -0.42 +0.00    -0.009 A  
DOCKED: ATOM      8  C   UNL     1     139.901  68.873 225.296 -0.42 -0.00    +0.009 A  
DOCKED: ATOM      9  C   UNL     1     140.261  71.204 225.855 -0.55 -0.00    +0.022 A  
DOCKED: ATOM     10  C   UNL     1     140.196  68.513 226.612 -0.62 -0.00    +0.001 A  
DOCKED: ATOM     11  C   UNL     1     140.538  70.849 227.188 -0.61 -0.01    +0.056 A  
DOCKED: ATOM     12  C   UNL     1     140.514  69.494 227.554 -0.60 -0.00    +0.013 A  
DOCKED: BRANCH  11  13
DOCKED: ATOM     13  C   UNL     1     140.947  71.890 228.202 -0.33 -0.10    +0.416 C  
DOCKED: ATOM     14  F   UNL     1     141.462  73.001 227.560 -0.30 +0.05    -0.166 F  
DOCKED: ATOM     15  F   UNL     1     141.914  71.401 229.064 -0.15 +0.04    -0.166 F  
DOCKED: ATOM     16  F   UNL     1     139.839  72.267 228.940 -0.24 +0.06    -0.166 F  
DOCKED: ENDBRANCH  11  13
DOCKED: ENDBRANCH   6   7
DOCKED: ENDBRANCH   5   6
DOCKED: ENDBRANCH   4   5
DOCKED: ENDBRANCH   1   4
DOCKED: BRANCH   1  17
DOCKED: ATOM     17  C   UNL     1     140.386  73.607 220.561 -0.18 +0.00    -0.001 C  
DOCKED: BRANCH  17  18
DOCKED: ATOM     18  C   UNL     1     141.105  74.656 219.759 -0.13 -0.02    +0.071 C  
DOCKED: BRANCH  18  19
DOCKED: ATOM     19  C   UNL     1     141.829  75.653 220.667 -0.17 -0.10    +0.234 C  
DOCKED: BRANCH  19  20
DOCKED: ATOM     20  O   UNL     1     141.006  76.791 220.918 -0.07 +0.20    -0.492 OA 
DOCKED: BRANCH  20  21
DOCKED: ATOM     21  C   UNL     1     141.349  77.890 221.725 -0.29 -0.07    +0.137 A  
DOCKED: ATOM     22  C   UNL     1     141.305  77.836 223.134 -0.39 -0.02    +0.049 A  
DOCKED: ATOM     23  C   UNL     1     141.757  79.080 221.100 -0.32 -0.05    +0.084 A  
DOCKED: ATOM     24  C   UNL     1     141.662  78.954 223.894 -0.59 -0.01    +0.024 A  
DOCKED: ATOM     25  C   UNL     1     142.112  80.196 221.867 -0.46 -0.02    +0.045 A  
DOCKED: ATOM     26  C   UNL     1     142.066  80.134 223.262 -0.59 -0.01    +0.042 A  
DOCKED: ATOM     27  Cl  UNL     1     141.819  79.191 219.347 -0.35 +0.05    -0.080 Cl 
DOCKED: ATOM     28  Cl  UNL     1     142.516  81.533 224.220 -0.56 +0.01    -0.084 Cl 
DOCKED: ENDBRANCH  20  21
DOCKED: ENDBRANCH  19  20
DOCKED: ENDBRANCH  18  19
DOCKED: ENDBRANCH  17  18
DOCKED: ENDBRANCH   1  17
DOCKED: TORSDOF 11
DOCKED: TER
DOCKED: ENDMDL
________________________________________________________________________________


    FINAL DOCKED STATE:
    ________________________


Run:   10 / 20
Time taken for this run:   0.110s

DOCKED: MODEL        10
DOCKED: USER    Run = 10
DOCKED: USER
DOCKED: USER    Estimated Free Energy of Binding    =  -7.06 kcal/mol  [=(1)+(2)+(3)-(4)]
DOCKED: USER
DOCKED: USER    (1) Final Intermolecular Energy     = -10.34 kcal/mol
DOCKED: USER        vdW + Hbond + desolv Energy     = -10.30 kcal/mol
DOCKED: USER        Electrostatic Energy            =  -0.04 kcal/mol
DOCKED: USER        Moving Ligand-Fixed Receptor    = -10.34 kcal/mol
DOCKED: USER        Moving Ligand-Moving Receptor   =  +0.00 kcal/mol
DOCKED: USER    (2) Final Total Internal Energy     =  -0.74 kcal/mol
DOCKED: USER    (3) Torsional Free Energy           =  +3.28 kcal/mol
DOCKED: USER    (4) Unbound System's Energy         =  -0.74 kcal/mol
DOCKED: USER
DOCKED: USER
DOCKED: REMARK SMILES O/C(=C\CCOc1ccc(Cl)cc1Cl)[N-]/N=C\c1cccc(C(F)(F)F)c1
DOCKED: REMARK SMILES IDX 2 1 1 2 15 4 16 5 17 6 18 7 19 8 27 9 20 10 22 11 21 12
DOCKED: REMARK SMILES IDX 23 13 24 14 25 15 26 16 3 17 4 18 5 19 6 20 7 21 8 22 13 23
DOCKED: REMARK SMILES IDX 9 24 12 25 10 26 14 27 11 28
DOCKED: REMARK H PARENT 1 3
DOCKED: USER                              x       y       z     vdW  Elec       q    Type
DOCKED: USER                           _______ _______ _______ _____ _____    ______ ____
DOCKED: ROOT
DOCKED: ATOM      1  C   UNL     1     140.267  74.699 221.590 -0.31 -0.00    +0.023 C  
DOCKED: ENDROOT
DOCKED: BRANCH   1   2
DOCKED: ATOM      2  O   UNL     1     141.625  74.885 221.343 -0.16 +0.14    -0.530 OA 
DOCKED: ATOM      3  H   UNL     1     142.149  75.599 221.835 -0.41 -0.17    +0.290 HD 
DOCKED: ENDBRANCH   1   2
DOCKED: BRANCH   1   4
DOCKED: ATOM      4  N   UNL     1     139.867  73.671 222.504 -0.54 +0.04    -0.546 NA 
DOCKED: BRANCH   4   5
DOCKED: ATOM      5  N   UNL     1     140.685  72.577 222.817 -0.38 +0.01    -0.372 NA 
DOCKED: BRANCH   5   6
DOCKED: ATOM      6  C   UNL     1     140.223  71.458 223.291 -0.32 -0.01    +0.094 C  
DOCKED: BRANCH   6   7
DOCKED: ATOM      7  C   UNL     1     140.444  71.004 224.684 -0.49 +0.00    -0.009 A  
DOCKED: ATOM      8  C   UNL     1     140.870  71.935 225.640 -0.39 -0.00    +0.009 A  
DOCKED: ATOM      9  C   UNL     1     140.160  69.685 225.086 -0.39 -0.00    +0.022 A  
DOCKED: ATOM     10  C   UNL     1     141.049  71.550 226.970 -0.76 -0.00    +0.001 A  
DOCKED: ATOM     11  C   UNL     1     140.359  69.285 226.420 -0.50 -0.01    +0.056 A  
DOCKED: ATOM     12  C   UNL     1     140.795  70.233 227.360 -0.60 -0.00    +0.013 A  
DOCKED: BRANCH  11  13
DOCKED: ATOM     13  C   UNL     1     140.026  67.884 226.871 -0.31 -0.08    +0.416 C  
DOCKED: ATOM     14  F   UNL     1     141.027  67.011 226.486 -0.21 +0.05    -0.166 F  
DOCKED: ATOM     15  F   UNL     1     138.834  67.448 226.319 -0.20 -0.00    -0.166 F  
DOCKED: ATOM     16  F   UNL     1     139.915  67.864 228.249 -0.15 +0.04    -0.166 F  
DOCKED: ENDBRANCH  11  13
DOCKED: ENDBRANCH   6   7
DOCKED: ENDBRANCH   5   6
DOCKED: ENDBRANCH   4   5
DOCKED: ENDBRANCH   1   4
DOCKED: BRANCH   1  17
DOCKED: ATOM     17  C   UNL     1     139.364  75.474 220.972 -0.20 +0.00    -0.001 C  
DOCKED: BRANCH  17  18
DOCKED: ATOM     18  C   UNL     1     137.939  75.550 221.444 -0.16 -0.02    +0.071 C  
DOCKED: BRANCH  18  19
DOCKED: ATOM     19  C   UNL     1     137.811  76.428 222.692 -0.21 -0.05    +0.234 C  
DOCKED: BRANCH  19  20
DOCKED: ATOM     20  O   UNL     1     138.103  77.789 222.378 -0.08 +0.09    -0.492 OA 
DOCKED: BRANCH  20  21
DOCKED: ATOM     21  C   UNL     1     139.271  78.483 222.741 -0.26 -0.03    +0.137 A  
DOCKED: ATOM     22  C   UNL     1     140.561  77.950 222.537 -0.40 -0.01    +0.049 A  
DOCKED: ATOM     23  C   UNL     1     139.142  79.756 223.322 -0.34 -0.01    +0.084 A  
DOCKED: ATOM     24  C   UNL     1     141.693  78.681 222.910 -0.52 -0.01    +0.024 A  
DOCKED: ATOM     25  C   UNL     1     140.280  80.482 223.694 -0.40 -0.01    +0.045 A  
DOCKED: ATOM     26  C   UNL     1     141.554  79.946 223.487 -0.55 -0.01    +0.042 A  
DOCKED: ATOM     27  Cl  UNL     1     137.553  80.453 223.600 -0.36 +0.01    -0.080 Cl 
DOCKED: ATOM     28  Cl  UNL     1     142.978  80.861 223.951 -0.70 +0.02    -0.084 Cl 
DOCKED: ENDBRANCH  20  21
DOCKED: ENDBRANCH  19  20
DOCKED: ENDBRANCH  18  19
DOCKED: ENDBRANCH  17  18
DOCKED: ENDBRANCH   1  17
DOCKED: TORSDOF 11
DOCKED: TER
DOCKED: ENDMDL
________________________________________________________________________________


    FINAL DOCKED STATE:
    ________________________


Run:   11 / 20
Time taken for this run:   0.110s

DOCKED: MODEL        11
DOCKED: USER    Run = 11
DOCKED: USER
DOCKED: USER    Estimated Free Energy of Binding    =  -6.62 kcal/mol  [=(1)+(2)+(3)-(4)]
DOCKED: USER
DOCKED: USER    (1) Final Intermolecular Energy     =  -9.90 kcal/mol
DOCKED: USER        vdW + Hbond + desolv Energy     =  -9.92 kcal/mol
DOCKED: USER        Electrostatic Energy            =  +0.03 kcal/mol
DOCKED: USER        Moving Ligand-Fixed Receptor    =  -9.90 kcal/mol
DOCKED: USER        Moving Ligand-Moving Receptor   =  +0.00 kcal/mol
DOCKED: USER    (2) Final Total Internal Energy     =  -1.00 kcal/mol
DOCKED: USER    (3) Torsional Free Energy           =  +3.28 kcal/mol
DOCKED: USER    (4) Unbound System's Energy         =  -1.00 kcal/mol
DOCKED: USER
DOCKED: USER
DOCKED: REMARK SMILES O/C(=C\CCOc1ccc(Cl)cc1Cl)[N-]/N=C\c1cccc(C(F)(F)F)c1
DOCKED: REMARK SMILES IDX 2 1 1 2 15 4 16 5 17 6 18 7 19 8 27 9 20 10 22 11 21 12
DOCKED: REMARK SMILES IDX 23 13 24 14 25 15 26 16 3 17 4 18 5 19 6 20 7 21 8 22 13 23
DOCKED: REMARK SMILES IDX 9 24 12 25 10 26 14 27 11 28
DOCKED: REMARK H PARENT 1 3
DOCKED: USER                              x       y       z     vdW  Elec       q    Type
DOCKED: USER                           _______ _______ _______ _____ _____    ______ ____
DOCKED: ROOT
DOCKED: ATOM      1  C   UNL     1     138.650  74.202 221.601 -0.21 -0.01    +0.023 C  
DOCKED: ENDROOT
DOCKED: BRANCH   1   2
DOCKED: ATOM      2  O   UNL     1     137.602  73.583 222.279 -0.03 +0.19    -0.530 OA 
DOCKED: ATOM      3  H   UNL     1     137.767  73.086 223.146 -0.44 -0.18    +0.290 HD 
DOCKED: ENDBRANCH   1   2
DOCKED: BRANCH   1   4
DOCKED: ATOM      4  N   UNL     1     139.994  73.819 221.912 -0.58 +0.06    -0.546 NA 
DOCKED: BRANCH   4   5
DOCKED: ATOM      5  N   UNL     1     140.316  73.009 223.011 -0.37 -0.00    -0.372 NA 
DOCKED: BRANCH   5   6
DOCKED: ATOM      6  C   UNL     1     140.083  71.730 223.041 -0.31 -0.01    +0.094 C  
DOCKED: BRANCH   6   7
DOCKED: ATOM      7  C   UNL     1     139.974  70.947 224.294 -0.43 +0.00    -0.009 A  
DOCKED: ATOM      8  C   UNL     1     139.500  69.630 224.229 -0.32 -0.00    +0.009 A  
DOCKED: ATOM      9  C   UNL     1     140.409  71.461 225.529 -0.54 -0.00    +0.022 A  
DOCKED: ATOM     10  C   UNL     1     139.422  68.849 225.384 -0.45 -0.00    +0.001 A  
DOCKED: ATOM     11  C   UNL     1     140.313  70.688 226.701 -0.55 -0.01    +0.056 A  
DOCKED: ATOM     12  C   UNL     1     139.826  69.373 226.613 -0.52 -0.00    +0.013 A  
DOCKED: BRANCH  11  13
DOCKED: ATOM     13  C   UNL     1     140.807  71.216 228.025 -0.35 -0.08    +0.416 C  
DOCKED: ATOM     14  F   UNL     1     141.475  70.219 228.714 -0.14 +0.03    -0.166 F  
DOCKED: ATOM     15  F   UNL     1     139.759  71.660 228.813 -0.24 +0.04    -0.166 F  
DOCKED: ATOM     16  F   UNL     1     141.675  72.269 227.800 -0.33 +0.03    -0.166 F  
DOCKED: ENDBRANCH  11  13
DOCKED: ENDBRANCH   6   7
DOCKED: ENDBRANCH   5   6
DOCKED: ENDBRANCH   4   5
DOCKED: ENDBRANCH   1   4
DOCKED: BRANCH   1  17
DOCKED: ATOM     17  C   UNL     1     138.386  75.141 220.680 -0.12 +0.00    -0.001 C  
DOCKED: BRANCH  17  18
DOCKED: ATOM     18  C   UNL     1     137.751  76.451 221.053 -0.11 -0.01    +0.071 C  
DOCKED: BRANCH  18  19
DOCKED: ATOM     19  C   UNL     1     137.619  76.594 222.572 -0.19 -0.05    +0.234 C  
DOCKED: BRANCH  19  20
DOCKED: ATOM     20  O   UNL     1     137.896  77.935 222.975 -0.08 +0.07    -0.492 OA 
DOCKED: BRANCH  20  21
DOCKED: ATOM     21  C   UNL     1     139.174  78.510 223.086 -0.25 -0.02    +0.137 A  
DOCKED: ATOM     22  C   UNL     1     140.344  77.840 222.671 -0.38 -0.01    +0.049 A  
DOCKED: ATOM     23  C   UNL     1     139.283  79.803 223.625 -0.37 -0.01    +0.084 A  
DOCKED: ATOM     24  C   UNL     1     141.592  78.457 222.797 -0.47 -0.01    +0.024 A  
DOCKED: ATOM     25  C   UNL     1     140.536  80.414 223.749 -0.41 -0.01    +0.045 A  
DOCKED: ATOM     26  C   UNL     1     141.690  79.743 223.334 -0.56 -0.01    +0.042 A  
DOCKED: ATOM     27  Cl  UNL     1     137.851  80.670 224.161 -0.44 +0.01    -0.080 Cl 
DOCKED: ATOM     28  Cl  UNL     1     143.258  80.515 223.487 -0.72 +0.02    -0.084 Cl 
DOCKED: ENDBRANCH  20  21
DOCKED: ENDBRANCH  19  20
DOCKED: ENDBRANCH  18  19
DOCKED: ENDBRANCH  17  18
DOCKED: ENDBRANCH   1  17
DOCKED: TORSDOF 11
DOCKED: TER
DOCKED: ENDMDL
________________________________________________________________________________


    FINAL DOCKED STATE:
    ________________________


Run:   12 / 20
Time taken for this run:   0.110s

DOCKED: MODEL        12
DOCKED: USER    Run = 12
DOCKED: USER
DOCKED: USER    Estimated Free Energy of Binding    =  -6.45 kcal/mol  [=(1)+(2)+(3)-(4)]
DOCKED: USER
DOCKED: USER    (1) Final Intermolecular Energy     =  -9.73 kcal/mol
DOCKED: USER        vdW + Hbond + desolv Energy     =  -9.81 kcal/mol
DOCKED: USER        Electrostatic Energy            =  +0.08 kcal/mol
DOCKED: USER        Moving Ligand-Fixed Receptor    =  -9.73 kcal/mol
DOCKED: USER        Moving Ligand-Moving Receptor   =  +0.00 kcal/mol
DOCKED: USER    (2) Final Total Internal Energy     =  -1.29 kcal/mol
DOCKED: USER    (3) Torsional Free Energy           =  +3.28 kcal/mol
DOCKED: USER    (4) Unbound System's Energy         =  -1.29 kcal/mol
DOCKED: USER
DOCKED: USER
DOCKED: REMARK SMILES O/C(=C\CCOc1ccc(Cl)cc1Cl)[N-]/N=C\c1cccc(C(F)(F)F)c1
DOCKED: REMARK SMILES IDX 2 1 1 2 15 4 16 5 17 6 18 7 19 8 27 9 20 10 22 11 21 12
DOCKED: REMARK SMILES IDX 23 13 24 14 25 15 26 16 3 17 4 18 5 19 6 20 7 21 8 22 13 23
DOCKED: REMARK SMILES IDX 9 24 12 25 10 26 14 27 11 28
DOCKED: REMARK H PARENT 1 3
DOCKED: USER                              x       y       z     vdW  Elec       q    Type
DOCKED: USER                           _______ _______ _______ _____ _____    ______ ____
DOCKED: ROOT
DOCKED: ATOM      1  C   UNL     1     139.840  71.716 222.080 -0.25 -0.00    +0.023 C  
DOCKED: ENDROOT
DOCKED: BRANCH   1   2
DOCKED: ATOM      2  O   UNL     1     140.041  72.643 223.100 -0.43 +0.07    -0.530 OA 
DOCKED: ATOM      3  H   UNL     1     139.511  73.506 223.128 -0.42 -0.08    +0.290 HD 
DOCKED: ENDBRANCH   1   2
DOCKED: BRANCH   1   4
DOCKED: ATOM      4  N   UNL     1     139.604  70.347 222.429 +0.01 +0.09    -0.546 NA 
DOCKED: BRANCH   4   5
DOCKED: ATOM      5  N   UNL     1     138.858  69.970 223.555 -0.08 +0.06    -0.372 NA 
DOCKED: BRANCH   5   6
DOCKED: ATOM      6  C   UNL     1     139.158  68.945 224.295 -0.29 -0.01    +0.094 C  
DOCKED: BRANCH   6   7
DOCKED: ATOM      7  C   UNL     1     139.788  69.054 225.631 -0.46 +0.00    -0.009 A  
DOCKED: ATOM      8  C   UNL     1     140.181  67.882 226.292 -0.64 -0.00    +0.009 A  
DOCKED: ATOM      9  C   UNL     1     140.074  70.302 226.215 -0.51 -0.00    +0.022 A  
DOCKED: ATOM     10  C   UNL     1     140.813  67.950 227.535 -0.64 -0.00    +0.001 A  
DOCKED: ATOM     11  C   UNL     1     140.691  70.377 227.477 -0.58 -0.01    +0.056 A  
DOCKED: ATOM     12  C   UNL     1     141.069  69.190 228.125 -0.60 -0.00    +0.013 A  
DOCKED: BRANCH  11  13
DOCKED: ATOM     13  C   UNL     1     141.034  71.709 228.098 -0.36 -0.09    +0.416 C  
DOCKED: ATOM     14  F   UNL     1     139.924  72.235 228.735 -0.29 +0.06    -0.166 F  
DOCKED: ATOM     15  F   UNL     1     141.456  72.617 227.142 -0.34 +0.03    -0.166 F  
DOCKED: ATOM     16  F   UNL     1     142.045  71.533 229.025 -0.16 +0.03    -0.166 F  
DOCKED: ENDBRANCH  11  13
DOCKED: ENDBRANCH   6   7
DOCKED: ENDBRANCH   5   6
DOCKED: ENDBRANCH   4   5
DOCKED: ENDBRANCH   1   4
DOCKED: BRANCH   1  17
DOCKED: ATOM     17  C   UNL     1     139.874  72.114 220.800 -0.14 +0.00    -0.001 C  
DOCKED: BRANCH  17  18
DOCKED: ATOM     18  C   UNL     1     139.425  73.489 220.392 -0.10 -0.01    +0.071 C  
DOCKED: BRANCH  18  19
DOCKED: ATOM     19  C   UNL     1     140.471  74.547 220.754 -0.16 -0.05    +0.234 C  
DOCKED: BRANCH  19  20
DOCKED: ATOM     20  O   UNL     1     140.239  75.052 222.069 -0.58 +0.05    -0.492 OA 
DOCKED: BRANCH  20  21
DOCKED: ATOM     21  C   UNL     1     140.028  76.401 222.405 -0.29 -0.03    +0.137 A  
DOCKED: ATOM     22  C   UNL     1     141.092  77.307 222.596 -0.38 -0.02    +0.049 A  
DOCKED: ATOM     23  C   UNL     1     138.707  76.858 222.546 -0.27 -0.02    +0.084 A  
DOCKED: ATOM     24  C   UNL     1     140.831  78.641 222.923 -0.47 -0.01    +0.024 A  
DOCKED: ATOM     25  C   UNL     1     138.454  78.195 222.875 -0.25 -0.01    +0.045 A  
DOCKED: ATOM     26  C   UNL     1     139.513  79.086 223.062 -0.35 -0.01    +0.042 A  
DOCKED: ATOM     27  Cl  UNL     1     137.353  75.759 222.324 -0.30 +0.02    -0.080 Cl 
DOCKED: ATOM     28  Cl  UNL     1     139.191  80.762 223.469 -0.46 +0.01    -0.084 Cl 
DOCKED: ENDBRANCH  20  21
DOCKED: ENDBRANCH  19  20
DOCKED: ENDBRANCH  18  19
DOCKED: ENDBRANCH  17  18
DOCKED: ENDBRANCH   1  17
DOCKED: TORSDOF 11
DOCKED: TER
DOCKED: ENDMDL
________________________________________________________________________________


    FINAL DOCKED STATE:
    ________________________


Run:   13 / 20
Time taken for this run:   0.110s

DOCKED: MODEL        13
DOCKED: USER    Run = 13
DOCKED: USER
DOCKED: USER    Estimated Free Energy of Binding    =  -6.78 kcal/mol  [=(1)+(2)+(3)-(4)]
DOCKED: USER
DOCKED: USER    (1) Final Intermolecular Energy     = -10.06 kcal/mol
DOCKED: USER        vdW + Hbond + desolv Energy     = -10.03 kcal/mol
DOCKED: USER        Electrostatic Energy            =  -0.03 kcal/mol
DOCKED: USER        Moving Ligand-Fixed Receptor    = -10.06 kcal/mol
DOCKED: USER        Moving Ligand-Moving Receptor   =  +0.00 kcal/mol
DOCKED: USER    (2) Final Total Internal Energy     =  -0.93 kcal/mol
DOCKED: USER    (3) Torsional Free Energy           =  +3.28 kcal/mol
DOCKED: USER    (4) Unbound System's Energy         =  -0.93 kcal/mol
DOCKED: USER
DOCKED: USER
DOCKED: REMARK SMILES O/C(=C\CCOc1ccc(Cl)cc1Cl)[N-]/N=C\c1cccc(C(F)(F)F)c1
DOCKED: REMARK SMILES IDX 2 1 1 2 15 4 16 5 17 6 18 7 19 8 27 9 20 10 22 11 21 12
DOCKED: REMARK SMILES IDX 23 13 24 14 25 15 26 16 3 17 4 18 5 19 6 20 7 21 8 22 13 23
DOCKED: REMARK SMILES IDX 9 24 12 25 10 26 14 27 11 28
DOCKED: REMARK H PARENT 1 3
DOCKED: USER                              x       y       z     vdW  Elec       q    Type
DOCKED: USER                           _______ _______ _______ _____ _____    ______ ____
DOCKED: ROOT
DOCKED: ATOM      1  C   UNL     1     140.106  74.373 221.741 -0.25 -0.00    +0.023 C  
DOCKED: ENDROOT
DOCKED: BRANCH   1   2
DOCKED: ATOM      2  O   UNL     1     138.931  74.842 222.325 -0.32 +0.14    -0.530 OA 
DOCKED: ATOM      3  H   UNL     1     138.497  74.340 223.090 -0.49 -0.20    +0.290 HD 
DOCKED: ENDBRANCH   1   2
DOCKED: BRANCH   1   4
DOCKED: ATOM      4  N   UNL     1     140.728  73.203 222.286 -0.47 -0.00    -0.546 NA 
DOCKED: BRANCH   4   5
DOCKED: ATOM      5  N   UNL     1     140.169  72.472 223.344 -0.26 +0.05    -0.372 NA 
DOCKED: BRANCH   5   6
DOCKED: ATOM      6  C   UNL     1     140.700  71.381 223.811 -0.28 -0.01    +0.094 C  
DOCKED: BRANCH   6   7
DOCKED: ATOM      7  C   UNL     1     140.838  71.090 225.257 -0.55 +0.00    -0.009 A  
DOCKED: ATOM      8  C   UNL     1     141.044  72.154 226.145 -0.38 -0.00    +0.009 A  
DOCKED: ATOM      9  C   UNL     1     140.686  69.787 225.767 -0.49 -0.00    +0.022 A  
DOCKED: ATOM     10  C   UNL     1     141.138  71.920 227.518 -0.83 -0.00    +0.001 A  
DOCKED: ATOM     11  C   UNL     1     140.802  69.541 227.147 -0.54 -0.01    +0.056 A  
DOCKED: ATOM     12  C   UNL     1     141.017  70.621 228.018 -0.65 -0.00    +0.013 A  
DOCKED: BRANCH  11  13
DOCKED: ATOM     13  C   UNL     1     140.608  68.154 227.710 -0.29 -0.11    +0.416 C  
DOCKED: ATOM     14  F   UNL     1     141.312  68.020 228.893 -0.23 +0.05    -0.166 F  
DOCKED: ATOM     15  F   UNL     1     141.055  67.186 226.827 -0.22 +0.05    -0.166 F  
DOCKED: ATOM     16  F   UNL     1     139.263  67.948 227.958 -0.08 +0.03    -0.166 F  
DOCKED: ENDBRANCH  11  13
DOCKED: ENDBRANCH   6   7
DOCKED: ENDBRANCH   5   6
DOCKED: ENDBRANCH   4   5
DOCKED: ENDBRANCH   1   4
DOCKED: BRANCH   1  17
DOCKED: ATOM     17  C   UNL     1     140.633  75.019 220.691 -0.24 +0.00    -0.001 C  
DOCKED: BRANCH  17  18
DOCKED: ATOM     18  C   UNL     1     141.463  76.260 220.867 -0.26 -0.03    +0.071 C  
DOCKED: BRANCH  18  19
DOCKED: ATOM     19  C   UNL     1     141.039  77.041 222.114 -0.24 -0.10    +0.234 C  
DOCKED: BRANCH  19  20
DOCKED: ATOM     20  O   UNL     1     140.465  78.295 221.748 -0.06 +0.16    -0.492 OA 
DOCKED: BRANCH  20  21
DOCKED: ATOM     21  C   UNL     1     139.607  79.069 222.549 -0.25 -0.03    +0.137 A  
DOCKED: ATOM     22  C   UNL     1     138.214  78.854 222.592 -0.23 -0.01    +0.049 A  
DOCKED: ATOM     23  C   UNL     1     140.165  80.089 223.338 -0.39 -0.01    +0.084 A  
DOCKED: ATOM     24  C   UNL     1     137.403  79.647 223.410 -0.23 -0.00    +0.024 A  
DOCKED: ATOM     25  C   UNL     1     139.347  80.880 224.153 -0.21 -0.00    +0.045 A  
DOCKED: ATOM     26  C   UNL     1     137.968  80.659 224.191 -0.36 -0.00    +0.042 A  
DOCKED: ATOM     27  Cl  UNL     1     141.896  80.395 223.307 -0.76 +0.02    -0.080 Cl 
DOCKED: ATOM     28  Cl  UNL     1     136.947  81.650 225.218 -0.46 +0.01    -0.084 Cl 
DOCKED: ENDBRANCH  20  21
DOCKED: ENDBRANCH  19  20
DOCKED: ENDBRANCH  18  19
DOCKED: ENDBRANCH  17  18
DOCKED: ENDBRANCH   1  17
DOCKED: TORSDOF 11
DOCKED: TER
DOCKED: ENDMDL
________________________________________________________________________________


    FINAL DOCKED STATE:
    ________________________


Run:   14 / 20
Time taken for this run:   0.110s

DOCKED: MODEL        14
DOCKED: USER    Run = 14
DOCKED: USER
DOCKED: USER    Estimated Free Energy of Binding    =  -6.29 kcal/mol  [=(1)+(2)+(3)-(4)]
DOCKED: USER
DOCKED: USER    (1) Final Intermolecular Energy     =  -9.57 kcal/mol
DOCKED: USER        vdW + Hbond + desolv Energy     =  -9.74 kcal/mol
DOCKED: USER        Electrostatic Energy            =  +0.17 kcal/mol
DOCKED: USER        Moving Ligand-Fixed Receptor    =  -9.57 kcal/mol
DOCKED: USER        Moving Ligand-Moving Receptor   =  +0.00 kcal/mol
DOCKED: USER    (2) Final Total Internal Energy     =  -1.14 kcal/mol
DOCKED: USER    (3) Torsional Free Energy           =  +3.28 kcal/mol
DOCKED: USER    (4) Unbound System's Energy         =  -1.14 kcal/mol
DOCKED: USER
DOCKED: USER
DOCKED: REMARK SMILES O/C(=C\CCOc1ccc(Cl)cc1Cl)[N-]/N=C\c1cccc(C(F)(F)F)c1
DOCKED: REMARK SMILES IDX 2 1 1 2 15 4 16 5 17 6 18 7 19 8 27 9 20 10 22 11 21 12
DOCKED: REMARK SMILES IDX 23 13 24 14 25 15 26 16 3 17 4 18 5 19 6 20 7 21 8 22 13 23
DOCKED: REMARK SMILES IDX 9 24 12 25 10 26 14 27 11 28
DOCKED: REMARK H PARENT 1 3
DOCKED: USER                              x       y       z     vdW  Elec       q    Type
DOCKED: USER                           _______ _______ _______ _____ _____    ______ ____
DOCKED: ROOT
DOCKED: ATOM      1  C   UNL     1     140.400  73.683 221.939 -0.24 -0.00    +0.023 C  
DOCKED: ENDROOT
DOCKED: BRANCH   1   2
DOCKED: ATOM      2  O   UNL     1     139.047  73.753 222.262 -0.32 +0.14    -0.530 OA 
DOCKED: ATOM      3  H   UNL     1     138.689  73.302 223.095 -0.45 -0.18    +0.290 HD 
DOCKED: ENDBRANCH   1   2
DOCKED: BRANCH   1   4
DOCKED: ATOM      4  N   UNL     1     141.086  74.888 221.578 -0.27 +0.10    -0.546 NA 
DOCKED: BRANCH   4   5
DOCKED: ATOM      5  N   UNL     1     141.026  76.055 222.354 -0.23 +0.11    -0.372 NA 
DOCKED: BRANCH   5   6
DOCKED: ATOM      6  C   UNL     1     140.502  77.164 221.927 -0.34 -0.03    +0.094 C  
DOCKED: BRANCH   6   7
DOCKED: ATOM      7  C   UNL     1     140.999  78.507 222.308 -0.42 +0.00    -0.009 A  
DOCKED: ATOM      8  C   UNL     1     141.785  78.634 223.462 -0.60 -0.00    +0.009 A  
DOCKED: ATOM      9  C   UNL     1     140.773  79.637 221.501 -0.29 -0.01    +0.022 A  
DOCKED: ATOM     10  C   UNL     1     142.304  79.878 223.829 -0.63 -0.00    +0.001 A  
DOCKED: ATOM     11  C   UNL     1     141.275  80.897 221.877 -0.38 -0.01    +0.056 A  
DOCKED: ATOM     12  C   UNL     1     142.052  81.003 223.042 -0.58 -0.00    +0.013 A  
DOCKED: BRANCH  11  13
DOCKED: ATOM     13  C   UNL     1     141.067  82.110 221.003 -0.15 -0.09    +0.416 C  
DOCKED: ATOM     14  F   UNL     1     139.723  82.264 220.717 -0.05 +0.03    -0.166 F  
DOCKED: ATOM     15  F   UNL     1     141.754  81.991 219.807 -0.10 +0.05    -0.166 F  
DOCKED: ATOM     16  F   UNL     1     141.520  83.234 221.670 -0.10 +0.02    -0.166 F  
DOCKED: ENDBRANCH  11  13
DOCKED: ENDBRANCH   6   7
DOCKED: ENDBRANCH   5   6
DOCKED: ENDBRANCH   4   5
DOCKED: ENDBRANCH   1   4
DOCKED: BRANCH   1  17
DOCKED: ATOM     17  C   UNL     1     141.032  72.501 221.966 -0.28 +0.00    -0.001 C  
DOCKED: BRANCH  17  18
DOCKED: ATOM     18  C   UNL     1     140.357  71.238 221.508 -0.17 -0.01    +0.071 C  
DOCKED: BRANCH  18  19
DOCKED: ATOM     19  C   UNL     1     139.111  70.938 222.345 -0.14 -0.04    +0.234 C  
DOCKED: BRANCH  19  20
DOCKED: ATOM     20  O   UNL     1     139.244  71.486 223.656 -0.14 +0.12    -0.492 OA 
DOCKED: BRANCH  20  21
DOCKED: ATOM     21  C   UNL     1     139.710  70.797 224.790 -0.36 -0.03    +0.137 A  
DOCKED: ATOM     22  C   UNL     1     140.931  71.117 225.420 -0.54 -0.01    +0.049 A  
DOCKED: ATOM     23  C   UNL     1     138.924  69.757 225.313 -0.34 -0.01    +0.084 A  
DOCKED: ATOM     24  C   UNL     1     141.349  70.406 226.549 -0.51 -0.00    +0.024 A  
DOCKED: ATOM     25  C   UNL     1     139.349  69.049 226.443 -0.48 -0.01    +0.045 A  
DOCKED: ATOM     26  C   UNL     1     140.559  69.374 227.062 -0.55 -0.01    +0.042 A  
DOCKED: ATOM     27  Cl  UNL     1     137.400  69.321 224.553 -0.36 +0.01    -0.080 Cl 
DOCKED: ATOM     28  Cl  UNL     1     141.086  68.487 228.481 -0.74 +0.02    -0.084 Cl 
DOCKED: ENDBRANCH  20  21
DOCKED: ENDBRANCH  19  20
DOCKED: ENDBRANCH  18  19
DOCKED: ENDBRANCH  17  18
DOCKED: ENDBRANCH   1  17
DOCKED: TORSDOF 11
DOCKED: TER
DOCKED: ENDMDL
________________________________________________________________________________


    FINAL DOCKED STATE:
    ________________________


Run:   15 / 20
Time taken for this run:   0.110s

DOCKED: MODEL        15
DOCKED: USER    Run = 15
DOCKED: USER
DOCKED: USER    Estimated Free Energy of Binding    =  -6.14 kcal/mol  [=(1)+(2)+(3)-(4)]
DOCKED: USER
DOCKED: USER    (1) Final Intermolecular Energy     =  -9.43 kcal/mol
DOCKED: USER        vdW + Hbond + desolv Energy     =  -9.61 kcal/mol
DOCKED: USER        Electrostatic Energy            =  +0.19 kcal/mol
DOCKED: USER        Moving Ligand-Fixed Receptor    =  -9.43 kcal/mol
DOCKED: USER        Moving Ligand-Moving Receptor   =  +0.00 kcal/mol
DOCKED: USER    (2) Final Total Internal Energy     =  -1.22 kcal/mol
DOCKED: USER    (3) Torsional Free Energy           =  +3.28 kcal/mol
DOCKED: USER    (4) Unbound System's Energy         =  -1.22 kcal/mol
DOCKED: USER
DOCKED: USER
DOCKED: REMARK SMILES O/C(=C\CCOc1ccc(Cl)cc1Cl)[N-]/N=C\c1cccc(C(F)(F)F)c1
DOCKED: REMARK SMILES IDX 2 1 1 2 15 4 16 5 17 6 18 7 19 8 27 9 20 10 22 11 21 12
DOCKED: REMARK SMILES IDX 23 13 24 14 25 15 26 16 3 17 4 18 5 19 6 20 7 21 8 22 13 23
DOCKED: REMARK SMILES IDX 9 24 12 25 10 26 14 27 11 28
DOCKED: REMARK H PARENT 1 3
DOCKED: USER                              x       y       z     vdW  Elec       q    Type
DOCKED: USER                           _______ _______ _______ _____ _____    ______ ____
DOCKED: ROOT
DOCKED: ATOM      1  C   UNL     1     139.404  74.452 221.539 -0.25 -0.00    +0.023 C  
DOCKED: ENDROOT
DOCKED: BRANCH   1   2
DOCKED: ATOM      2  O   UNL     1     138.299  73.888 222.173 -0.06 +0.18    -0.530 OA 
DOCKED: ATOM      3  H   UNL     1     138.386  73.470 223.091 -0.47 -0.21    +0.290 HD 
DOCKED: ENDBRANCH   1   2
DOCKED: BRANCH   1   4
DOCKED: ATOM      4  N   UNL     1     139.462  75.875 221.389 -0.06 +0.12    -0.546 NA 
DOCKED: BRANCH   4   5
DOCKED: ATOM      5  N   UNL     1     139.835  76.732 222.435 -0.17 +0.08    -0.372 NA 
DOCKED: BRANCH   5   6
DOCKED: ATOM      6  C   UNL     1     141.051  77.162 222.600 -0.31 -0.04    +0.094 C  
DOCKED: BRANCH   6   7
DOCKED: ATOM      7  C   UNL     1     141.401  78.594 222.748 -0.51 +0.00    -0.009 A  
DOCKED: ATOM      8  C   UNL     1     142.175  78.991 223.847 -0.54 -0.00    +0.009 A  
DOCKED: ATOM      9  C   UNL     1     141.046  79.547 221.775 -0.35 -0.01    +0.022 A  
DOCKED: ATOM     10  C   UNL     1     142.557  80.326 223.996 -0.62 -0.00    +0.001 A  
DOCKED: ATOM     11  C   UNL     1     141.409  80.897 221.931 -0.40 -0.01    +0.056 A  
DOCKED: ATOM     12  C   UNL     1     142.178  81.275 223.044 -0.55 -0.00    +0.013 A  
DOCKED: BRANCH  11  13
DOCKED: ATOM     13  C   UNL     1     141.064  81.922 220.878 -0.14 -0.10    +0.416 C  
DOCKED: ATOM     14  F   UNL     1     139.723  81.832 220.550 -0.04 +0.04    -0.166 F  
DOCKED: ATOM     15  F   UNL     1     141.806  81.730 219.726 -0.10 +0.06    -0.166 F  
DOCKED: ATOM     16  F   UNL     1     141.324  83.187 221.372 -0.12 +0.03    -0.166 F  
DOCKED: ENDBRANCH  11  13
DOCKED: ENDBRANCH   6   7
DOCKED: ENDBRANCH   5   6
DOCKED: ENDBRANCH   4   5
DOCKED: ENDBRANCH   1   4
DOCKED: BRANCH   1  17
DOCKED: ATOM     17  C   UNL     1     140.384  73.661 221.078 -0.24 +0.00    -0.001 C  
DOCKED: BRANCH  17  18
DOCKED: ATOM     18  C   UNL     1     141.069  72.660 221.967 -0.24 -0.00    +0.071 C  
DOCKED: BRANCH  18  19
DOCKED: ATOM     19  C   UNL     1     140.114  71.538 222.382 -0.21 -0.03    +0.234 C  
DOCKED: BRANCH  19  20
DOCKED: ATOM     20  O   UNL     1     139.593  71.781 223.688 -0.17 +0.12    -0.492 OA 
DOCKED: BRANCH  20  21
DOCKED: ATOM     21  C   UNL     1     139.890  71.034 224.842 -0.39 -0.03    +0.137 A  
DOCKED: ATOM     22  C   UNL     1     140.771  71.501 225.839 -0.58 -0.01    +0.049 A  
DOCKED: ATOM     23  C   UNL     1     139.277  69.780 225.005 -0.35 -0.01    +0.084 A  
DOCKED: ATOM     24  C   UNL     1     141.029  70.723 226.972 -0.62 -0.00    +0.024 A  
DOCKED: ATOM     25  C   UNL     1     139.541  69.007 226.141 -0.47 -0.01    +0.045 A  
DOCKED: ATOM     26  C   UNL     1     140.414  69.477 227.125 -0.55 -0.01    +0.042 A  
DOCKED: ATOM     27  Cl  UNL     1     138.178  69.159 223.782 -0.35 +0.01    -0.080 Cl 
DOCKED: ATOM     28  Cl  UNL     1     140.739  68.507 228.550 -0.76 +0.02    -0.084 Cl 
DOCKED: ENDBRANCH  20  21
DOCKED: ENDBRANCH  19  20
DOCKED: ENDBRANCH  18  19
DOCKED: ENDBRANCH  17  18
DOCKED: ENDBRANCH   1  17
DOCKED: TORSDOF 11
DOCKED: TER
DOCKED: ENDMDL
________________________________________________________________________________


    FINAL DOCKED STATE:
    ________________________


Run:   16 / 20
Time taken for this run:   0.110s

DOCKED: MODEL        16
DOCKED: USER    Run = 16
DOCKED: USER
DOCKED: USER    Estimated Free Energy of Binding    =  -6.32 kcal/mol  [=(1)+(2)+(3)-(4)]
DOCKED: USER
DOCKED: USER    (1) Final Intermolecular Energy     =  -9.60 kcal/mol
DOCKED: USER        vdW + Hbond + desolv Energy     =  -9.61 kcal/mol
DOCKED: USER        Electrostatic Energy            =  +0.01 kcal/mol
DOCKED: USER        Moving Ligand-Fixed Receptor    =  -9.60 kcal/mol
DOCKED: USER        Moving Ligand-Moving Receptor   =  +0.00 kcal/mol
DOCKED: USER    (2) Final Total Internal Energy     =  -1.43 kcal/mol
DOCKED: USER    (3) Torsional Free Energy           =  +3.28 kcal/mol
DOCKED: USER    (4) Unbound System's Energy         =  -1.43 kcal/mol
DOCKED: USER
DOCKED: USER
DOCKED: REMARK SMILES O/C(=C\CCOc1ccc(Cl)cc1Cl)[N-]/N=C\c1cccc(C(F)(F)F)c1
DOCKED: REMARK SMILES IDX 2 1 1 2 15 4 16 5 17 6 18 7 19 8 27 9 20 10 22 11 21 12
DOCKED: REMARK SMILES IDX 23 13 24 14 25 15 26 16 3 17 4 18 5 19 6 20 7 21 8 22 13 23
DOCKED: REMARK SMILES IDX 9 24 12 25 10 26 14 27 11 28
DOCKED: REMARK H PARENT 1 3
DOCKED: USER                              x       y       z     vdW  Elec       q    Type
DOCKED: USER                           _______ _______ _______ _____ _____    ______ ____
DOCKED: ROOT
DOCKED: ATOM      1  C   UNL     1     139.819  75.401 221.987 -0.30 -0.00    +0.023 C  
DOCKED: ENDROOT
DOCKED: BRANCH   1   2
DOCKED: ATOM      2  O   UNL     1     138.591  75.553 222.629 -0.16 +0.14    -0.530 OA 
DOCKED: ATOM      3  H   UNL     1     138.145  74.767 223.086 -0.44 -0.18    +0.290 HD 
DOCKED: ENDBRANCH   1   2
DOCKED: BRANCH   1   4
DOCKED: ATOM      4  N   UNL     1     140.496  74.142 222.083 -0.59 +0.00    -0.546 NA 
DOCKED: BRANCH   4   5
DOCKED: ATOM      5  N   UNL     1     139.907  73.008 222.660 -0.56 +0.05    -0.372 NA 
DOCKED: BRANCH   5   6
DOCKED: ATOM      6  C   UNL     1     140.588  71.961 223.018 -0.27 -0.01    +0.094 C  
DOCKED: BRANCH   6   7
DOCKED: ATOM      7  C   UNL     1     140.285  71.161 224.228 -0.45 +0.00    -0.009 A  
DOCKED: ATOM      8  C   UNL     1     139.685  69.903 224.075 -0.31 -0.00    +0.009 A  
DOCKED: ATOM      9  C   UNL     1     140.657  71.594 225.514 -0.54 -0.00    +0.022 A  
DOCKED: ATOM     10  C   UNL     1     139.422  69.106 225.191 -0.42 -0.00    +0.001 A  
DOCKED: ATOM     11  C   UNL     1     140.375  70.805 226.645 -0.56 -0.01    +0.056 A  
DOCKED: ATOM     12  C   UNL     1     139.766  69.552 226.469 -0.50 -0.00    +0.013 A  
DOCKED: BRANCH  11  13
DOCKED: ATOM     13  C   UNL     1     140.799  71.243 228.025 -0.36 -0.08    +0.416 C  
DOCKED: ATOM     14  F   UNL     1     139.704  71.702 228.734 -0.26 +0.04    -0.166 F  
DOCKED: ATOM     15  F   UNL     1     141.735  72.261 227.965 -0.33 +0.03    -0.166 F  
DOCKED: ATOM     16  F   UNL     1     141.352  70.166 228.695 -0.14 +0.03    -0.166 F  
DOCKED: ENDBRANCH  11  13
DOCKED: ENDBRANCH   6   7
DOCKED: ENDBRANCH   5   6
DOCKED: ENDBRANCH   4   5
DOCKED: ENDBRANCH   1   4
DOCKED: BRANCH   1  17
DOCKED: ATOM     17  C   UNL     1     140.344  76.426 221.300 -0.30 +0.00    -0.001 C  
DOCKED: BRANCH  17  18
DOCKED: ATOM     18  C   UNL     1     140.181  76.539 219.810 -0.10 -0.02    +0.071 C  
DOCKED: BRANCH  18  19
DOCKED: ATOM     19  C   UNL     1     139.883  75.177 219.177 -0.02 -0.06    +0.234 C  
DOCKED: BRANCH  19  20
DOCKED: ATOM     20  O   UNL     1     141.069  74.613 218.620 +0.02 +0.13    -0.492 OA 
DOCKED: BRANCH  20  21
DOCKED: ATOM     21  C   UNL     1     142.234  74.282 219.334 -0.13 -0.04    +0.137 A  
DOCKED: ATOM     22  C   UNL     1     142.401  73.036 219.974 -0.18 -0.01    +0.049 A  
DOCKED: ATOM     23  C   UNL     1     143.270  75.229 219.405 -0.31 -0.04    +0.084 A  
DOCKED: ATOM     24  C   UNL     1     143.581  72.751 220.667 -0.32 -0.00    +0.024 A  
DOCKED: ATOM     25  C   UNL     1     144.448  74.938 220.102 -0.38 -0.02    +0.045 A  
DOCKED: ATOM     26  C   UNL     1     144.605  73.700 220.731 -0.48 -0.01    +0.042 A  
DOCKED: ATOM     27  Cl  UNL     1     143.100  76.797 218.628 -0.40 +0.05    -0.080 Cl 
DOCKED: ATOM     28  Cl  UNL     1     146.085  73.337 221.600 -0.83 +0.02    -0.084 Cl 
DOCKED: ENDBRANCH  20  21
DOCKED: ENDBRANCH  19  20
DOCKED: ENDBRANCH  18  19
DOCKED: ENDBRANCH  17  18
DOCKED: ENDBRANCH   1  17
DOCKED: TORSDOF 11
DOCKED: TER
DOCKED: ENDMDL
________________________________________________________________________________


    FINAL DOCKED STATE:
    ________________________


Run:   17 / 20
Time taken for this run:   0.110s

DOCKED: MODEL        17
DOCKED: USER    Run = 17
DOCKED: USER
DOCKED: USER    Estimated Free Energy of Binding    =  -6.71 kcal/mol  [=(1)+(2)+(3)-(4)]
DOCKED: USER
DOCKED: USER    (1) Final Intermolecular Energy     =  -9.99 kcal/mol
DOCKED: USER        vdW + Hbond + desolv Energy     = -10.01 kcal/mol
DOCKED: USER        Electrostatic Energy            =  +0.01 kcal/mol
DOCKED: USER        Moving Ligand-Fixed Receptor    =  -9.99 kcal/mol
DOCKED: USER        Moving Ligand-Moving Receptor   =  +0.00 kcal/mol
DOCKED: USER    (2) Final Total Internal Energy     =  -0.99 kcal/mol
DOCKED: USER    (3) Torsional Free Energy           =  +3.28 kcal/mol
DOCKED: USER    (4) Unbound System's Energy         =  -0.99 kcal/mol
DOCKED: USER
DOCKED: USER
DOCKED: REMARK SMILES O/C(=C\CCOc1ccc(Cl)cc1Cl)[N-]/N=C\c1cccc(C(F)(F)F)c1
DOCKED: REMARK SMILES IDX 2 1 1 2 15 4 16 5 17 6 18 7 19 8 27 9 20 10 22 11 21 12
DOCKED: REMARK SMILES IDX 23 13 24 14 25 15 26 16 3 17 4 18 5 19 6 20 7 21 8 22 13 23
DOCKED: REMARK SMILES IDX 9 24 12 25 10 26 14 27 11 28
DOCKED: REMARK H PARENT 1 3
DOCKED: USER                              x       y       z     vdW  Elec       q    Type
DOCKED: USER                           _______ _______ _______ _____ _____    ______ ____
DOCKED: ROOT
DOCKED: ATOM      1  C   UNL     1     140.020  75.297 221.840 -0.30 -0.00    +0.023 C  
DOCKED: ENDROOT
DOCKED: BRANCH   1   2
DOCKED: ATOM      2  O   UNL     1     139.003  75.683 222.710 -0.25 +0.12    -0.530 OA 
DOCKED: ATOM      3  H   UNL     1     138.544  75.004 223.305 -0.40 -0.17    +0.290 HD 
DOCKED: ENDBRANCH   1   2
DOCKED: BRANCH   1   4
DOCKED: ATOM      4  N   UNL     1     140.574  73.982 221.966 -0.61 +0.02    -0.546 NA 
DOCKED: BRANCH   4   5
DOCKED: ATOM      5  N   UNL     1     139.941  72.960 222.688 -0.55 +0.05    -0.372 NA 
DOCKED: BRANCH   5   6
DOCKED: ATOM      6  C   UNL     1     140.533  71.850 223.013 -0.29 -0.01    +0.094 C  
DOCKED: BRANCH   6   7
DOCKED: ATOM      7  C   UNL     1     140.285  71.130 224.284 -0.45 +0.00    -0.009 A  
DOCKED: ATOM      8  C   UNL     1     139.673  69.870 224.240 -0.33 -0.00    +0.009 A  
DOCKED: ATOM      9  C   UNL     1     140.721  71.641 225.521 -0.53 -0.00    +0.022 A  
DOCKED: ATOM     10  C   UNL     1     139.461  69.147 225.416 -0.44 -0.00    +0.001 A  
DOCKED: ATOM     11  C   UNL     1     140.491  70.927 226.711 -0.59 -0.01    +0.056 A  
DOCKED: ATOM     12  C   UNL     1     139.868  69.670 226.645 -0.52 -0.00    +0.013 A  
DOCKED: BRANCH  11  13
DOCKED: ATOM     13  C   UNL     1     140.983  71.449 228.039 -0.37 -0.09    +0.416 C  
DOCKED: ATOM     14  F   UNL     1     141.816  72.535 227.843 -0.31 +0.04    -0.166 F  
DOCKED: ATOM     15  F   UNL     1     141.690  70.479 228.730 -0.12 +0.03    -0.166 F  
DOCKED: ATOM     16  F   UNL     1     139.900  71.843 228.803 -0.26 +0.05    -0.166 F  
DOCKED: ENDBRANCH  11  13
DOCKED: ENDBRANCH   6   7
DOCKED: ENDBRANCH   5   6
DOCKED: ENDBRANCH   4   5
DOCKED: ENDBRANCH   1   4
DOCKED: BRANCH   1  17
DOCKED: ATOM     17  C   UNL     1     140.462  76.155 220.909 -0.26 +0.00    -0.001 C  
DOCKED: BRANCH  17  18
DOCKED: ATOM     18  C   UNL     1     141.442  77.244 221.247 -0.24 -0.04    +0.071 C  
DOCKED: BRANCH  18  19
DOCKED: ATOM     19  C   UNL     1     141.614  78.220 220.080 -0.18 -0.13    +0.234 C  
DOCKED: BRANCH  19  20
DOCKED: ATOM     20  O   UNL     1     141.354  79.558 220.504 -0.07 +0.22    -0.492 OA 
DOCKED: BRANCH  20  21
DOCKED: ATOM     21  C   UNL     1     140.464  79.936 221.524 -0.20 -0.04    +0.137 A  
DOCKED: ATOM     22  C   UNL     1     139.070  80.015 221.321 -0.13 -0.01    +0.049 A  
DOCKED: ATOM     23  C   UNL     1     140.987  80.240 222.793 -0.40 -0.02    +0.084 A  
DOCKED: ATOM     24  C   UNL     1     138.224  80.390 222.369 -0.20 -0.00    +0.024 A  
DOCKED: ATOM     25  C   UNL     1     140.135  80.617 223.837 -0.37 -0.01    +0.045 A  
DOCKED: ATOM     26  C   UNL     1     138.755  80.691 223.627 -0.36 -0.00    +0.042 A  
DOCKED: ATOM     27  Cl  UNL     1     142.718  80.162 223.085 -0.81 +0.02    -0.080 Cl 
DOCKED: ATOM     28  Cl  UNL     1     137.690  81.159 224.941 -0.47 +0.01    -0.084 Cl 
DOCKED: ENDBRANCH  20  21
DOCKED: ENDBRANCH  19  20
DOCKED: ENDBRANCH  18  19
DOCKED: ENDBRANCH  17  18
DOCKED: ENDBRANCH   1  17
DOCKED: TORSDOF 11
DOCKED: TER
DOCKED: ENDMDL
________________________________________________________________________________


    FINAL DOCKED STATE:
    ________________________


Run:   18 / 20
Time taken for this run:   0.110s

DOCKED: MODEL        18
DOCKED: USER    Run = 18
DOCKED: USER
DOCKED: USER    Estimated Free Energy of Binding    =  -6.15 kcal/mol  [=(1)+(2)+(3)-(4)]
DOCKED: USER
DOCKED: USER    (1) Final Intermolecular Energy     =  -9.43 kcal/mol
DOCKED: USER        vdW + Hbond + desolv Energy     =  -9.40 kcal/mol
DOCKED: USER        Electrostatic Energy            =  -0.03 kcal/mol
DOCKED: USER        Moving Ligand-Fixed Receptor    =  -9.43 kcal/mol
DOCKED: USER        Moving Ligand-Moving Receptor   =  +0.00 kcal/mol
DOCKED: USER    (2) Final Total Internal Energy     =  -1.04 kcal/mol
DOCKED: USER    (3) Torsional Free Energy           =  +3.28 kcal/mol
DOCKED: USER    (4) Unbound System's Energy         =  -1.04 kcal/mol
DOCKED: USER
DOCKED: USER
DOCKED: REMARK SMILES O/C(=C\CCOc1ccc(Cl)cc1Cl)[N-]/N=C\c1cccc(C(F)(F)F)c1
DOCKED: REMARK SMILES IDX 2 1 1 2 15 4 16 5 17 6 18 7 19 8 27 9 20 10 22 11 21 12
DOCKED: REMARK SMILES IDX 23 13 24 14 25 15 26 16 3 17 4 18 5 19 6 20 7 21 8 22 13 23
DOCKED: REMARK SMILES IDX 9 24 12 25 10 26 14 27 11 28
DOCKED: REMARK H PARENT 1 3
DOCKED: USER                              x       y       z     vdW  Elec       q    Type
DOCKED: USER                           _______ _______ _______ _____ _____    ______ ____
DOCKED: ROOT
DOCKED: ATOM      1  C   UNL     1     139.512  74.066 221.943 -0.25 -0.00    +0.023 C  
DOCKED: ENDROOT
DOCKED: BRANCH   1   2
DOCKED: ATOM      2  O   UNL     1     138.291  73.403 222.041 -0.07 +0.16    -0.530 OA 
DOCKED: ATOM      3  H   UNL     1     137.799  73.350 222.925 -0.43 -0.17    +0.290 HD 
DOCKED: ENDBRANCH   1   2
DOCKED: BRANCH   1   4
DOCKED: ATOM      4  N   UNL     1     140.699  73.395 222.384 -0.48 -0.03    -0.546 NA 
DOCKED: BRANCH   4   5
DOCKED: ATOM      5  N   UNL     1     140.719  72.033 222.716 -0.21 +0.03    -0.372 NA 
DOCKED: BRANCH   5   6
DOCKED: ATOM      6  C   UNL     1     139.884  71.495 223.554 -0.34 -0.02    +0.094 C  
DOCKED: BRANCH   6   7
DOCKED: ATOM      7  C   UNL     1     140.273  70.997 224.894 -0.50 +0.00    -0.009 A  
DOCKED: ATOM      8  C   UNL     1     140.849  71.891 225.807 -0.52 -0.00    +0.009 A  
DOCKED: ATOM      9  C   UNL     1     140.005  69.676 225.299 -0.42 -0.00    +0.022 A  
DOCKED: ATOM     10  C   UNL     1     141.191  71.465 227.092 -0.72 -0.00    +0.001 A  
DOCKED: ATOM     11  C   UNL     1     140.367  69.235 226.585 -0.51 -0.01    +0.056 A  
DOCKED: ATOM     12  C   UNL     1     140.951  70.145 227.481 -0.59 -0.00    +0.013 A  
DOCKED: BRANCH  11  13
DOCKED: ATOM     13  C   UNL     1     140.055  67.831 227.043 -0.28 -0.09    +0.416 C  
DOCKED: ATOM     14  F   UNL     1     138.864  67.404 226.485 -0.21 +0.00    -0.166 F  
DOCKED: ATOM     15  F   UNL     1     139.937  67.765 228.420 -0.09 +0.05    -0.166 F  
DOCKED: ATOM     16  F   UNL     1     141.072  66.984 226.640 -0.18 +0.05    -0.166 F  
DOCKED: ENDBRANCH  11  13
DOCKED: ENDBRANCH   6   7
DOCKED: ENDBRANCH   5   6
DOCKED: ENDBRANCH   4   5
DOCKED: ENDBRANCH   1   4
DOCKED: BRANCH   1  17
DOCKED: ATOM     17  C   UNL     1     139.557  75.311 221.448 -0.28 +0.00    -0.001 C  
DOCKED: BRANCH  17  18
DOCKED: ATOM     18  C   UNL     1     140.324  75.632 220.196 -0.14 -0.02    +0.071 C  
DOCKED: BRANCH  18  19
DOCKED: ATOM     19  C   UNL     1     140.276  74.470 219.200 -0.03 -0.06    +0.234 C  
DOCKED: BRANCH  19  20
DOCKED: ATOM     20  O   UNL     1     141.581  74.186 218.697 +0.02 +0.13    -0.492 OA 
DOCKED: BRANCH  20  21
DOCKED: ATOM     21  C   UNL     1     142.729  73.962 219.477 -0.16 -0.04    +0.137 A  
DOCKED: ATOM     22  C   UNL     1     143.024  72.704 220.043 -0.22 -0.01    +0.049 A  
DOCKED: ATOM     23  C   UNL     1     143.616  75.031 219.689 -0.35 -0.04    +0.084 A  
DOCKED: ATOM     24  C   UNL     1     144.183  72.529 220.806 -0.37 -0.00    +0.024 A  
DOCKED: ATOM     25  C   UNL     1     144.773  74.849 220.455 -0.35 -0.02    +0.045 A  
DOCKED: ATOM     26  C   UNL     1     145.058  73.599 221.012 -0.52 -0.01    +0.042 A  
DOCKED: ATOM     27  Cl  UNL     1     143.281  76.616 219.007 -0.43 +0.05    -0.080 Cl 
DOCKED: ATOM     28  Cl  UNL     1     146.512  73.373 221.967 -0.78 +0.02    -0.084 Cl 
DOCKED: ENDBRANCH  20  21
DOCKED: ENDBRANCH  19  20
DOCKED: ENDBRANCH  18  19
DOCKED: ENDBRANCH  17  18
DOCKED: ENDBRANCH   1  17
DOCKED: TORSDOF 11
DOCKED: TER
DOCKED: ENDMDL
________________________________________________________________________________


    FINAL DOCKED STATE:
    ________________________


Run:   19 / 20
Time taken for this run:   0.110s

DOCKED: MODEL        19
DOCKED: USER    Run = 19
DOCKED: USER
DOCKED: USER    Estimated Free Energy of Binding    =  -5.87 kcal/mol  [=(1)+(2)+(3)-(4)]
DOCKED: USER
DOCKED: USER    (1) Final Intermolecular Energy     =  -9.15 kcal/mol
DOCKED: USER        vdW + Hbond + desolv Energy     =  -9.19 kcal/mol
DOCKED: USER        Electrostatic Energy            =  +0.03 kcal/mol
DOCKED: USER        Moving Ligand-Fixed Receptor    =  -9.15 kcal/mol
DOCKED: USER        Moving Ligand-Moving Receptor   =  +0.00 kcal/mol
DOCKED: USER    (2) Final Total Internal Energy     =  -1.47 kcal/mol
DOCKED: USER    (3) Torsional Free Energy           =  +3.28 kcal/mol
DOCKED: USER    (4) Unbound System's Energy         =  -1.47 kcal/mol
DOCKED: USER
DOCKED: USER
DOCKED: REMARK SMILES O/C(=C\CCOc1ccc(Cl)cc1Cl)[N-]/N=C\c1cccc(C(F)(F)F)c1
DOCKED: REMARK SMILES IDX 2 1 1 2 15 4 16 5 17 6 18 7 19 8 27 9 20 10 22 11 21 12
DOCKED: REMARK SMILES IDX 23 13 24 14 25 15 26 16 3 17 4 18 5 19 6 20 7 21 8 22 13 23
DOCKED: REMARK SMILES IDX 9 24 12 25 10 26 14 27 11 28
DOCKED: REMARK H PARENT 1 3
DOCKED: USER                              x       y       z     vdW  Elec       q    Type
DOCKED: USER                           _______ _______ _______ _____ _____    ______ ____
DOCKED: ROOT
DOCKED: ATOM      1  C   UNL     1     140.113  75.282 221.913 -0.29 -0.00    +0.023 C  
DOCKED: ENDROOT
DOCKED: BRANCH   1   2
DOCKED: ATOM      2  O   UNL     1     141.360  75.768 222.301 -0.14 +0.16    -0.530 OA 
DOCKED: ATOM      3  H   UNL     1     142.210  75.286 222.035 -0.40 -0.13    +0.290 HD 
DOCKED: ENDBRANCH   1   2
DOCKED: BRANCH   1   4
DOCKED: ATOM      4  N   UNL     1     139.756  73.940 222.266 -0.62 +0.06    -0.546 NA 
DOCKED: BRANCH   4   5
DOCKED: ATOM      5  N   UNL     1     140.695  73.001 222.717 -0.45 -0.02    -0.372 NA 
DOCKED: BRANCH   5   6
DOCKED: ATOM      6  C   UNL     1     140.417  71.742 222.877 -0.29 -0.01    +0.094 C  
DOCKED: BRANCH   6   7
DOCKED: ATOM      7  C   UNL     1     140.232  71.105 224.202 -0.44 +0.00    -0.009 A  
DOCKED: ATOM      8  C   UNL     1     139.654  69.830 224.265 -0.33 -0.00    +0.009 A  
DOCKED: ATOM      9  C   UNL     1     140.694  71.710 225.385 -0.49 -0.00    +0.022 A  
DOCKED: ATOM     10  C   UNL     1     139.501  69.183 225.493 -0.44 -0.00    +0.001 A  
DOCKED: ATOM     11  C   UNL     1     140.524  71.073 226.629 -0.60 -0.01    +0.056 A  
DOCKED: ATOM     12  C   UNL     1     139.934  69.800 226.669 -0.53 -0.00    +0.013 A  
DOCKED: BRANCH  11  13
DOCKED: ATOM     13  C   UNL     1     141.045  71.697 227.900 -0.40 -0.09    +0.416 C  
DOCKED: ATOM     14  F   UNL     1     141.703  70.746 228.660 -0.13 +0.03    -0.166 F  
DOCKED: ATOM     15  F   UNL     1     140.016  72.224 228.661 -0.29 +0.06    -0.166 F  
DOCKED: ATOM     16  F   UNL     1     141.930  72.711 227.581 -0.31 +0.03    -0.166 F  
DOCKED: ENDBRANCH  11  13
DOCKED: ENDBRANCH   6   7
DOCKED: ENDBRANCH   5   6
DOCKED: ENDBRANCH   4   5
DOCKED: ENDBRANCH   1   4
DOCKED: BRANCH   1  17
DOCKED: ATOM     17  C   UNL     1     139.276  76.068 221.221 -0.23 +0.00    -0.001 C  
DOCKED: BRANCH  17  18
DOCKED: ATOM     18  C   UNL     1     138.997  75.827 219.763 -0.05 -0.02    +0.071 C  
DOCKED: BRANCH  18  19
DOCKED: ATOM     19  C   UNL     1     140.249  76.051 218.911 -0.03 -0.07    +0.234 C  
DOCKED: BRANCH  19  20
DOCKED: ATOM     20  O   UNL     1     140.973  74.831 218.753 +0.02 +0.14    -0.492 OA 
DOCKED: BRANCH  20  21
DOCKED: ATOM     21  C   UNL     1     142.208  74.527 219.352 -0.14 -0.04    +0.137 A  
DOCKED: ATOM     22  C   UNL     1     143.221  75.492 219.528 -0.35 -0.03    +0.049 A  
DOCKED: ATOM     23  C   UNL     1     142.433  73.212 219.795 -0.16 -0.02    +0.084 A  
DOCKED: ATOM     24  C   UNL     1     144.431  75.141 220.135 -0.32 -0.01    +0.024 A  
DOCKED: ATOM     25  C   UNL     1     143.647  72.868 220.400 -0.32 -0.01    +0.045 A  
DOCKED: ATOM     26  C   UNL     1     144.645  73.831 220.572 -0.49 -0.01    +0.042 A  
DOCKED: ATOM     27  Cl  UNL     1     141.199  71.977 219.587 -0.12 +0.01    -0.080 Cl 
DOCKED: ATOM     28  Cl  UNL     1     146.163  73.396 221.336 -0.88 +0.01    -0.084 Cl 
DOCKED: ENDBRANCH  20  21
DOCKED: ENDBRANCH  19  20
DOCKED: ENDBRANCH  18  19
DOCKED: ENDBRANCH  17  18
DOCKED: ENDBRANCH   1  17
DOCKED: TORSDOF 11
DOCKED: TER
DOCKED: ENDMDL
________________________________________________________________________________


    FINAL DOCKED STATE:
    ________________________


Run:   20 / 20
Time taken for this run:   0.110s

DOCKED: MODEL        20
DOCKED: USER    Run = 20
DOCKED: USER
DOCKED: USER    Estimated Free Energy of Binding    =  -6.21 kcal/mol  [=(1)+(2)+(3)-(4)]
DOCKED: USER
DOCKED: USER    (1) Final Intermolecular Energy     =  -9.49 kcal/mol
DOCKED: USER        vdW + Hbond + desolv Energy     =  -9.77 kcal/mol
DOCKED: USER        Electrostatic Energy            =  +0.28 kcal/mol
DOCKED: USER        Moving Ligand-Fixed Receptor    =  -9.49 kcal/mol
DOCKED: USER        Moving Ligand-Moving Receptor   =  +0.00 kcal/mol
DOCKED: USER    (2) Final Total Internal Energy     =  -1.20 kcal/mol
DOCKED: USER    (3) Torsional Free Energy           =  +3.28 kcal/mol
DOCKED: USER    (4) Unbound System's Energy         =  -1.20 kcal/mol
DOCKED: USER
DOCKED: USER
DOCKED: REMARK SMILES O/C(=C\CCOc1ccc(Cl)cc1Cl)[N-]/N=C\c1cccc(C(F)(F)F)c1
DOCKED: REMARK SMILES IDX 2 1 1 2 15 4 16 5 17 6 18 7 19 8 27 9 20 10 22 11 21 12
DOCKED: REMARK SMILES IDX 23 13 24 14 25 15 26 16 3 17 4 18 5 19 6 20 7 21 8 22 13 23
DOCKED: REMARK SMILES IDX 9 24 12 25 10 26 14 27 11 28
DOCKED: REMARK H PARENT 1 3
DOCKED: USER                              x       y       z     vdW  Elec       q    Type
DOCKED: USER                           _______ _______ _______ _____ _____    ______ ____
DOCKED: ROOT
DOCKED: ATOM      1  C   UNL     1     139.881  74.167 221.144 -0.23 -0.00    +0.023 C  
DOCKED: ENDROOT
DOCKED: BRANCH   1   2
DOCKED: ATOM      2  O   UNL     1     139.217  74.422 222.342 -0.56 +0.12    -0.530 OA 
DOCKED: ATOM      3  H   UNL     1     139.051  73.680 223.011 -0.47 -0.14    +0.290 HD 
DOCKED: ENDBRANCH   1   2
DOCKED: BRANCH   1   4
DOCKED: ATOM      4  N   UNL     1     140.725  75.184 220.593 -0.02 +0.15    -0.546 NA 
DOCKED: BRANCH   4   5
DOCKED: ATOM      5  N   UNL     1     141.381  76.136 221.387 -0.13 +0.16    -0.372 NA 
DOCKED: BRANCH   5   6
DOCKED: ATOM      6  C   UNL     1     140.759  76.913 222.222 -0.36 -0.03    +0.094 C  
DOCKED: BRANCH   6   7
DOCKED: ATOM      7  C   UNL     1     141.142  78.323 222.471 -0.46 +0.00    -0.009 A  
DOCKED: ATOM      8  C   UNL     1     141.847  78.636 223.641 -0.60 -0.00    +0.009 A  
DOCKED: ATOM      9  C   UNL     1     140.888  79.336 221.528 -0.31 -0.01    +0.022 A  
DOCKED: ATOM     10  C   UNL     1     142.258  79.947 223.888 -0.62 -0.00    +0.001 A  
DOCKED: ATOM     11  C   UNL     1     141.280  80.663 221.782 -0.37 -0.02    +0.056 A  
DOCKED: ATOM     12  C   UNL     1     141.978  80.956 222.964 -0.57 -0.00    +0.013 A  
DOCKED: BRANCH  11  13
DOCKED: ATOM     13  C   UNL     1     141.044  81.752 220.764 -0.14 -0.11    +0.416 C  
DOCKED: ATOM     14  F   UNL     1     139.710  81.781 220.401 -0.03 +0.04    -0.166 F  
DOCKED: ATOM     15  F   UNL     1     141.799  81.547 219.622 -0.11 +0.06    -0.166 F  
DOCKED: ATOM     16  F   UNL     1     141.389  82.973 221.315 -0.13 +0.03    -0.166 F  
DOCKED: ENDBRANCH  11  13
DOCKED: ENDBRANCH   6   7
DOCKED: ENDBRANCH   5   6
DOCKED: ENDBRANCH   4   5
DOCKED: ENDBRANCH   1   4
DOCKED: BRANCH   1  17
DOCKED: ATOM     17  C   UNL     1     139.718  72.986 220.530 -0.13 +0.00    -0.001 C  
DOCKED: BRANCH  17  18
DOCKED: ATOM     18  C   UNL     1     140.215  71.706 221.143 -0.16 -0.01    +0.071 C  
DOCKED: BRANCH  18  19
DOCKED: ATOM     19  C   UNL     1     140.983  71.971 222.441 -0.12 -0.02    +0.234 C  
DOCKED: BRANCH  19  20
DOCKED: ATOM     20  O   UNL     1     140.097  71.952 223.560 -0.22 +0.08    -0.492 OA 
DOCKED: BRANCH  20  21
DOCKED: ATOM     21  C   UNL     1     140.255  71.172 224.718 -0.41 -0.02    +0.137 A  
DOCKED: ATOM     22  C   UNL     1     140.956  71.634 225.852 -0.57 -0.01    +0.049 A  
DOCKED: ATOM     23  C   UNL     1     139.686  69.887 224.745 -0.34 -0.01    +0.084 A  
DOCKED: ATOM     24  C   UNL     1     141.081  70.822 226.983 -0.63 -0.00    +0.024 A  
DOCKED: ATOM     25  C   UNL     1     139.817  69.079 225.880 -0.46 -0.01    +0.045 A  
DOCKED: ATOM     26  C   UNL     1     140.511  69.546 226.999 -0.54 -0.01    +0.042 A  
DOCKED: ATOM     27  Cl  UNL     1     138.812  69.270 223.350 -0.32 +0.01    -0.080 Cl 
DOCKED: ATOM     28  Cl  UNL     1     140.668  68.532 228.422 -0.79 +0.02    -0.084 Cl 
DOCKED: ENDBRANCH  20  21
DOCKED: ENDBRANCH  19  20
DOCKED: ENDBRANCH  18  19
DOCKED: ENDBRANCH  17  18
DOCKED: ENDBRANCH   1  17
DOCKED: TORSDOF 11
DOCKED: TER
DOCKED: ENDMDL
________________________________________________________________________________


    CLUSTERING HISTOGRAM
    ____________________


________________________________________________________________________________
     |           |     |           |     |
Clus | Lowest    | Run | Mean      | Num | Histogram
-ter | Binding   |     | Binding   | in  |
Rank | Energy    |     | Energy    | Clus|    5    10   15   20   25   30   35
_____|___________|_____|___________|_____|____:____|____:____|____:____|____:___
   1 |     -7.18 |   4 |     -6.72 |   5 |#####
   2 |     -7.06 |  10 |     -6.92 |   2 |##
   3 |     -6.71 |  17 |     -6.66 |   2 |##
   4 |     -6.56 |   8 |     -6.29 |   6 |######
   5 |     -6.32 |  16 |     -6.06 |   4 |####
   6 |     -5.61 |   6 |     -5.61 |   1 |#
_____|___________|_____|___________|_____|______________________________________


    RMSD TABLE
    __________


_______________________________________________________________________
     |      |      |           |         |                 |
Rank | Sub- | Run  | Binding   | Cluster | Reference       | Grep
     | Rank |      | Energy    | RMSD    | RMSD            | Pattern
_____|______|______|___________|_________|_________________|___________
   1      1      4       -7.18      0.00    271.88           RANKING
   1      2      3       -6.99      1.57    271.94           RANKING
   1      3      7       -6.52      1.84    271.70           RANKING
   1      4      9       -6.48      0.77    272.04           RANKING
   1      5     12       -6.45      1.90    271.60           RANKING
   2      1     10       -7.06      0.00    271.78           RANKING
   2      2     13       -6.78      1.55    272.12           RANKING
   3      1     17       -6.71      0.00    272.01           RANKING
   3      2     11       -6.62      1.45    271.77           RANKING
   4      1      8       -6.56      0.00    271.79           RANKING
   4      2      1       -6.47      0.52    271.77           RANKING
   4      3     14       -6.29      0.51    271.61           RANKING
   4      4     20       -6.21      0.70    271.52           RANKING
   4      5     15       -6.14      0.61    271.66           RANKING
   4      6      2       -6.10      0.77    271.69           RANKING
   5      1     16       -6.32      0.00    271.10           RANKING
   5      2     18       -6.15      1.65    271.00           RANKING
   5      3      5       -5.91      1.16    271.07           RANKING
   5      4     19       -5.87      1.48    271.14           RANKING
   6      1      6       -5.61      0.00    270.66           RANKING

Run time 2.163 sec
Idle time 0.000 sec
