AutoDock-GPU version: v1.6

**********************************************************
**    AutoDock-GPU AUTODOCKTOOLS-COMPATIBLE DLG FILE    **
**********************************************************


    DOCKING PARAMETERS
    ________________________


Ligand file:                               /home/a/REINVENT4/ReinventStudies/scoringData/graph-dock-34dfml/graph-DockGPU/node-autodockgpu/inputs/JBHRSOAXAGIKHA-ZYTNAAKSNA-N.pdbqt
Grid fld file:                             /home/a/REINVENT4/ReinventStudies/mols/Rad51/maps/rad51_receptor.maps.fld

Random seed:                               42
Number of runs:                            20
Number of energy evaluations:              3119281
Number of generations:                     42000
Size of population:                        150
Rate of crossover:                         80.000000%
Tournament selection probability limit:    60.000000%
Rate of mutation:                          2.000000%
Maximal allowed delta movement:            +/- 6.000000A
Maximal allowed delta angle:               +/- 90.000000

Rate of local search:                      100.000000%
Maximal number of local search iterations: 300
Rho lower bound:                           0.010000
Spread of local search delta movement:     2.000000A
Spread of local search delta angle:        74.999999
Limit of consecutive successes/failures:   4

Handle symmetry during clustering:         YES
RMSD tolerance:                            2.000000A

Program call in command line was:          /home/a/REINVENT4/ReinventStudies/adgpu-v1.6_linux_x64_cuda12_128wi --filelist batch.txt --heuristics 1 --nrun 20 --psize 150 --lsit 300 --seed 42 --heurmax 12000000 


    GRID PARAMETERS
    ________________________


Receptor name:                             rad51_receptor
Number of grid points (x, y, z):           53, 53, 53
Grid center (x, y, z):                     139.950000, 75.640000, 221.970000A
Grid size (x, y, z):                       19.500000, 19.500000, 19.500000A
Grid spacing:                              0.375000A


    LIGAND PARAMETERS
    ________________________


Ligand name:                               /home/a/REINVENT4/ReinventStudies/scoringData/graph-dock-34dfml/graph-DockGPU/node-autodockgpu/inputs/JBHRSOAXAGIKHA-ZYTNAAKSNA-N
Number of atoms:                           28
Number of rotatable bonds:                 11
Number of atom types:                      7


    DUMMY DATA (only for ADT-compatibility)
    ________________________


DPF> outlev 1
DPF> ga_run 20
DPF> fld /home/a/REINVENT4/ReinventStudies/mols/Rad51/maps/rad51_receptor.maps.fld
DPF> move /home/a/REINVENT4/ReinventStudies/scoringData/graph-dock-34dfml/graph-DockGPU/node-autodockgpu/inputs/JBHRSOAXAGIKHA-ZYTNAAKSNA-N.pdbqt


    COUNTER STATES
    ________________________


Number of energy evaluations performed:    878823
Number of generations used:                55


    INPUT LIGAND PDBQT FILE:
    ________________________


INPUT-LIGAND-PDBQT: REMARK SMILES O/C(=C\CCOc1ccc(Cl)cc1Cl)[N-]/N=C/c1cccc(C(F)(F)F)c1
INPUT-LIGAND-PDBQT: REMARK SMILES IDX 2 1 1 2 15 4 16 5 17 6 18 7 19 8 27 9 20 10 22 11 21 12
INPUT-LIGAND-PDBQT: REMARK SMILES IDX 23 13 24 14 25 15 26 16 3 17 4 18 5 19 6 20 7 21 8 22 13 23
INPUT-LIGAND-PDBQT: REMARK SMILES IDX 9 24 12 25 10 26 14 27 11 28
INPUT-LIGAND-PDBQT: REMARK H PARENT 1 3
INPUT-LIGAND-PDBQT: ROOT
INPUT-LIGAND-PDBQT: ATOM      1  C   UNL     1       1.070   0.014  -2.193  1.00  0.00     0.023 C 
INPUT-LIGAND-PDBQT: ENDROOT
INPUT-LIGAND-PDBQT: BRANCH   1   2
INPUT-LIGAND-PDBQT: ATOM      2  O   UNL     1      -0.081   0.008  -1.403  1.00  0.00    -0.530 OA
INPUT-LIGAND-PDBQT: ATOM      3  H   UNL     1      -0.590   0.857  -1.194  1.00  0.00     0.290 HD
INPUT-LIGAND-PDBQT: ENDBRANCH   1   2
INPUT-LIGAND-PDBQT: BRANCH   1   4
INPUT-LIGAND-PDBQT: ATOM      4  N   UNL     1       1.653   1.250  -2.631  1.00  0.00    -0.546 NA
INPUT-LIGAND-PDBQT: BRANCH   4   5
INPUT-LIGAND-PDBQT: ATOM      5  N   UNL     1       1.526   2.478  -1.956  1.00  0.00    -0.372 NA
INPUT-LIGAND-PDBQT: BRANCH   5   6
INPUT-LIGAND-PDBQT: ATOM      6  C   UNL     1       1.416   2.575  -0.666  1.00  0.00     0.094 C 
INPUT-LIGAND-PDBQT: BRANCH   6   7
INPUT-LIGAND-PDBQT: ATOM      7  C   UNL     1       1.265   3.891  -0.011  1.00  0.00    -0.009 A 
INPUT-LIGAND-PDBQT: ATOM      8  C   UNL     1       1.214   5.080  -0.759  1.00  0.00     0.009 A 
INPUT-LIGAND-PDBQT: ATOM      9  C   UNL     1       1.162   3.956   1.388  1.00  0.00     0.022 A 
INPUT-LIGAND-PDBQT: ATOM     10  C   UNL     1       1.055   6.309  -0.117  1.00  0.00     0.001 A 
INPUT-LIGAND-PDBQT: ATOM     11  C   UNL     1       1.029   5.194   2.043  1.00  0.00     0.056 A 
INPUT-LIGAND-PDBQT: ATOM     12  C   UNL     1       0.953   6.368   1.275  1.00  0.00     0.013 A 
INPUT-LIGAND-PDBQT: BRANCH  11  13
INPUT-LIGAND-PDBQT: ATOM     13  C   UNL     1       0.869   5.250   3.542  1.00  0.00     0.416 C 
INPUT-LIGAND-PDBQT: ATOM     14  F   UNL     1       1.584   4.230   4.146  1.00  0.00    -0.166 F 
INPUT-LIGAND-PDBQT: ATOM     15  F   UNL     1       1.332   6.455   4.040  1.00  0.00    -0.166 F 
INPUT-LIGAND-PDBQT: ATOM     16  F   UNL     1      -0.468   5.114   3.862  1.00  0.00    -0.166 F 
INPUT-LIGAND-PDBQT: ENDBRANCH  11  13
INPUT-LIGAND-PDBQT: ENDBRANCH   6   7
INPUT-LIGAND-PDBQT: ENDBRANCH   5   6
INPUT-LIGAND-PDBQT: ENDBRANCH   4   5
INPUT-LIGAND-PDBQT: ENDBRANCH   1   4
INPUT-LIGAND-PDBQT: BRANCH   1  17
INPUT-LIGAND-PDBQT: ATOM     17  C   UNL     1       1.625  -1.138  -2.580  1.00  0.00    -0.001 C 
INPUT-LIGAND-PDBQT: BRANCH  17  18
INPUT-LIGAND-PDBQT: ATOM     18  C   UNL     1       1.078  -2.478  -2.176  1.00  0.00     0.071 C 
INPUT-LIGAND-PDBQT: BRANCH  18  19
INPUT-LIGAND-PDBQT: ATOM     19  C   UNL     1      -0.185  -2.824  -2.971  1.00  0.00     0.234 C 
INPUT-LIGAND-PDBQT: BRANCH  19  20
INPUT-LIGAND-PDBQT: ATOM     20  O   UNL     1      -0.672  -4.114  -2.601  1.00  0.00    -0.492 OA
INPUT-LIGAND-PDBQT: BRANCH  20  21
INPUT-LIGAND-PDBQT: ATOM     21  C   UNL     1      -1.357  -4.421  -1.413  1.00  0.00     0.137 A 
INPUT-LIGAND-PDBQT: ATOM     22  C   UNL     1      -1.747  -3.432  -0.486  1.00  0.00     0.049 A 
INPUT-LIGAND-PDBQT: ATOM     23  C   UNL     1      -1.669  -5.765  -1.146  1.00  0.00     0.084 A 
INPUT-LIGAND-PDBQT: ATOM     24  C   UNL     1      -2.427  -3.787   0.682  1.00  0.00     0.024 A 
INPUT-LIGAND-PDBQT: ATOM     25  C   UNL     1      -2.351  -6.114   0.025  1.00  0.00     0.045 A 
INPUT-LIGAND-PDBQT: ATOM     26  C   UNL     1      -2.729  -5.127   0.939  1.00  0.00     0.042 A 
INPUT-LIGAND-PDBQT: ATOM     27  Cl  UNL     1      -1.205  -7.028  -2.276  1.00  0.00    -0.080 Cl
INPUT-LIGAND-PDBQT: ATOM     28  Cl  UNL     1      -3.584  -5.568   2.406  1.00  0.00    -0.084 Cl
INPUT-LIGAND-PDBQT: ENDBRANCH  20  21
INPUT-LIGAND-PDBQT: ENDBRANCH  19  20
INPUT-LIGAND-PDBQT: ENDBRANCH  18  19
INPUT-LIGAND-PDBQT: ENDBRANCH  17  18
INPUT-LIGAND-PDBQT: ENDBRANCH   1  17
INPUT-LIGAND-PDBQT: TORSDOF 11


    FINAL DOCKED STATE:
    ________________________


Run:   1 / 20
Time taken for this run:   0.040s

DOCKED: MODEL        1
DOCKED: USER    Run = 1
DOCKED: USER
DOCKED: USER    Estimated Free Energy of Binding    =  -6.55 kcal/mol  [=(1)+(2)+(3)-(4)]
DOCKED: USER
DOCKED: USER    (1) Final Intermolecular Energy     =  -9.83 kcal/mol
DOCKED: USER        vdW + Hbond + desolv Energy     =  -9.80 kcal/mol
DOCKED: USER        Electrostatic Energy            =  -0.04 kcal/mol
DOCKED: USER        Moving Ligand-Fixed Receptor    =  -9.83 kcal/mol
DOCKED: USER        Moving Ligand-Moving Receptor   =  +0.00 kcal/mol
DOCKED: USER    (2) Final Total Internal Energy     =  -0.79 kcal/mol
DOCKED: USER    (3) Torsional Free Energy           =  +3.28 kcal/mol
DOCKED: USER    (4) Unbound System's Energy         =  -0.79 kcal/mol
DOCKED: USER
DOCKED: USER
DOCKED: REMARK SMILES O/C(=C\CCOc1ccc(Cl)cc1Cl)[N-]/N=C/c1cccc(C(F)(F)F)c1
DOCKED: REMARK SMILES IDX 2 1 1 2 15 4 16 5 17 6 18 7 19 8 27 9 20 10 22 11 21 12
DOCKED: REMARK SMILES IDX 23 13 24 14 25 15 26 16 3 17 4 18 5 19 6 20 7 21 8 22 13 23
DOCKED: REMARK SMILES IDX 9 24 12 25 10 26 14 27 11 28
DOCKED: REMARK H PARENT 1 3
DOCKED: USER                              x       y       z     vdW  Elec       q    Type
DOCKED: USER                           _______ _______ _______ _____ _____    ______ ____
DOCKED: ROOT
DOCKED: ATOM      1  C   UNL     1     140.534  74.319 221.565 -0.30 -0.00    +0.023 C  
DOCKED: ENDROOT
DOCKED: BRANCH   1   2
DOCKED: ATOM      2  O   UNL     1     141.388  75.307 221.071 -0.13 +0.17    -0.530 OA 
DOCKED: ATOM      3  H   UNL     1     142.180  75.643 221.604 -0.43 -0.17    +0.290 HD 
DOCKED: ENDBRANCH   1   2
DOCKED: BRANCH   1   4
DOCKED: ATOM      4  N   UNL     1     141.038  73.256 222.386 -0.25 -0.03    -0.546 NA 
DOCKED: BRANCH   4   5
DOCKED: ATOM      5  N   UNL     1     140.555  71.934 222.369 -0.17 +0.04    -0.372 NA 
DOCKED: BRANCH   5   6
DOCKED: ATOM      6  C   UNL     1     139.563  71.528 223.101 -0.30 -0.02    +0.094 C  
DOCKED: BRANCH   6   7
DOCKED: ATOM      7  C   UNL     1     139.797  70.821 224.377 -0.42 +0.00    -0.009 A  
DOCKED: ATOM      8  C   UNL     1     139.579  69.438 224.500 -0.34 -0.00    +0.009 A  
DOCKED: ATOM      9  C   UNL     1     140.255  71.544 225.491 -0.48 -0.00    +0.022 A  
DOCKED: ATOM     10  C   UNL     1     139.823  68.792 225.712 -0.50 -0.00    +0.001 A  
DOCKED: ATOM     11  C   UNL     1     140.477  70.903 226.723 -0.58 -0.01    +0.056 A  
DOCKED: ATOM     12  C   UNL     1     140.279  69.516 226.817 -0.55 -0.00    +0.013 A  
DOCKED: BRANCH  11  13
DOCKED: ATOM     13  C   UNL     1     141.016  71.679 227.900 -0.40 -0.09    +0.416 C  
DOCKED: ATOM     14  F   UNL     1     139.980  72.196 228.658 -0.29 +0.06    -0.166 F  
DOCKED: ATOM     15  F   UNL     1     141.783  70.864 228.714 -0.14 +0.03    -0.166 F  
DOCKED: ATOM     16  F   UNL     1     141.799  72.719 227.438 -0.33 +0.03    -0.166 F  
DOCKED: ENDBRANCH  11  13
DOCKED: ENDBRANCH   6   7
DOCKED: ENDBRANCH   5   6
DOCKED: ENDBRANCH   4   5
DOCKED: ENDBRANCH   1   4
DOCKED: BRANCH   1  17
DOCKED: ATOM     17  C   UNL     1     139.236  74.335 221.248 -0.22 +0.00    -0.001 C  
DOCKED: BRANCH  17  18
DOCKED: ATOM     18  C   UNL     1     138.229  75.162 221.996 -0.21 -0.02    +0.071 C  
DOCKED: BRANCH  18  19
DOCKED: ATOM     19  C   UNL     1     138.115  76.569 221.400 -0.12 -0.05    +0.234 C  
DOCKED: BRANCH  19  20
DOCKED: ATOM     20  O   UNL     1     138.189  77.556 222.429 -0.09 +0.09    -0.492 OA 
DOCKED: BRANCH  20  21
DOCKED: ATOM     21  C   UNL     1     139.325  78.315 222.756 -0.26 -0.03    +0.137 A  
DOCKED: ATOM     22  C   UNL     1     140.637  77.822 222.599 -0.41 -0.02    +0.049 A  
DOCKED: ATOM     23  C   UNL     1     139.143  79.618 223.251 -0.33 -0.01    +0.084 A  
DOCKED: ATOM     24  C   UNL     1     141.736  78.615 222.938 -0.51 -0.01    +0.024 A  
DOCKED: ATOM     25  C   UNL     1     140.247  80.408 223.588 -0.41 -0.01    +0.045 A  
DOCKED: ATOM     26  C   UNL     1     141.543  79.908 223.433 -0.55 -0.01    +0.042 A  
DOCKED: ATOM     27  Cl  UNL     1     137.525  80.273 223.458 -0.34 +0.01    -0.080 Cl 
DOCKED: ATOM     28  Cl  UNL     1     142.925  80.901 223.857 -0.74 +0.02    -0.084 Cl 
DOCKED: ENDBRANCH  20  21
DOCKED: ENDBRANCH  19  20
DOCKED: ENDBRANCH  18  19
DOCKED: ENDBRANCH  17  18
DOCKED: ENDBRANCH   1  17
DOCKED: TORSDOF 11
DOCKED: TER
DOCKED: ENDMDL
________________________________________________________________________________


    FINAL DOCKED STATE:
    ________________________


Run:   2 / 20
Time taken for this run:   0.040s

DOCKED: MODEL        2
DOCKED: USER    Run = 2
DOCKED: USER
DOCKED: USER    Estimated Free Energy of Binding    =  -6.14 kcal/mol  [=(1)+(2)+(3)-(4)]
DOCKED: USER
DOCKED: USER    (1) Final Intermolecular Energy     =  -9.43 kcal/mol
DOCKED: USER        vdW + Hbond + desolv Energy     =  -9.63 kcal/mol
DOCKED: USER        Electrostatic Energy            =  +0.20 kcal/mol
DOCKED: USER        Moving Ligand-Fixed Receptor    =  -9.43 kcal/mol
DOCKED: USER        Moving Ligand-Moving Receptor   =  +0.00 kcal/mol
DOCKED: USER    (2) Final Total Internal Energy     =  -1.18 kcal/mol
DOCKED: USER    (3) Torsional Free Energy           =  +3.28 kcal/mol
DOCKED: USER    (4) Unbound System's Energy         =  -1.18 kcal/mol
DOCKED: USER
DOCKED: USER
DOCKED: REMARK SMILES O/C(=C\CCOc1ccc(Cl)cc1Cl)[N-]/N=C/c1cccc(C(F)(F)F)c1
DOCKED: REMARK SMILES IDX 2 1 1 2 15 4 16 5 17 6 18 7 19 8 27 9 20 10 22 11 21 12
DOCKED: REMARK SMILES IDX 23 13 24 14 25 15 26 16 3 17 4 18 5 19 6 20 7 21 8 22 13 23
DOCKED: REMARK SMILES IDX 9 24 12 25 10 26 14 27 11 28
DOCKED: REMARK H PARENT 1 3
DOCKED: USER                              x       y       z     vdW  Elec       q    Type
DOCKED: USER                           _______ _______ _______ _____ _____    ______ ____
DOCKED: ROOT
DOCKED: ATOM      1  C   UNL     1     139.431  74.473 221.958 -0.26 -0.00    +0.023 C  
DOCKED: ENDROOT
DOCKED: BRANCH   1   2
DOCKED: ATOM      2  O   UNL     1     138.204  73.895 222.289 -0.03 +0.20    -0.530 OA 
DOCKED: ATOM      3  H   UNL     1     138.107  73.254 223.066 -0.45 -0.19    +0.290 HD 
DOCKED: ENDBRANCH   1   2
DOCKED: BRANCH   1   4
DOCKED: ATOM      4  N   UNL     1     139.773  75.786 222.423 -0.26 +0.09    -0.546 NA 
DOCKED: BRANCH   4   5
DOCKED: ATOM      5  N   UNL     1     141.037  76.386 222.269 -0.20 +0.13    -0.372 NA 
DOCKED: BRANCH   5   6
DOCKED: ATOM      6  C   UNL     1     141.242  77.440 221.540 -0.27 -0.05    +0.094 C  
DOCKED: BRANCH   6   7
DOCKED: ATOM      7  C   UNL     1     141.456  78.765 222.159 -0.45 +0.00    -0.009 A  
DOCKED: ATOM      8  C   UNL     1     142.176  78.905 223.358 -0.56 -0.00    +0.009 A  
DOCKED: ATOM      9  C   UNL     1     140.936  79.909 221.534 -0.31 -0.01    +0.022 A  
DOCKED: ATOM     10  C   UNL     1     142.378  80.169 223.914 -0.62 -0.00    +0.001 A  
DOCKED: ATOM     11  C   UNL     1     141.112  81.184 222.104 -0.38 -0.01    +0.056 A  
DOCKED: ATOM     12  C   UNL     1     141.858  81.305 223.288 -0.57 -0.00    +0.013 A  
DOCKED: BRANCH  11  13
DOCKED: ATOM     13  C   UNL     1     140.593  82.412 221.399 -0.14 -0.07    +0.416 C  
DOCKED: ATOM     14  F   UNL     1     139.323  82.731 221.848 -0.07 +0.02    -0.166 F  
DOCKED: ATOM     15  F   UNL     1     141.419  83.497 221.632 -0.10 +0.02    -0.166 F  
DOCKED: ATOM     16  F   UNL     1     140.542  82.169 220.040 -0.06 +0.04    -0.166 F  
DOCKED: ENDBRANCH  11  13
DOCKED: ENDBRANCH   6   7
DOCKED: ENDBRANCH   5   6
DOCKED: ENDBRANCH   4   5
DOCKED: ENDBRANCH   1   4
DOCKED: BRANCH   1  17
DOCKED: ATOM     17  C   UNL     1     140.291  73.818 221.172 -0.26 +0.00    -0.001 C  
DOCKED: BRANCH  17  18
DOCKED: ATOM     18  C   UNL     1     141.082  72.632 221.647 -0.25 -0.01    +0.071 C  
DOCKED: BRANCH  18  19
DOCKED: ATOM     19  C   UNL     1     140.161  71.527 222.175 -0.19 -0.03    +0.234 C  
DOCKED: BRANCH  19  20
DOCKED: ATOM     20  O   UNL     1     139.700  71.844 223.488 -0.18 +0.11    -0.492 OA 
DOCKED: BRANCH  20  21
DOCKED: ATOM     21  C   UNL     1     139.952  71.093 224.648 -0.38 -0.03    +0.137 A  
DOCKED: ATOM     22  C   UNL     1     140.859  71.515 225.642 -0.56 -0.01    +0.049 A  
DOCKED: ATOM     23  C   UNL     1     139.267  69.878 224.823 -0.34 -0.01    +0.084 A  
DOCKED: ATOM     24  C   UNL     1     141.076  70.732 226.780 -0.61 -0.00    +0.024 A  
DOCKED: ATOM     25  C   UNL     1     139.487  69.099 225.965 -0.45 -0.01    +0.045 A  
DOCKED: ATOM     26  C   UNL     1     140.392  69.524 226.942 -0.54 -0.01    +0.042 A  
DOCKED: ATOM     27  Cl  UNL     1     138.125  69.317 223.611 -0.34 +0.01    -0.080 Cl 
DOCKED: ATOM     28  Cl  UNL     1     140.666  68.546 228.372 -0.81 +0.02    -0.084 Cl 
DOCKED: ENDBRANCH  20  21
DOCKED: ENDBRANCH  19  20
DOCKED: ENDBRANCH  18  19
DOCKED: ENDBRANCH  17  18
DOCKED: ENDBRANCH   1  17
DOCKED: TORSDOF 11
DOCKED: TER
DOCKED: ENDMDL
________________________________________________________________________________


    FINAL DOCKED STATE:
    ________________________


Run:   3 / 20
Time taken for this run:   0.040s

DOCKED: MODEL        3
DOCKED: USER    Run = 3
DOCKED: USER
DOCKED: USER    Estimated Free Energy of Binding    =  -5.95 kcal/mol  [=(1)+(2)+(3)-(4)]
DOCKED: USER
DOCKED: USER    (1) Final Intermolecular Energy     =  -9.24 kcal/mol
DOCKED: USER        vdW + Hbond + desolv Energy     =  -9.19 kcal/mol
DOCKED: USER        Electrostatic Energy            =  -0.04 kcal/mol
DOCKED: USER        Moving Ligand-Fixed Receptor    =  -9.24 kcal/mol
DOCKED: USER        Moving Ligand-Moving Receptor   =  +0.00 kcal/mol
DOCKED: USER    (2) Final Total Internal Energy     =  -1.23 kcal/mol
DOCKED: USER    (3) Torsional Free Energy           =  +3.28 kcal/mol
DOCKED: USER    (4) Unbound System's Energy         =  -1.23 kcal/mol
DOCKED: USER
DOCKED: USER
DOCKED: REMARK SMILES O/C(=C\CCOc1ccc(Cl)cc1Cl)[N-]/N=C/c1cccc(C(F)(F)F)c1
DOCKED: REMARK SMILES IDX 2 1 1 2 15 4 16 5 17 6 18 7 19 8 27 9 20 10 22 11 21 12
DOCKED: REMARK SMILES IDX 23 13 24 14 25 15 26 16 3 17 4 18 5 19 6 20 7 21 8 22 13 23
DOCKED: REMARK SMILES IDX 9 24 12 25 10 26 14 27 11 28
DOCKED: REMARK H PARENT 1 3
DOCKED: USER                              x       y       z     vdW  Elec       q    Type
DOCKED: USER                           _______ _______ _______ _____ _____    ______ ____
DOCKED: ROOT
DOCKED: ATOM      1  C   UNL     1     139.377  74.852 221.690 -0.27 -0.00    +0.023 C  
DOCKED: ENDROOT
DOCKED: BRANCH   1   2
DOCKED: ATOM      2  O   UNL     1     138.144  74.843 222.344 -0.09 +0.18    -0.530 OA 
DOCKED: ATOM      3  H   UNL     1     137.925  74.166 223.063 -0.47 -0.21    +0.290 HD 
DOCKED: ENDBRANCH   1   2
DOCKED: BRANCH   1   4
DOCKED: ATOM      4  N   UNL     1     140.340  73.814 221.926 -0.62 +0.04    -0.546 NA 
DOCKED: BRANCH   4   5
DOCKED: ATOM      5  N   UNL     1     140.372  72.997 223.071 -0.30 -0.01    -0.372 NA 
DOCKED: BRANCH   5   6
DOCKED: ATOM      6  C   UNL     1     140.137  71.721 223.043 -0.31 -0.01    +0.094 C  
DOCKED: BRANCH   6   7
DOCKED: ATOM      7  C   UNL     1     140.066  70.932 224.291 -0.43 +0.00    -0.009 A  
DOCKED: ATOM      8  C   UNL     1     139.583  69.612 224.296 -0.33 -0.00    +0.009 A  
DOCKED: ATOM      9  C   UNL     1     140.496  71.509 225.496 -0.55 -0.00    +0.022 A  
DOCKED: ATOM     10  C   UNL     1     139.540  68.883 225.485 -0.46 -0.00    +0.001 A  
DOCKED: ATOM     11  C   UNL     1     140.430  70.789 226.703 -0.57 -0.01    +0.056 A  
DOCKED: ATOM     12  C   UNL     1     139.970  69.462 226.682 -0.53 -0.00    +0.013 A  
DOCKED: BRANCH  11  13
DOCKED: ATOM     13  C   UNL     1     140.941  71.400 227.984 -0.38 -0.08    +0.416 C  
DOCKED: ATOM     14  F   UNL     1     141.663  70.470 228.713 -0.12 +0.03    -0.166 F  
DOCKED: ATOM     15  F   UNL     1     141.769  72.477 227.718 -0.33 +0.03    -0.166 F  
DOCKED: ATOM     16  F   UNL     1     139.869  71.833 228.741 -0.28 +0.05    -0.166 F  
DOCKED: ENDBRANCH  11  13
DOCKED: ENDBRANCH   6   7
DOCKED: ENDBRANCH   5   6
DOCKED: ENDBRANCH   4   5
DOCKED: ENDBRANCH   1   4
DOCKED: BRANCH   1  17
DOCKED: ATOM     17  C   UNL     1     139.689  75.850 220.858 -0.20 +0.00    -0.001 C  
DOCKED: BRANCH  17  18
DOCKED: ATOM     18  C   UNL     1     140.914  75.827 219.988 -0.16 -0.02    +0.071 C  
DOCKED: BRANCH  18  19
DOCKED: ATOM     19  C   UNL     1     140.681  74.991 218.725 -0.02 -0.07    +0.234 C  
DOCKED: BRANCH  19  20
DOCKED: ATOM     20  O   UNL     1     141.776  74.102 218.505 +0.02 +0.13    -0.492 OA 
DOCKED: BRANCH  20  21
DOCKED: ATOM     21  C   UNL     1     142.903  73.969 219.334 -0.16 -0.04    +0.137 A  
DOCKED: ATOM     22  C   UNL     1     143.799  75.032 219.572 -0.35 -0.02    +0.049 A  
DOCKED: ATOM     23  C   UNL     1     143.138  72.729 219.954 -0.21 -0.01    +0.084 A  
DOCKED: ATOM     24  C   UNL     1     144.906  74.851 220.405 -0.28 -0.01    +0.024 A  
DOCKED: ATOM     25  C   UNL     1     144.248  72.554 220.788 -0.37 -0.01    +0.045 A  
DOCKED: ATOM     26  C   UNL     1     145.132  73.613 221.013 -0.54 -0.01    +0.042 A  
DOCKED: ATOM     27  Cl  UNL     1     142.045  71.380 219.688 -0.16 +0.01    -0.080 Cl 
DOCKED: ATOM     28  Cl  UNL     1     146.522  73.390 222.060 -0.73 +0.02    -0.084 Cl 
DOCKED: ENDBRANCH  20  21
DOCKED: ENDBRANCH  19  20
DOCKED: ENDBRANCH  18  19
DOCKED: ENDBRANCH  17  18
DOCKED: ENDBRANCH   1  17
DOCKED: TORSDOF 11
DOCKED: TER
DOCKED: ENDMDL
________________________________________________________________________________


    FINAL DOCKED STATE:
    ________________________


Run:   4 / 20
Time taken for this run:   0.040s

DOCKED: MODEL        4
DOCKED: USER    Run = 4
DOCKED: USER
DOCKED: USER    Estimated Free Energy of Binding    =  -6.62 kcal/mol  [=(1)+(2)+(3)-(4)]
DOCKED: USER
DOCKED: USER    (1) Final Intermolecular Energy     =  -9.90 kcal/mol
DOCKED: USER        vdW + Hbond + desolv Energy     =  -9.89 kcal/mol
DOCKED: USER        Electrostatic Energy            =  -0.02 kcal/mol
DOCKED: USER        Moving Ligand-Fixed Receptor    =  -9.90 kcal/mol
DOCKED: USER        Moving Ligand-Moving Receptor   =  +0.00 kcal/mol
DOCKED: USER    (2) Final Total Internal Energy     =  -0.97 kcal/mol
DOCKED: USER    (3) Torsional Free Energy           =  +3.28 kcal/mol
DOCKED: USER    (4) Unbound System's Energy         =  -0.97 kcal/mol
DOCKED: USER
DOCKED: USER
DOCKED: REMARK SMILES O/C(=C\CCOc1ccc(Cl)cc1Cl)[N-]/N=C/c1cccc(C(F)(F)F)c1
DOCKED: REMARK SMILES IDX 2 1 1 2 15 4 16 5 17 6 18 7 19 8 27 9 20 10 22 11 21 12
DOCKED: REMARK SMILES IDX 23 13 24 14 25 15 26 16 3 17 4 18 5 19 6 20 7 21 8 22 13 23
DOCKED: REMARK SMILES IDX 9 24 12 25 10 26 14 27 11 28
DOCKED: REMARK H PARENT 1 3
DOCKED: USER                              x       y       z     vdW  Elec       q    Type
DOCKED: USER                           _______ _______ _______ _____ _____    ______ ____
DOCKED: ROOT
DOCKED: ATOM      1  C   UNL     1     140.064  75.149 221.920 -0.28 -0.00    +0.023 C  
DOCKED: ENDROOT
DOCKED: BRANCH   1   2
DOCKED: ATOM      2  O   UNL     1     141.050  76.047 222.332 -0.24 +0.15    -0.530 OA 
DOCKED: ATOM      3  H   UNL     1     142.003  75.986 221.996 -0.45 -0.19    +0.290 HD 
DOCKED: ENDBRANCH   1   2
DOCKED: BRANCH   1   4
DOCKED: ATOM      4  N   UNL     1     140.312  73.736 221.923 -0.61 +0.04    -0.546 NA 
DOCKED: BRANCH   4   5
DOCKED: ATOM      5  N   UNL     1     140.353  72.933 223.078 -0.33 -0.00    -0.372 NA 
DOCKED: BRANCH   5   6
DOCKED: ATOM      6  C   UNL     1     139.986  71.688 223.095 -0.31 -0.02    +0.094 C  
DOCKED: BRANCH   6   7
DOCKED: ATOM      7  C   UNL     1     139.989  70.909 224.351 -0.43 +0.00    -0.009 A  
DOCKED: ATOM      8  C   UNL     1     139.550  69.574 224.386 -0.34 -0.00    +0.009 A  
DOCKED: ATOM      9  C   UNL     1     140.448  71.512 225.533 -0.54 -0.00    +0.022 A  
DOCKED: ATOM     10  C   UNL     1     139.577  68.856 225.583 -0.47 -0.00    +0.001 A  
DOCKED: ATOM     11  C   UNL     1     140.453  70.802 226.748 -0.57 -0.01    +0.056 A  
DOCKED: ATOM     12  C   UNL     1     140.035  69.461 226.756 -0.54 -0.00    +0.013 A  
DOCKED: BRANCH  11  13
DOCKED: ATOM     13  C   UNL     1     140.994  71.441 228.002 -0.38 -0.09    +0.416 C  
DOCKED: ATOM     14  F   UNL     1     141.755  70.536 228.721 -0.12 +0.03    -0.166 F  
DOCKED: ATOM     15  F   UNL     1     141.793  72.528 227.694 -0.33 +0.03    -0.166 F  
DOCKED: ATOM     16  F   UNL     1     139.940  71.866 228.787 -0.27 +0.05    -0.166 F  
DOCKED: ENDBRANCH  11  13
DOCKED: ENDBRANCH   6   7
DOCKED: ENDBRANCH   5   6
DOCKED: ENDBRANCH   4   5
DOCKED: ENDBRANCH   1   4
DOCKED: BRANCH   1  17
DOCKED: ATOM     17  C   UNL     1     138.884  75.600 221.485 -0.24 +0.00    -0.001 C  
DOCKED: BRANCH  17  18
DOCKED: ATOM     18  C   UNL     1     137.901  76.298 222.382 -0.26 -0.02    +0.071 C  
DOCKED: BRANCH  18  19
DOCKED: ATOM     19  C   UNL     1     137.340  77.558 221.716 -0.10 -0.04    +0.234 C  
DOCKED: BRANCH  19  20
DOCKED: ATOM     20  O   UNL     1     138.392  78.329 221.135 +0.00 +0.10    -0.492 OA 
DOCKED: BRANCH  20  21
DOCKED: ATOM     21  C   UNL     1     139.445  78.939 221.838 -0.17 -0.03    +0.137 A  
DOCKED: ATOM     22  C   UNL     1     139.258  79.565 223.088 -0.33 -0.01    +0.049 A  
DOCKED: ATOM     23  C   UNL     1     140.732  78.916 221.274 -0.24 -0.03    +0.084 A  
DOCKED: ATOM     24  C   UNL     1     140.337  80.159 223.749 -0.43 -0.00    +0.024 A  
DOCKED: ATOM     25  C   UNL     1     141.808  79.511 221.941 -0.44 -0.02    +0.045 A  
DOCKED: ATOM     26  C   UNL     1     141.612  80.133 223.177 -0.54 -0.01    +0.042 A  
DOCKED: ATOM     27  Cl  UNL     1     141.008  78.143 219.720 -0.25 +0.04    -0.080 Cl 
DOCKED: ATOM     28  Cl  UNL     1     142.963  80.878 224.011 -0.69 +0.01    -0.084 Cl 
DOCKED: ENDBRANCH  20  21
DOCKED: ENDBRANCH  19  20
DOCKED: ENDBRANCH  18  19
DOCKED: ENDBRANCH  17  18
DOCKED: ENDBRANCH   1  17
DOCKED: TORSDOF 11
DOCKED: TER
DOCKED: ENDMDL
________________________________________________________________________________


    FINAL DOCKED STATE:
    ________________________


Run:   5 / 20
Time taken for this run:   0.040s

DOCKED: MODEL        5
DOCKED: USER    Run = 5
DOCKED: USER
DOCKED: USER    Estimated Free Energy of Binding    =  -5.90 kcal/mol  [=(1)+(2)+(3)-(4)]
DOCKED: USER
DOCKED: USER    (1) Final Intermolecular Energy     =  -9.18 kcal/mol
DOCKED: USER        vdW + Hbond + desolv Energy     =  -9.41 kcal/mol
DOCKED: USER        Electrostatic Energy            =  +0.23 kcal/mol
DOCKED: USER        Moving Ligand-Fixed Receptor    =  -9.18 kcal/mol
DOCKED: USER        Moving Ligand-Moving Receptor   =  +0.00 kcal/mol
DOCKED: USER    (2) Final Total Internal Energy     =  -1.26 kcal/mol
DOCKED: USER    (3) Torsional Free Energy           =  +3.28 kcal/mol
DOCKED: USER    (4) Unbound System's Energy         =  -1.26 kcal/mol
DOCKED: USER
DOCKED: USER
DOCKED: REMARK SMILES O/C(=C\CCOc1ccc(Cl)cc1Cl)[N-]/N=C/c1cccc(C(F)(F)F)c1
DOCKED: REMARK SMILES IDX 2 1 1 2 15 4 16 5 17 6 18 7 19 8 27 9 20 10 22 11 21 12
DOCKED: REMARK SMILES IDX 23 13 24 14 25 15 26 16 3 17 4 18 5 19 6 20 7 21 8 22 13 23
DOCKED: REMARK SMILES IDX 9 24 12 25 10 26 14 27 11 28
DOCKED: REMARK H PARENT 1 3
DOCKED: USER                              x       y       z     vdW  Elec       q    Type
DOCKED: USER                           _______ _______ _______ _____ _____    ______ ____
DOCKED: ROOT
DOCKED: ATOM      1  C   UNL     1     139.652  74.394 221.302 -0.24 -0.00    +0.023 C  
DOCKED: ENDROOT
DOCKED: BRANCH   1   2
DOCKED: ATOM      2  O   UNL     1     138.678  74.274 222.295 -0.17 +0.17    -0.530 OA 
DOCKED: ATOM      3  H   UNL     1     138.802  73.668 223.095 -0.48 -0.18    +0.290 HD 
DOCKED: ENDBRANCH   1   2
DOCKED: BRANCH   1   4
DOCKED: ATOM      4  N   UNL     1     140.269  75.661 221.029 -0.05 +0.14    -0.546 NA 
DOCKED: BRANCH   4   5
DOCKED: ATOM      5  N   UNL     1     140.119  76.812 221.825 -0.14 +0.10    -0.372 NA 
DOCKED: BRANCH   5   6
DOCKED: ATOM      6  C   UNL     1     140.999  77.193 222.700 -0.32 -0.03    +0.094 C  
DOCKED: BRANCH   6   7
DOCKED: ATOM      7  C   UNL     1     141.412  78.609 222.798 -0.52 +0.00    -0.009 A  
DOCKED: ATOM      8  C   UNL     1     142.193  79.071 223.871 -0.53 -0.00    +0.009 A  
DOCKED: ATOM      9  C   UNL     1     141.024  79.510 221.794 -0.35 -0.01    +0.022 A  
DOCKED: ATOM     10  C   UNL     1     142.584  80.410 223.932 -0.65 -0.00    +0.001 A  
DOCKED: ATOM     11  C   UNL     1     141.391  80.867 221.863 -0.39 -0.01    +0.056 A  
DOCKED: ATOM     12  C   UNL     1     142.195  81.303 222.930 -0.53 -0.00    +0.013 A  
DOCKED: BRANCH  11  13
DOCKED: ATOM     13  C   UNL     1     141.012  81.817 220.755 -0.14 -0.11    +0.416 C  
DOCKED: ATOM     14  F   UNL     1     141.825  81.625 219.650 -0.11 +0.06    -0.166 F  
DOCKED: ATOM     15  F   UNL     1     139.700  81.616 220.364 -0.03 +0.04    -0.166 F  
DOCKED: ATOM     16  F   UNL     1     141.156  83.116 221.200 -0.12 +0.03    -0.166 F  
DOCKED: ENDBRANCH  11  13
DOCKED: ENDBRANCH   6   7
DOCKED: ENDBRANCH   5   6
DOCKED: ENDBRANCH   4   5
DOCKED: ENDBRANCH   1   4
DOCKED: BRANCH   1  17
DOCKED: ATOM     17  C   UNL     1     139.998  73.333 220.568 -0.15 +0.00    -0.001 C  
DOCKED: BRANCH  17  18
DOCKED: ATOM     18  C   UNL     1     140.331  72.000 221.177 -0.18 -0.01    +0.071 C  
DOCKED: BRANCH  18  19
DOCKED: ATOM     19  C   UNL     1     140.970  72.166 222.560 -0.06 -0.01    +0.234 C  
DOCKED: BRANCH  19  20
DOCKED: ATOM     20  O   UNL     1     139.999  71.965 223.587 -0.22 +0.09    -0.492 OA 
DOCKED: BRANCH  20  21
DOCKED: ATOM     21  C   UNL     1     140.175  71.176 224.737 -0.40 -0.02    +0.137 A  
DOCKED: ATOM     22  C   UNL     1     140.882  71.632 225.869 -0.57 -0.01    +0.049 A  
DOCKED: ATOM     23  C   UNL     1     139.617  69.886 224.757 -0.34 -0.01    +0.084 A  
DOCKED: ATOM     24  C   UNL     1     141.029  70.809 226.988 -0.63 -0.00    +0.024 A  
DOCKED: ATOM     25  C   UNL     1     139.767  69.068 225.882 -0.46 -0.01    +0.045 A  
DOCKED: ATOM     26  C   UNL     1     140.473  69.527 226.996 -0.54 -0.01    +0.042 A  
DOCKED: ATOM     27  Cl  UNL     1     138.725  69.280 223.369 -0.32 +0.01    -0.080 Cl 
DOCKED: ATOM     28  Cl  UNL     1     140.659  68.498 228.405 -0.79 +0.02    -0.084 Cl 
DOCKED: ENDBRANCH  20  21
DOCKED: ENDBRANCH  19  20
DOCKED: ENDBRANCH  18  19
DOCKED: ENDBRANCH  17  18
DOCKED: ENDBRANCH   1  17
DOCKED: TORSDOF 11
DOCKED: TER
DOCKED: ENDMDL
________________________________________________________________________________


    FINAL DOCKED STATE:
    ________________________


Run:   6 / 20
Time taken for this run:   0.040s

DOCKED: MODEL        6
DOCKED: USER    Run = 6
DOCKED: USER
DOCKED: USER    Estimated Free Energy of Binding    =  -6.33 kcal/mol  [=(1)+(2)+(3)-(4)]
DOCKED: USER
DOCKED: USER    (1) Final Intermolecular Energy     =  -9.61 kcal/mol
DOCKED: USER        vdW + Hbond + desolv Energy     =  -9.56 kcal/mol
DOCKED: USER        Electrostatic Energy            =  -0.05 kcal/mol
DOCKED: USER        Moving Ligand-Fixed Receptor    =  -9.61 kcal/mol
DOCKED: USER        Moving Ligand-Moving Receptor   =  +0.00 kcal/mol
DOCKED: USER    (2) Final Total Internal Energy     =  -0.41 kcal/mol
DOCKED: USER    (3) Torsional Free Energy           =  +3.28 kcal/mol
DOCKED: USER    (4) Unbound System's Energy         =  -0.41 kcal/mol
DOCKED: USER
DOCKED: USER
DOCKED: REMARK SMILES O/C(=C\CCOc1ccc(Cl)cc1Cl)[N-]/N=C/c1cccc(C(F)(F)F)c1
DOCKED: REMARK SMILES IDX 2 1 1 2 15 4 16 5 17 6 18 7 19 8 27 9 20 10 22 11 21 12
DOCKED: REMARK SMILES IDX 23 13 24 14 25 15 26 16 3 17 4 18 5 19 6 20 7 21 8 22 13 23
DOCKED: REMARK SMILES IDX 9 24 12 25 10 26 14 27 11 28
DOCKED: REMARK H PARENT 1 3
DOCKED: USER                              x       y       z     vdW  Elec       q    Type
DOCKED: USER                           _______ _______ _______ _____ _____    ______ ____
DOCKED: ROOT
DOCKED: ATOM      1  C   UNL     1     140.520  74.397 221.564 -0.30 -0.00    +0.023 C  
DOCKED: ENDROOT
DOCKED: BRANCH   1   2
DOCKED: ATOM      2  O   UNL     1     141.779  74.966 221.367 -0.14 +0.16    -0.530 OA 
DOCKED: ATOM      3  H   UNL     1     142.111  75.738 221.931 -0.42 -0.18    +0.290 HD 
DOCKED: ENDBRANCH   1   2
DOCKED: BRANCH   1   4
DOCKED: ATOM      4  N   UNL     1     140.322  73.375 222.552 -0.51 -0.01    -0.546 NA 
DOCKED: BRANCH   4   5
DOCKED: ATOM      5  N   UNL     1     140.124  72.012 222.265 -0.16 +0.05    -0.372 NA 
DOCKED: BRANCH   5   6
DOCKED: ATOM      6  C   UNL     1     139.493  71.200 223.057 -0.28 -0.02    +0.094 C  
DOCKED: BRANCH   6   7
DOCKED: ATOM      7  C   UNL     1     139.995  70.919 224.418 -0.44 +0.00    -0.009 A  
DOCKED: ATOM      8  C   UNL     1     140.691  71.891 225.157 -0.40 -0.00    +0.009 A  
DOCKED: ATOM      9  C   UNL     1     139.765  69.657 224.989 -0.39 -0.00    +0.022 A  
DOCKED: ATOM     10  C   UNL     1     141.141  71.605 226.447 -0.71 -0.00    +0.001 A  
DOCKED: ATOM     11  C   UNL     1     140.240  69.354 226.278 -0.48 -0.01    +0.056 A  
DOCKED: ATOM     12  C   UNL     1     140.910  70.348 227.011 -0.59 -0.00    +0.013 A  
DOCKED: BRANCH  11  13
DOCKED: ATOM     13  C   UNL     1     139.946  68.013 226.903 -0.31 -0.08    +0.416 C  
DOCKED: ATOM     14  F   UNL     1     141.030  67.163 226.764 -0.22 +0.05    -0.166 F  
DOCKED: ATOM     15  F   UNL     1     139.675  68.149 228.253 -0.18 +0.03    -0.166 F  
DOCKED: ATOM     16  F   UNL     1     138.849  67.451 226.278 -0.20 -0.00    -0.166 F  
DOCKED: ENDBRANCH  11  13
DOCKED: ENDBRANCH   6   7
DOCKED: ENDBRANCH   5   6
DOCKED: ENDBRANCH   4   5
DOCKED: ENDBRANCH   1   4
DOCKED: BRANCH   1  17
DOCKED: ATOM     17  C   UNL     1     139.486  74.776 220.807 -0.19 +0.00    -0.001 C  
DOCKED: BRANCH  17  18
DOCKED: ATOM     18  C   UNL     1     138.953  76.181 220.807 -0.13 -0.02    +0.071 C  
DOCKED: BRANCH  18  19
DOCKED: ATOM     19  C   UNL     1     137.736  76.313 221.728 -0.14 -0.05    +0.234 C  
DOCKED: BRANCH  19  20
DOCKED: ATOM     20  O   UNL     1     137.969  77.304 222.728 -0.11 +0.09    -0.492 OA 
DOCKED: BRANCH  20  21
DOCKED: ATOM     21  C   UNL     1     139.145  78.061 222.872 -0.22 -0.02    +0.137 A  
DOCKED: ATOM     22  C   UNL     1     140.430  77.486 222.798 -0.29 -0.01    +0.049 A  
DOCKED: ATOM     23  C   UNL     1     139.030  79.445 223.091 -0.30 -0.01    +0.084 A  
DOCKED: ATOM     24  C   UNL     1     141.570  78.280 222.947 -0.47 -0.01    +0.024 A  
DOCKED: ATOM     25  C   UNL     1     140.175  80.235 223.239 -0.40 -0.01    +0.045 A  
DOCKED: ATOM     26  C   UNL     1     141.444  79.655 223.168 -0.52 -0.01    +0.042 A  
DOCKED: ATOM     27  Cl  UNL     1     137.447  80.202 223.186 -0.30 +0.01    -0.080 Cl 
DOCKED: ATOM     28  Cl  UNL     1     142.877  80.649 223.354 -0.75 +0.02    -0.084 Cl 
DOCKED: ENDBRANCH  20  21
DOCKED: ENDBRANCH  19  20
DOCKED: ENDBRANCH  18  19
DOCKED: ENDBRANCH  17  18
DOCKED: ENDBRANCH   1  17
DOCKED: TORSDOF 11
DOCKED: TER
DOCKED: ENDMDL
________________________________________________________________________________


    FINAL DOCKED STATE:
    ________________________


Run:   7 / 20
Time taken for this run:   0.040s

DOCKED: MODEL        7
DOCKED: USER    Run = 7
DOCKED: USER
DOCKED: USER    Estimated Free Energy of Binding    =  -6.45 kcal/mol  [=(1)+(2)+(3)-(4)]
DOCKED: USER
DOCKED: USER    (1) Final Intermolecular Energy     =  -9.73 kcal/mol
DOCKED: USER        vdW + Hbond + desolv Energy     =  -9.96 kcal/mol
DOCKED: USER        Electrostatic Energy            =  +0.23 kcal/mol
DOCKED: USER        Moving Ligand-Fixed Receptor    =  -9.73 kcal/mol
DOCKED: USER        Moving Ligand-Moving Receptor   =  +0.00 kcal/mol
DOCKED: USER    (2) Final Total Internal Energy     =  -1.15 kcal/mol
DOCKED: USER    (3) Torsional Free Energy           =  +3.28 kcal/mol
DOCKED: USER    (4) Unbound System's Energy         =  -1.15 kcal/mol
DOCKED: USER
DOCKED: USER
DOCKED: REMARK SMILES O/C(=C\CCOc1ccc(Cl)cc1Cl)[N-]/N=C/c1cccc(C(F)(F)F)c1
DOCKED: REMARK SMILES IDX 2 1 1 2 15 4 16 5 17 6 18 7 19 8 27 9 20 10 22 11 21 12
DOCKED: REMARK SMILES IDX 23 13 24 14 25 15 26 16 3 17 4 18 5 19 6 20 7 21 8 22 13 23
DOCKED: REMARK SMILES IDX 9 24 12 25 10 26 14 27 11 28
DOCKED: REMARK H PARENT 1 3
DOCKED: USER                              x       y       z     vdW  Elec       q    Type
DOCKED: USER                           _______ _______ _______ _____ _____    ______ ____
DOCKED: ROOT
DOCKED: ATOM      1  C   UNL     1     140.485  74.062 221.773 -0.22 -0.00    +0.023 C  
DOCKED: ENDROOT
DOCKED: BRANCH   1   2
DOCKED: ATOM      2  O   UNL     1     139.175  74.046 222.256 -0.46 +0.13    -0.530 OA 
DOCKED: ATOM      3  H   UNL     1     138.921  73.541 223.095 -0.46 -0.16    +0.290 HD 
DOCKED: ENDBRANCH   1   2
DOCKED: BRANCH   1   4
DOCKED: ATOM      4  N   UNL     1     141.216  75.293 221.678 -0.19 +0.14    -0.546 NA 
DOCKED: BRANCH   4   5
DOCKED: ATOM      5  N   UNL     1     141.050  76.392 222.541 -0.15 +0.12    -0.372 NA 
DOCKED: BRANCH   5   6
DOCKED: ATOM      6  C   UNL     1     140.445  77.487 222.194 -0.35 -0.03    +0.094 C  
DOCKED: BRANCH   6   7
DOCKED: ATOM      7  C   UNL     1     141.004  78.810 222.544 -0.44 +0.00    -0.009 A  
DOCKED: ATOM      8  C   UNL     1     142.007  78.946 223.520 -0.59 -0.00    +0.009 A  
DOCKED: ATOM      9  C   UNL     1     140.531  79.954 221.881 -0.29 -0.01    +0.022 A  
DOCKED: ATOM     10  C   UNL     1     142.529  80.205 223.820 -0.66 -0.00    +0.001 A  
DOCKED: ATOM     11  C   UNL     1     141.034  81.229 222.199 -0.38 -0.01    +0.056 A  
DOCKED: ATOM     12  C   UNL     1     142.055  81.340 223.158 -0.55 -0.00    +0.013 A  
DOCKED: BRANCH  11  13
DOCKED: ATOM     13  C   UNL     1     140.556  82.446 221.447 -0.14 -0.07    +0.416 C  
DOCKED: ATOM     14  F   UNL     1     139.312  82.844 221.907 -0.06 +0.02    -0.166 F  
DOCKED: ATOM     15  F   UNL     1     141.435  83.502 221.612 -0.10 +0.02    -0.166 F  
DOCKED: ATOM     16  F   UNL     1     140.463  82.143 220.103 -0.06 +0.04    -0.166 F  
DOCKED: ENDBRANCH  11  13
DOCKED: ENDBRANCH   6   7
DOCKED: ENDBRANCH   5   6
DOCKED: ENDBRANCH   4   5
DOCKED: ENDBRANCH   1   4
DOCKED: BRANCH   1  17
DOCKED: ATOM     17  C   UNL     1     141.063  72.931 221.361 -0.28 +0.00    -0.001 C  
DOCKED: BRANCH  17  18
DOCKED: ATOM     18  C   UNL     1     141.048  71.669 222.177 -0.16 -0.01    +0.071 C  
DOCKED: BRANCH  18  19
DOCKED: ATOM     19  C   UNL     1     139.617  71.249 222.523 -0.19 -0.04    +0.234 C  
DOCKED: BRANCH  19  20
DOCKED: ATOM     20  O   UNL     1     139.308  71.587 223.875 -0.14 +0.13    -0.492 OA 
DOCKED: BRANCH  20  21
DOCKED: ATOM     21  C   UNL     1     139.744  70.888 225.014 -0.38 -0.03    +0.137 A  
DOCKED: ATOM     22  C   UNL     1     140.688  71.422 225.915 -0.58 -0.01    +0.049 A  
DOCKED: ATOM     23  C   UNL     1     139.209  69.613 225.264 -0.36 -0.01    +0.084 A  
DOCKED: ATOM     24  C   UNL     1     141.090  70.688 227.035 -0.61 -0.00    +0.024 A  
DOCKED: ATOM     25  C   UNL     1     139.614  68.883 226.387 -0.50 -0.01    +0.045 A  
DOCKED: ATOM     26  C   UNL     1     140.554  69.419 227.272 -0.56 -0.01    +0.042 A  
DOCKED: ATOM     27  Cl  UNL     1     138.027  68.913 224.169 -0.37 +0.01    -0.080 Cl 
DOCKED: ATOM     28  Cl  UNL     1     141.060  68.502 228.679 -0.72 +0.02    -0.084 Cl 
DOCKED: ENDBRANCH  20  21
DOCKED: ENDBRANCH  19  20
DOCKED: ENDBRANCH  18  19
DOCKED: ENDBRANCH  17  18
DOCKED: ENDBRANCH   1  17
DOCKED: TORSDOF 11
DOCKED: TER
DOCKED: ENDMDL
________________________________________________________________________________


    FINAL DOCKED STATE:
    ________________________


Run:   8 / 20
Time taken for this run:   0.040s

DOCKED: MODEL        8
DOCKED: USER    Run = 8
DOCKED: USER
DOCKED: USER    Estimated Free Energy of Binding    =  -6.30 kcal/mol  [=(1)+(2)+(3)-(4)]
DOCKED: USER
DOCKED: USER    (1) Final Intermolecular Energy     =  -9.58 kcal/mol
DOCKED: USER        vdW + Hbond + desolv Energy     =  -9.59 kcal/mol
DOCKED: USER        Electrostatic Energy            =  +0.00 kcal/mol
DOCKED: USER        Moving Ligand-Fixed Receptor    =  -9.58 kcal/mol
DOCKED: USER        Moving Ligand-Moving Receptor   =  +0.00 kcal/mol
DOCKED: USER    (2) Final Total Internal Energy     =  -0.72 kcal/mol
DOCKED: USER    (3) Torsional Free Energy           =  +3.28 kcal/mol
DOCKED: USER    (4) Unbound System's Energy         =  -0.72 kcal/mol
DOCKED: USER
DOCKED: USER
DOCKED: REMARK SMILES O/C(=C\CCOc1ccc(Cl)cc1Cl)[N-]/N=C/c1cccc(C(F)(F)F)c1
DOCKED: REMARK SMILES IDX 2 1 1 2 15 4 16 5 17 6 18 7 19 8 27 9 20 10 22 11 21 12
DOCKED: REMARK SMILES IDX 23 13 24 14 25 15 26 16 3 17 4 18 5 19 6 20 7 21 8 22 13 23
DOCKED: REMARK SMILES IDX 9 24 12 25 10 26 14 27 11 28
DOCKED: REMARK H PARENT 1 3
DOCKED: USER                              x       y       z     vdW  Elec       q    Type
DOCKED: USER                           _______ _______ _______ _____ _____    ______ ____
DOCKED: ROOT
DOCKED: ATOM      1  C   UNL     1     141.277  73.757 221.337 -0.25 -0.00    +0.023 C  
DOCKED: ENDROOT
DOCKED: BRANCH   1   2
DOCKED: ATOM      2  O   UNL     1     141.842  72.902 220.389 -0.03 +0.09    -0.530 OA 
DOCKED: ATOM      3  H   UNL     1     141.790  71.896 220.478 +0.09 -0.04    +0.290 HD 
DOCKED: ENDBRANCH   1   2
DOCKED: BRANCH   1   4
DOCKED: ATOM      4  N   UNL     1     140.447  73.241 222.388 -0.53 +0.01    -0.546 NA 
DOCKED: BRANCH   4   5
DOCKED: ATOM      5  N   UNL     1     140.741  72.094 223.150 -0.20 +0.02    -0.372 NA 
DOCKED: BRANCH   5   6
DOCKED: ATOM      6  C   UNL     1     139.905  71.561 223.988 -0.33 -0.02    +0.094 C  
DOCKED: BRANCH   6   7
DOCKED: ATOM      7  C   UNL     1     140.315  71.235 225.369 -0.54 +0.00    -0.009 A  
DOCKED: ATOM      8  C   UNL     1     140.801  72.224 226.242 -0.24 -0.00    +0.009 A  
DOCKED: ATOM      9  C   UNL     1     140.210  69.910 225.824 -0.48 -0.00    +0.022 A  
DOCKED: ATOM     10  C   UNL     1     141.166  71.892 227.548 -0.83 -0.00    +0.001 A  
DOCKED: ATOM     11  C   UNL     1     140.603  69.564 227.130 -0.54 -0.01    +0.056 A  
DOCKED: ATOM     12  C   UNL     1     141.060  70.573 227.995 -0.64 -0.00    +0.013 A  
DOCKED: BRANCH  11  13
DOCKED: ATOM     13  C   UNL     1     140.440  68.149 227.626 -0.29 -0.10    +0.416 C  
DOCKED: ATOM     14  F   UNL     1     140.539  68.102 229.006 -0.22 +0.04    -0.166 F  
DOCKED: ATOM     15  F   UNL     1     139.204  67.642 227.265 -0.19 +0.02    -0.166 F  
DOCKED: ATOM     16  F   UNL     1     141.430  67.358 227.076 -0.18 +0.05    -0.166 F  
DOCKED: ENDBRANCH  11  13
DOCKED: ENDBRANCH   6   7
DOCKED: ENDBRANCH   5   6
DOCKED: ENDBRANCH   4   5
DOCKED: ENDBRANCH   1   4
DOCKED: BRANCH   1  17
DOCKED: ATOM     17  C   UNL     1     141.476  75.075 221.257 -0.30 +0.00    -0.001 C  
DOCKED: BRANCH  17  18
DOCKED: ATOM     18  C   UNL     1     142.249  75.712 220.136 -0.27 -0.03    +0.071 C  
DOCKED: BRANCH  18  19
DOCKED: ATOM     19  C   UNL     1     141.348  76.609 219.281 -0.11 -0.10    +0.234 C  
DOCKED: BRANCH  19  20
DOCKED: ATOM     20  O   UNL     1     140.550  77.453 220.111 -0.00 +0.18    -0.492 OA 
DOCKED: BRANCH  20  21
DOCKED: ATOM     21  C   UNL     1     141.035  78.324 221.102 -0.24 -0.06    +0.137 A  
DOCKED: ATOM     22  C   UNL     1     140.924  78.041 222.479 -0.42 -0.02    +0.049 A  
DOCKED: ATOM     23  C   UNL     1     141.660  79.517 220.700 -0.29 -0.04    +0.084 A  
DOCKED: ATOM     24  C   UNL     1     141.423  78.938 223.427 -0.57 -0.01    +0.024 A  
DOCKED: ATOM     25  C   UNL     1     142.158  80.411 221.655 -0.43 -0.02    +0.045 A  
DOCKED: ATOM     26  C   UNL     1     142.039  80.123 223.017 -0.57 -0.01    +0.042 A  
DOCKED: ATOM     27  Cl  UNL     1     141.822  79.906 218.995 -0.37 +0.05    -0.080 Cl 
DOCKED: ATOM     28  Cl  UNL     1     142.664  81.246 224.211 -0.61 +0.01    -0.084 Cl 
DOCKED: ENDBRANCH  20  21
DOCKED: ENDBRANCH  19  20
DOCKED: ENDBRANCH  18  19
DOCKED: ENDBRANCH  17  18
DOCKED: ENDBRANCH   1  17
DOCKED: TORSDOF 11
DOCKED: TER
DOCKED: ENDMDL
________________________________________________________________________________


    FINAL DOCKED STATE:
    ________________________


Run:   9 / 20
Time taken for this run:   0.040s

DOCKED: MODEL        9
DOCKED: USER    Run = 9
DOCKED: USER
DOCKED: USER    Estimated Free Energy of Binding    =  -6.63 kcal/mol  [=(1)+(2)+(3)-(4)]
DOCKED: USER
DOCKED: USER    (1) Final Intermolecular Energy     =  -9.92 kcal/mol
DOCKED: USER        vdW + Hbond + desolv Energy     =  -9.94 kcal/mol
DOCKED: USER        Electrostatic Energy            =  +0.03 kcal/mol
DOCKED: USER        Moving Ligand-Fixed Receptor    =  -9.92 kcal/mol
DOCKED: USER        Moving Ligand-Moving Receptor   =  +0.00 kcal/mol
DOCKED: USER    (2) Final Total Internal Energy     =  -0.82 kcal/mol
DOCKED: USER    (3) Torsional Free Energy           =  +3.28 kcal/mol
DOCKED: USER    (4) Unbound System's Energy         =  -0.82 kcal/mol
DOCKED: USER
DOCKED: USER
DOCKED: REMARK SMILES O/C(=C\CCOc1ccc(Cl)cc1Cl)[N-]/N=C/c1cccc(C(F)(F)F)c1
DOCKED: REMARK SMILES IDX 2 1 1 2 15 4 16 5 17 6 18 7 19 8 27 9 20 10 22 11 21 12
DOCKED: REMARK SMILES IDX 23 13 24 14 25 15 26 16 3 17 4 18 5 19 6 20 7 21 8 22 13 23
DOCKED: REMARK SMILES IDX 9 24 12 25 10 26 14 27 11 28
DOCKED: REMARK H PARENT 1 3
DOCKED: USER                              x       y       z     vdW  Elec       q    Type
DOCKED: USER                           _______ _______ _______ _____ _____    ______ ____
DOCKED: ROOT
DOCKED: ATOM      1  C   UNL     1     140.117  74.701 221.913 -0.22 -0.00    +0.023 C  
DOCKED: ENDROOT
DOCKED: BRANCH   1   2
DOCKED: ATOM      2  O   UNL     1     141.440  75.128 221.781 -0.25 +0.12    -0.530 OA 
DOCKED: ATOM      3  H   UNL     1     141.821  75.871 222.352 -0.42 -0.14    +0.290 HD 
DOCKED: ENDBRANCH   1   2
DOCKED: BRANCH   1   4
DOCKED: ATOM      4  N   UNL     1     139.817  73.367 222.348 -0.59 +0.07    -0.546 NA 
DOCKED: BRANCH   4   5
DOCKED: ATOM      5  N   UNL     1     140.602  72.623 223.248 -0.22 +0.00    -0.372 NA 
DOCKED: BRANCH   5   6
DOCKED: ATOM      6  C   UNL     1     140.251  71.461 223.709 -0.35 -0.01    +0.094 C  
DOCKED: BRANCH   6   7
DOCKED: ATOM      7  C   UNL     1     140.510  71.089 225.115 -0.53 +0.00    -0.009 A  
DOCKED: ATOM      8  C   UNL     1     140.835  72.057 226.081 -0.37 -0.00    +0.009 A  
DOCKED: ATOM      9  C   UNL     1     140.421  69.741 225.499 -0.45 -0.00    +0.022 A  
DOCKED: ATOM     10  C   UNL     1     141.060  71.681 227.406 -0.80 -0.00    +0.001 A  
DOCKED: ATOM     11  C   UNL     1     140.672  69.352 226.827 -0.53 -0.01    +0.056 A  
DOCKED: ATOM     12  C   UNL     1     140.970  70.339 227.782 -0.61 -0.00    +0.013 A  
DOCKED: BRANCH  11  13
DOCKED: ATOM     13  C   UNL     1     140.525  67.909 227.240 -0.28 -0.11    +0.416 C  
DOCKED: ATOM     14  F   UNL     1     139.193  67.533 227.230 -0.19 +0.03    -0.166 F  
DOCKED: ATOM     15  F   UNL     1     141.215  67.079 226.374 -0.18 +0.05    -0.166 F  
DOCKED: ATOM     16  F   UNL     1     141.029  67.748 228.516 -0.21 +0.05    -0.166 F  
DOCKED: ENDBRANCH  11  13
DOCKED: ENDBRANCH   6   7
DOCKED: ENDBRANCH   5   6
DOCKED: ENDBRANCH   4   5
DOCKED: ENDBRANCH   1   4
DOCKED: BRANCH   1  17
DOCKED: ATOM     17  C   UNL     1     139.112  75.523 221.601 -0.27 +0.00    -0.001 C  
DOCKED: BRANCH  17  18
DOCKED: ATOM     18  C   UNL     1     138.449  76.415 222.613 -0.27 -0.01    +0.071 C  
DOCKED: BRANCH  18  19
DOCKED: ATOM     19  C   UNL     1     137.539  77.443 221.935 -0.13 -0.04    +0.234 C  
DOCKED: BRANCH  19  20
DOCKED: ATOM     20  O   UNL     1     138.308  78.526 221.412 -0.00 +0.10    -0.492 OA 
DOCKED: BRANCH  20  21
DOCKED: ATOM     21  C   UNL     1     139.454  79.080 222.009 -0.19 -0.03    +0.137 A  
DOCKED: ATOM     22  C   UNL     1     139.398  79.831 223.202 -0.36 -0.01    +0.049 A  
DOCKED: ATOM     23  C   UNL     1     140.700  78.869 221.395 -0.25 -0.03    +0.084 A  
DOCKED: ATOM     24  C   UNL     1     140.566  80.361 223.758 -0.43 -0.00    +0.024 A  
DOCKED: ATOM     25  C   UNL     1     141.865  79.403 221.957 -0.45 -0.02    +0.045 A  
DOCKED: ATOM     26  C   UNL     1     141.799  80.149 223.136 -0.56 -0.01    +0.042 A  
DOCKED: ATOM     27  Cl  UNL     1     140.814  77.937 219.910 -0.24 +0.03    -0.080 Cl 
DOCKED: ATOM     28  Cl  UNL     1     143.262  80.816 223.838 -0.59 +0.02    -0.084 Cl 
DOCKED: ENDBRANCH  20  21
DOCKED: ENDBRANCH  19  20
DOCKED: ENDBRANCH  18  19
DOCKED: ENDBRANCH  17  18
DOCKED: ENDBRANCH   1  17
DOCKED: TORSDOF 11
DOCKED: TER
DOCKED: ENDMDL
________________________________________________________________________________


    FINAL DOCKED STATE:
    ________________________


Run:   10 / 20
Time taken for this run:   0.040s

DOCKED: MODEL        10
DOCKED: USER    Run = 10
DOCKED: USER
DOCKED: USER    Estimated Free Energy of Binding    =  -6.38 kcal/mol  [=(1)+(2)+(3)-(4)]
DOCKED: USER
DOCKED: USER    (1) Final Intermolecular Energy     =  -9.67 kcal/mol
DOCKED: USER        vdW + Hbond + desolv Energy     =  -9.97 kcal/mol
DOCKED: USER        Electrostatic Energy            =  +0.31 kcal/mol
DOCKED: USER        Moving Ligand-Fixed Receptor    =  -9.67 kcal/mol
DOCKED: USER        Moving Ligand-Moving Receptor   =  +0.00 kcal/mol
DOCKED: USER    (2) Final Total Internal Energy     =  -1.18 kcal/mol
DOCKED: USER    (3) Torsional Free Energy           =  +3.28 kcal/mol
DOCKED: USER    (4) Unbound System's Energy         =  -1.18 kcal/mol
DOCKED: USER
DOCKED: USER
DOCKED: REMARK SMILES O/C(=C\CCOc1ccc(Cl)cc1Cl)[N-]/N=C/c1cccc(C(F)(F)F)c1
DOCKED: REMARK SMILES IDX 2 1 1 2 15 4 16 5 17 6 18 7 19 8 27 9 20 10 22 11 21 12
DOCKED: REMARK SMILES IDX 23 13 24 14 25 15 26 16 3 17 4 18 5 19 6 20 7 21 8 22 13 23
DOCKED: REMARK SMILES IDX 9 24 12 25 10 26 14 27 11 28
DOCKED: REMARK H PARENT 1 3
DOCKED: USER                              x       y       z     vdW  Elec       q    Type
DOCKED: USER                           _______ _______ _______ _____ _____    ______ ____
DOCKED: ROOT
DOCKED: ATOM      1  C   UNL     1     140.382  74.189 221.632 -0.28 -0.00    +0.023 C  
DOCKED: ENDROOT
DOCKED: BRANCH   1   2
DOCKED: ATOM      2  O   UNL     1     139.173  74.168 222.330 -0.52 +0.13    -0.530 OA 
DOCKED: ATOM      3  H   UNL     1     139.003  73.516 223.085 -0.46 -0.15    +0.290 HD 
DOCKED: ENDBRANCH   1   2
DOCKED: BRANCH   1   4
DOCKED: ATOM      4  N   UNL     1     140.991  75.432 221.256 -0.11 +0.15    -0.546 NA 
DOCKED: BRANCH   4   5
DOCKED: ATOM      5  N   UNL     1     141.299  76.475 222.149 -0.04 +0.16    -0.372 NA 
DOCKED: BRANCH   5   6
DOCKED: ATOM      6  C   UNL     1     140.517  77.491 222.356 -0.37 -0.03    +0.094 C  
DOCKED: BRANCH   6   7
DOCKED: ATOM      7  C   UNL     1     141.070  78.830 222.649 -0.46 +0.00    -0.009 A  
DOCKED: ATOM      8  C   UNL     1     142.063  79.015 223.626 -0.59 -0.00    +0.009 A  
DOCKED: ATOM      9  C   UNL     1     140.599  79.941 221.930 -0.30 -0.01    +0.022 A  
DOCKED: ATOM     10  C   UNL     1     142.579  80.288 223.873 -0.66 -0.00    +0.001 A  
DOCKED: ATOM     11  C   UNL     1     141.096  81.231 222.193 -0.38 -0.01    +0.056 A  
DOCKED: ATOM     12  C   UNL     1     142.107  81.390 223.155 -0.53 -0.00    +0.013 A  
DOCKED: BRANCH  11  13
DOCKED: ATOM     13  C   UNL     1     140.621  82.411 221.382 -0.14 -0.07    +0.416 C  
DOCKED: ATOM     14  F   UNL     1     139.341  82.778 221.761 -0.07 +0.02    -0.166 F  
DOCKED: ATOM     15  F   UNL     1     141.454  83.500 221.565 -0.10 +0.02    -0.166 F  
DOCKED: ATOM     16  F   UNL     1     140.614  82.069 220.043 -0.06 +0.04    -0.166 F  
DOCKED: ENDBRANCH  11  13
DOCKED: ENDBRANCH   6   7
DOCKED: ENDBRANCH   5   6
DOCKED: ENDBRANCH   4   5
DOCKED: ENDBRANCH   1   4
DOCKED: BRANCH   1  17
DOCKED: ATOM     17  C   UNL     1     140.972  73.044 221.277 -0.27 +0.00    -0.001 C  
DOCKED: BRANCH  17  18
DOCKED: ATOM     18  C   UNL     1     141.078  71.864 222.201 -0.20 -0.01    +0.071 C  
DOCKED: BRANCH  18  19
DOCKED: ATOM     19  C   UNL     1     139.697  71.286 222.523 -0.19 -0.04    +0.234 C  
DOCKED: BRANCH  19  20
DOCKED: ATOM     20  O   UNL     1     139.328  71.588 223.869 -0.14 +0.13    -0.492 OA 
DOCKED: BRANCH  20  21
DOCKED: ATOM     21  C   UNL     1     139.758  70.892 225.012 -0.38 -0.03    +0.137 A  
DOCKED: ATOM     22  C   UNL     1     140.682  71.437 225.927 -0.58 -0.01    +0.049 A  
DOCKED: ATOM     23  C   UNL     1     139.238  69.608 225.250 -0.36 -0.01    +0.084 A  
DOCKED: ATOM     24  C   UNL     1     141.079  70.705 227.050 -0.62 -0.00    +0.024 A  
DOCKED: ATOM     25  C   UNL     1     139.639  68.882 226.377 -0.50 -0.01    +0.045 A  
DOCKED: ATOM     26  C   UNL     1     140.559  69.428 227.276 -0.56 -0.01    +0.042 A  
DOCKED: ATOM     27  Cl  UNL     1     138.082  68.895 224.137 -0.37 +0.01    -0.080 Cl 
DOCKED: ATOM     28  Cl  UNL     1     141.059  68.514 228.687 -0.71 +0.02    -0.084 Cl 
DOCKED: ENDBRANCH  20  21
DOCKED: ENDBRANCH  19  20
DOCKED: ENDBRANCH  18  19
DOCKED: ENDBRANCH  17  18
DOCKED: ENDBRANCH   1  17
DOCKED: TORSDOF 11
DOCKED: TER
DOCKED: ENDMDL
________________________________________________________________________________


    FINAL DOCKED STATE:
    ________________________


Run:   11 / 20
Time taken for this run:   0.040s

DOCKED: MODEL        11
DOCKED: USER    Run = 11
DOCKED: USER
DOCKED: USER    Estimated Free Energy of Binding    =  -6.63 kcal/mol  [=(1)+(2)+(3)-(4)]
DOCKED: USER
DOCKED: USER    (1) Final Intermolecular Energy     =  -9.91 kcal/mol
DOCKED: USER        vdW + Hbond + desolv Energy     = -10.22 kcal/mol
DOCKED: USER        Electrostatic Energy            =  +0.32 kcal/mol
DOCKED: USER        Moving Ligand-Fixed Receptor    =  -9.91 kcal/mol
DOCKED: USER        Moving Ligand-Moving Receptor   =  +0.00 kcal/mol
DOCKED: USER    (2) Final Total Internal Energy     =  -1.11 kcal/mol
DOCKED: USER    (3) Torsional Free Energy           =  +3.28 kcal/mol
DOCKED: USER    (4) Unbound System's Energy         =  -1.11 kcal/mol
DOCKED: USER
DOCKED: USER
DOCKED: REMARK SMILES O/C(=C\CCOc1ccc(Cl)cc1Cl)[N-]/N=C/c1cccc(C(F)(F)F)c1
DOCKED: REMARK SMILES IDX 2 1 1 2 15 4 16 5 17 6 18 7 19 8 27 9 20 10 22 11 21 12
DOCKED: REMARK SMILES IDX 23 13 24 14 25 15 26 16 3 17 4 18 5 19 6 20 7 21 8 22 13 23
DOCKED: REMARK SMILES IDX 9 24 12 25 10 26 14 27 11 28
DOCKED: REMARK H PARENT 1 3
DOCKED: USER                              x       y       z     vdW  Elec       q    Type
DOCKED: USER                           _______ _______ _______ _____ _____    ______ ____
DOCKED: ROOT
DOCKED: ATOM      1  C   UNL     1     140.641  74.292 221.581 -0.31 -0.00    +0.023 C  
DOCKED: ENDROOT
DOCKED: BRANCH   1   2
DOCKED: ATOM      2  O   UNL     1     139.472  74.409 222.336 -0.64 +0.08    -0.530 OA 
DOCKED: ATOM      3  H   UNL     1     139.235  73.743 223.060 -0.46 -0.12    +0.290 HD 
DOCKED: ENDBRANCH   1   2
DOCKED: BRANCH   1   4
DOCKED: ATOM      4  N   UNL     1     141.431  75.449 221.269 -0.09 +0.19    -0.546 NA 
DOCKED: BRANCH   4   5
DOCKED: ATOM      5  N   UNL     1     140.984  76.778 221.382 -0.14 +0.15    -0.372 NA 
DOCKED: BRANCH   5   6
DOCKED: ATOM      6  C   UNL     1     140.788  77.370 222.521 -0.36 -0.03    +0.094 C  
DOCKED: BRANCH   6   7
DOCKED: ATOM      7  C   UNL     1     141.274  78.746 222.758 -0.50 +0.00    -0.009 A  
DOCKED: ATOM      8  C   UNL     1     142.113  79.049 223.843 -0.56 -0.00    +0.009 A  
DOCKED: ATOM      9  C   UNL     1     140.895  79.771 221.875 -0.34 -0.01    +0.022 A  
DOCKED: ATOM     10  C   UNL     1     142.571  80.354 224.035 -0.61 -0.00    +0.001 A  
DOCKED: ATOM     11  C   UNL     1     141.331  81.093 222.079 -0.40 -0.01    +0.056 A  
DOCKED: ATOM     12  C   UNL     1     142.192  81.370 223.155 -0.53 -0.00    +0.013 A  
DOCKED: BRANCH  11  13
DOCKED: ATOM     13  C   UNL     1     140.960  82.177 221.099 -0.15 -0.09    +0.416 C  
DOCKED: ATOM     14  F   UNL     1     139.589  82.222 220.918 -0.05 +0.03    -0.166 F  
DOCKED: ATOM     15  F   UNL     1     141.375  83.415 221.557 -0.11 +0.02    -0.166 F  
DOCKED: ATOM     16  F   UNL     1     141.567  81.919 219.885 -0.10 +0.05    -0.166 F  
DOCKED: ENDBRANCH  11  13
DOCKED: ENDBRANCH   6   7
DOCKED: ENDBRANCH   5   6
DOCKED: ENDBRANCH   4   5
DOCKED: ENDBRANCH   1   4
DOCKED: BRANCH   1  17
DOCKED: ATOM     17  C   UNL     1     141.019  73.101 221.109 -0.26 +0.00    -0.001 C  
DOCKED: BRANCH  17  18
DOCKED: ATOM     18  C   UNL     1     141.181  71.894 221.990 -0.20 -0.01    +0.071 C  
DOCKED: BRANCH  18  19
DOCKED: ATOM     19  C   UNL     1     139.822  71.355 222.447 -0.19 -0.04    +0.234 C  
DOCKED: BRANCH  19  20
DOCKED: ATOM     20  O   UNL     1     139.553  71.752 223.792 -0.16 +0.13    -0.492 OA 
DOCKED: BRANCH  20  21
DOCKED: ATOM     21  C   UNL     1     139.874  71.013 224.943 -0.39 -0.03    +0.137 A  
DOCKED: ATOM     22  C   UNL     1     140.808  71.465 225.898 -0.59 -0.01    +0.049 A  
DOCKED: ATOM     23  C   UNL     1     139.231  69.780 225.151 -0.35 -0.01    +0.084 A  
DOCKED: ATOM     24  C   UNL     1     141.094  70.694 227.028 -0.61 -0.00    +0.024 A  
DOCKED: ATOM     25  C   UNL     1     139.521  69.013 226.285 -0.48 -0.01    +0.045 A  
DOCKED: ATOM     26  C   UNL     1     140.452  69.468 227.222 -0.56 -0.01    +0.042 A  
DOCKED: ATOM     27  Cl  UNL     1     138.058  69.181 223.988 -0.37 +0.01    -0.080 Cl 
DOCKED: ATOM     28  Cl  UNL     1     140.812  68.505 228.643 -0.73 +0.02    -0.084 Cl 
DOCKED: ENDBRANCH  20  21
DOCKED: ENDBRANCH  19  20
DOCKED: ENDBRANCH  18  19
DOCKED: ENDBRANCH  17  18
DOCKED: ENDBRANCH   1  17
DOCKED: TORSDOF 11
DOCKED: TER
DOCKED: ENDMDL
________________________________________________________________________________


    FINAL DOCKED STATE:
    ________________________


Run:   12 / 20
Time taken for this run:   0.040s

DOCKED: MODEL        12
DOCKED: USER    Run = 12
DOCKED: USER
DOCKED: USER    Estimated Free Energy of Binding    =  -5.71 kcal/mol  [=(1)+(2)+(3)-(4)]
DOCKED: USER
DOCKED: USER    (1) Final Intermolecular Energy     =  -9.00 kcal/mol
DOCKED: USER        vdW + Hbond + desolv Energy     =  -9.11 kcal/mol
DOCKED: USER        Electrostatic Energy            =  +0.12 kcal/mol
DOCKED: USER        Moving Ligand-Fixed Receptor    =  -9.00 kcal/mol
DOCKED: USER        Moving Ligand-Moving Receptor   =  +0.00 kcal/mol
DOCKED: USER    (2) Final Total Internal Energy     =  -1.11 kcal/mol
DOCKED: USER    (3) Torsional Free Energy           =  +3.28 kcal/mol
DOCKED: USER    (4) Unbound System's Energy         =  -1.11 kcal/mol
DOCKED: USER
DOCKED: USER
DOCKED: REMARK SMILES O/C(=C\CCOc1ccc(Cl)cc1Cl)[N-]/N=C/c1cccc(C(F)(F)F)c1
DOCKED: REMARK SMILES IDX 2 1 1 2 15 4 16 5 17 6 18 7 19 8 27 9 20 10 22 11 21 12
DOCKED: REMARK SMILES IDX 23 13 24 14 25 15 26 16 3 17 4 18 5 19 6 20 7 21 8 22 13 23
DOCKED: REMARK SMILES IDX 9 24 12 25 10 26 14 27 11 28
DOCKED: REMARK H PARENT 1 3
DOCKED: USER                              x       y       z     vdW  Elec       q    Type
DOCKED: USER                           _______ _______ _______ _____ _____    ______ ____
DOCKED: ROOT
DOCKED: ATOM      1  C   UNL     1     139.733  73.507 221.960 -0.27 -0.00    +0.023 C  
DOCKED: ENDROOT
DOCKED: BRANCH   1   2
DOCKED: ATOM      2  O   UNL     1     140.581  72.996 222.943 -0.37 -0.03    -0.530 OA 
DOCKED: ATOM      3  H   UNL     1     140.245  72.755 223.866 -0.05 -0.03    +0.290 HD 
DOCKED: ENDBRANCH   1   2
DOCKED: BRANCH   1   4
DOCKED: ATOM      4  N   UNL     1     139.943  74.820 221.419 -0.21 +0.10    -0.546 NA 
DOCKED: BRANCH   4   5
DOCKED: ATOM      5  N   UNL     1     140.815  75.780 221.965 -0.32 +0.09    -0.372 NA 
DOCKED: BRANCH   5   6
DOCKED: ATOM      6  C   UNL     1     140.410  76.792 222.670 -0.22 -0.02    +0.094 C  
DOCKED: BRANCH   6   7
DOCKED: ATOM      7  C   UNL     1     141.082  78.104 222.577 -0.47 +0.00    -0.009 A  
DOCKED: ATOM      8  C   UNL     1     141.798  78.639 223.662 -0.61 -0.00    +0.009 A  
DOCKED: ATOM      9  C   UNL     1     141.013  78.829 221.377 -0.31 -0.01    +0.022 A  
DOCKED: ATOM     10  C   UNL     1     142.438  79.874 223.543 -0.64 -0.00    +0.001 A  
DOCKED: ATOM     11  C   UNL     1     141.633  80.087 221.259 -0.35 -0.02    +0.056 A  
DOCKED: ATOM     12  C   UNL     1     142.365  80.591 222.346 -0.54 -0.00    +0.013 A  
DOCKED: BRANCH  11  13
DOCKED: ATOM     13  C   UNL     1     141.595  80.836 219.950 -0.12 -0.17    +0.416 C  
DOCKED: ATOM     14  F   UNL     1     141.784  82.191 220.159 -0.09 +0.05    -0.166 F  
DOCKED: ATOM     15  F   UNL     1     142.590  80.388 219.099 -0.12 +0.11    -0.166 F  
DOCKED: ATOM     16  F   UNL     1     140.366  80.639 219.349 -0.02 +0.06    -0.166 F  
DOCKED: ENDBRANCH  11  13
DOCKED: ENDBRANCH   6   7
DOCKED: ENDBRANCH   5   6
DOCKED: ENDBRANCH   4   5
DOCKED: ENDBRANCH   1   4
DOCKED: BRANCH   1  17
DOCKED: ATOM     17  C   UNL     1     138.690  72.790 221.533 -0.17 +0.00    -0.001 C  
DOCKED: BRANCH  17  18
DOCKED: ATOM     18  C   UNL     1     137.439  72.614 222.347 -0.13 -0.02    +0.071 C  
DOCKED: BRANCH  18  19
DOCKED: ATOM     19  C   UNL     1     137.564  71.426 223.307 -0.13 -0.06    +0.234 C  
DOCKED: BRANCH  19  20
DOCKED: ATOM     20  O   UNL     1     138.938  71.112 223.539 -0.10 +0.11    -0.492 OA 
DOCKED: BRANCH  20  21
DOCKED: ATOM     21  C   UNL     1     139.452  70.481 224.684 -0.33 -0.02    +0.137 A  
DOCKED: ATOM     22  C   UNL     1     140.051  71.199 225.740 -0.48 -0.01    +0.049 A  
DOCKED: ATOM     23  C   UNL     1     139.357  69.082 224.780 -0.33 -0.01    +0.084 A  
DOCKED: ATOM     24  C   UNL     1     140.548  70.527 226.860 -0.59 -0.00    +0.024 A  
DOCKED: ATOM     25  C   UNL     1     139.855  68.415 225.904 -0.52 -0.01    +0.045 A  
DOCKED: ATOM     26  C   UNL     1     140.451  69.135 226.943 -0.56 -0.01    +0.042 A  
DOCKED: ATOM     27  Cl  UNL     1     138.614  68.150 223.489 -0.31 +0.01    -0.080 Cl 
DOCKED: ATOM     28  Cl  UNL     1     141.074  68.295 228.351 -0.75 +0.02    -0.084 Cl 
DOCKED: ENDBRANCH  20  21
DOCKED: ENDBRANCH  19  20
DOCKED: ENDBRANCH  18  19
DOCKED: ENDBRANCH  17  18
DOCKED: ENDBRANCH   1  17
DOCKED: TORSDOF 11
DOCKED: TER
DOCKED: ENDMDL
________________________________________________________________________________


    FINAL DOCKED STATE:
    ________________________


Run:   13 / 20
Time taken for this run:   0.040s

DOCKED: MODEL        13
DOCKED: USER    Run = 13
DOCKED: USER
DOCKED: USER    Estimated Free Energy of Binding    =  -5.48 kcal/mol  [=(1)+(2)+(3)-(4)]
DOCKED: USER
DOCKED: USER    (1) Final Intermolecular Energy     =  -8.76 kcal/mol
DOCKED: USER        vdW + Hbond + desolv Energy     =  -8.89 kcal/mol
DOCKED: USER        Electrostatic Energy            =  +0.13 kcal/mol
DOCKED: USER        Moving Ligand-Fixed Receptor    =  -8.76 kcal/mol
DOCKED: USER        Moving Ligand-Moving Receptor   =  +0.00 kcal/mol
DOCKED: USER    (2) Final Total Internal Energy     =  -1.17 kcal/mol
DOCKED: USER    (3) Torsional Free Energy           =  +3.28 kcal/mol
DOCKED: USER    (4) Unbound System's Energy         =  -1.17 kcal/mol
DOCKED: USER
DOCKED: USER
DOCKED: REMARK SMILES O/C(=C\CCOc1ccc(Cl)cc1Cl)[N-]/N=C/c1cccc(C(F)(F)F)c1
DOCKED: REMARK SMILES IDX 2 1 1 2 15 4 16 5 17 6 18 7 19 8 27 9 20 10 22 11 21 12
DOCKED: REMARK SMILES IDX 23 13 24 14 25 15 26 16 3 17 4 18 5 19 6 20 7 21 8 22 13 23
DOCKED: REMARK SMILES IDX 9 24 12 25 10 26 14 27 11 28
DOCKED: REMARK H PARENT 1 3
DOCKED: USER                              x       y       z     vdW  Elec       q    Type
DOCKED: USER                           _______ _______ _______ _____ _____    ______ ____
DOCKED: ROOT
DOCKED: ATOM      1  C   UNL     1     140.044  75.059 221.356 -0.28 -0.00    +0.023 C  
DOCKED: ENDROOT
DOCKED: BRANCH   1   2
DOCKED: ATOM      2  O   UNL     1     139.090  75.359 220.382 +0.01 +0.12    -0.530 OA 
DOCKED: ATOM      3  H   UNL     1     138.699  74.646 219.780 +0.04 -0.06    +0.290 HD 
DOCKED: ENDBRANCH   1   2
DOCKED: BRANCH   1   4
DOCKED: ATOM      4  N   UNL     1     139.787  74.057 222.351 -0.63 +0.05    -0.546 NA 
DOCKED: BRANCH   4   5
DOCKED: ATOM      5  N   UNL     1     140.660  72.999 222.665 -0.47 -0.01    -0.372 NA 
DOCKED: BRANCH   5   6
DOCKED: ATOM      6  C   UNL     1     140.289  71.755 222.699 -0.29 -0.01    +0.094 C  
DOCKED: BRANCH   6   7
DOCKED: ATOM      7  C   UNL     1     140.118  71.046 223.983 -0.41 +0.00    -0.009 A  
DOCKED: ATOM      8  C   UNL     1     139.536  69.768 224.043 -0.31 -0.00    +0.009 A  
DOCKED: ATOM      9  C   UNL     1     140.554  71.656 225.171 -0.46 -0.00    +0.022 A  
DOCKED: ATOM     10  C   UNL     1     139.400  69.112 225.267 -0.43 -0.00    +0.001 A  
DOCKED: ATOM     11  C   UNL     1     140.395  71.012 226.411 -0.57 -0.01    +0.056 A  
DOCKED: ATOM     12  C   UNL     1     139.835  69.724 226.445 -0.50 -0.00    +0.013 A  
DOCKED: BRANCH  11  13
DOCKED: ATOM     13  C   UNL     1     140.911  71.655 227.675 -0.41 -0.08    +0.416 C  
DOCKED: ATOM     14  F   UNL     1     141.848  72.629 227.378 -0.34 +0.03    -0.166 F  
DOCKED: ATOM     15  F   UNL     1     139.879  72.249 228.380 -0.26 +0.05    -0.166 F  
DOCKED: ATOM     16  F   UNL     1     141.501  70.689 228.468 -0.17 +0.03    -0.166 F  
DOCKED: ENDBRANCH  11  13
DOCKED: ENDBRANCH   6   7
DOCKED: ENDBRANCH   5   6
DOCKED: ENDBRANCH   4   5
DOCKED: ENDBRANCH   1   4
DOCKED: BRANCH   1  17
DOCKED: ATOM     17  C   UNL     1     141.200  75.728 221.392 -0.32 +0.00    -0.001 C  
DOCKED: BRANCH  17  18
DOCKED: ATOM     18  C   UNL     1     141.651  76.629 220.278 -0.25 -0.04    +0.071 C  
DOCKED: BRANCH  18  19
DOCKED: ATOM     19  C   UNL     1     142.955  76.127 219.650 -0.26 -0.14    +0.234 C  
DOCKED: BRANCH  19  20
DOCKED: ATOM     20  O   UNL     1     143.511  75.069 220.432 -0.15 +0.26    -0.492 OA 
DOCKED: BRANCH  20  21
DOCKED: ATOM     21  C   UNL     1     143.398  73.697 220.152 -0.26 -0.03    +0.137 A  
DOCKED: ATOM     22  C   UNL     1     142.217  73.124 219.637 -0.14 -0.01    +0.049 A  
DOCKED: ATOM     23  C   UNL     1     144.509  72.869 220.390 -0.38 -0.01    +0.084 A  
DOCKED: ATOM     24  C   UNL     1     142.153  71.753 219.374 -0.11 -0.00    +0.024 A  
DOCKED: ATOM     25  C   UNL     1     144.439  71.497 220.124 -0.25 -0.00    +0.045 A  
DOCKED: ATOM     26  C   UNL     1     143.263  70.939 219.617 -0.18 -0.00    +0.042 A  
DOCKED: ATOM     27  Cl  UNL     1     146.001  73.543 221.027 -0.87 +0.01    -0.080 Cl 
DOCKED: ATOM     28  Cl  UNL     1     143.178  69.218 219.285 -0.24 +0.01    -0.084 Cl 
DOCKED: ENDBRANCH  20  21
DOCKED: ENDBRANCH  19  20
DOCKED: ENDBRANCH  18  19
DOCKED: ENDBRANCH  17  18
DOCKED: ENDBRANCH   1  17
DOCKED: TORSDOF 11
DOCKED: TER
DOCKED: ENDMDL
________________________________________________________________________________


    FINAL DOCKED STATE:
    ________________________


Run:   14 / 20
Time taken for this run:   0.040s

DOCKED: MODEL        14
DOCKED: USER    Run = 14
DOCKED: USER
DOCKED: USER    Estimated Free Energy of Binding    =  -5.70 kcal/mol  [=(1)+(2)+(3)-(4)]
DOCKED: USER
DOCKED: USER    (1) Final Intermolecular Energy     =  -8.98 kcal/mol
DOCKED: USER        vdW + Hbond + desolv Energy     =  -9.14 kcal/mol
DOCKED: USER        Electrostatic Energy            =  +0.16 kcal/mol
DOCKED: USER        Moving Ligand-Fixed Receptor    =  -8.98 kcal/mol
DOCKED: USER        Moving Ligand-Moving Receptor   =  +0.00 kcal/mol
DOCKED: USER    (2) Final Total Internal Energy     =  -1.48 kcal/mol
DOCKED: USER    (3) Torsional Free Energy           =  +3.28 kcal/mol
DOCKED: USER    (4) Unbound System's Energy         =  -1.48 kcal/mol
DOCKED: USER
DOCKED: USER
DOCKED: REMARK SMILES O/C(=C\CCOc1ccc(Cl)cc1Cl)[N-]/N=C/c1cccc(C(F)(F)F)c1
DOCKED: REMARK SMILES IDX 2 1 1 2 15 4 16 5 17 6 18 7 19 8 27 9 20 10 22 11 21 12
DOCKED: REMARK SMILES IDX 23 13 24 14 25 15 26 16 3 17 4 18 5 19 6 20 7 21 8 22 13 23
DOCKED: REMARK SMILES IDX 9 24 12 25 10 26 14 27 11 28
DOCKED: REMARK H PARENT 1 3
DOCKED: USER                              x       y       z     vdW  Elec       q    Type
DOCKED: USER                           _______ _______ _______ _____ _____    ______ ____
DOCKED: ROOT
DOCKED: ATOM      1  C   UNL     1     138.752  73.222 221.881 -0.19 -0.01    +0.023 C  
DOCKED: ENDROOT
DOCKED: BRANCH   1   2
DOCKED: ATOM      2  O   UNL     1     139.584  73.981 222.706 -0.49 +0.07    -0.530 OA 
DOCKED: ATOM      3  H   UNL     1     139.276  74.852 223.119 -0.46 -0.07    +0.290 HD 
DOCKED: ENDBRANCH   1   2
DOCKED: BRANCH   1   4
DOCKED: ATOM      4  N   UNL     1     138.970  71.813 221.715 -0.01 +0.11    -0.546 NA 
DOCKED: BRANCH   4   5
DOCKED: ATOM      5  N   UNL     1     138.644  70.835 222.673 -0.06 +0.07    -0.372 NA 
DOCKED: BRANCH   5   6
DOCKED: ATOM      6  C   UNL     1     139.527  70.074 223.245 -0.21 -0.02    +0.094 C  
DOCKED: BRANCH   6   7
DOCKED: ATOM      7  C   UNL     1     140.030  70.376 224.601 -0.42 +0.00    -0.009 A  
DOCKED: ATOM      8  C   UNL     1     140.633  71.609 224.901 -0.47 -0.00    +0.009 A  
DOCKED: ATOM      9  C   UNL     1     139.894  69.414 225.615 -0.44 -0.00    +0.022 A  
DOCKED: ATOM     10  C   UNL     1     141.085  71.875 226.195 -0.66 -0.00    +0.001 A  
DOCKED: ATOM     11  C   UNL     1     140.373  69.666 226.914 -0.52 -0.01    +0.056 A  
DOCKED: ATOM     12  C   UNL     1     140.948  70.915 227.200 -0.67 -0.00    +0.013 A  
DOCKED: BRANCH  11  13
DOCKED: ATOM     13  C   UNL     1     140.178  68.646 228.009 -0.28 -0.08    +0.416 C  
DOCKED: ATOM     14  F   UNL     1     139.534  69.214 229.095 -0.16 +0.02    -0.166 F  
DOCKED: ATOM     15  F   UNL     1     139.412  67.584 227.560 -0.15 +0.04    -0.166 F  
DOCKED: ATOM     16  F   UNL     1     141.411  68.173 228.414 -0.22 +0.05    -0.166 F  
DOCKED: ENDBRANCH  11  13
DOCKED: ENDBRANCH   6   7
DOCKED: ENDBRANCH   5   6
DOCKED: ENDBRANCH   4   5
DOCKED: ENDBRANCH   1   4
DOCKED: BRANCH   1  17
DOCKED: ATOM     17  C   UNL     1     137.759  73.808 221.206 -0.13 +0.00    -0.001 C  
DOCKED: BRANCH  17  18
DOCKED: ATOM     18  C   UNL     1     137.968  75.028 220.353 -0.07 -0.02    +0.071 C  
DOCKED: BRANCH  18  19
DOCKED: ATOM     19  C   UNL     1     137.628  76.308 221.123 -0.08 -0.05    +0.234 C  
DOCKED: BRANCH  19  20
DOCKED: ATOM     20  O   UNL     1     138.456  76.431 222.280 -0.13 +0.10    -0.492 OA 
DOCKED: BRANCH  20  21
DOCKED: ATOM     21  C   UNL     1     139.316  77.506 222.560 -0.25 -0.03    +0.137 A  
DOCKED: ATOM     22  C   UNL     1     138.898  78.643 223.283 -0.24 -0.01    +0.049 A  
DOCKED: ATOM     23  C   UNL     1     140.645  77.438 222.107 -0.36 -0.03    +0.084 A  
DOCKED: ATOM     24  C   UNL     1     139.791  79.687 223.537 -0.43 -0.00    +0.024 A  
DOCKED: ATOM     25  C   UNL     1     141.535  78.487 222.366 -0.42 -0.02    +0.045 A  
DOCKED: ATOM     26  C   UNL     1     141.109  79.611 223.079 -0.48 -0.01    +0.042 A  
DOCKED: ATOM     27  Cl  UNL     1     141.208  76.039 221.207 -0.37 +0.03    -0.080 Cl 
DOCKED: ATOM     28  Cl  UNL     1     142.228  80.923 223.402 -0.77 +0.02    -0.084 Cl 
DOCKED: ENDBRANCH  20  21
DOCKED: ENDBRANCH  19  20
DOCKED: ENDBRANCH  18  19
DOCKED: ENDBRANCH  17  18
DOCKED: ENDBRANCH   1  17
DOCKED: TORSDOF 11
DOCKED: TER
DOCKED: ENDMDL
________________________________________________________________________________


    FINAL DOCKED STATE:
    ________________________


Run:   15 / 20
Time taken for this run:   0.040s

DOCKED: MODEL        15
DOCKED: USER    Run = 15
DOCKED: USER
DOCKED: USER    Estimated Free Energy of Binding    =  -5.86 kcal/mol  [=(1)+(2)+(3)-(4)]
DOCKED: USER
DOCKED: USER    (1) Final Intermolecular Energy     =  -9.14 kcal/mol
DOCKED: USER        vdW + Hbond + desolv Energy     =  -9.13 kcal/mol
DOCKED: USER        Electrostatic Energy            =  -0.01 kcal/mol
DOCKED: USER        Moving Ligand-Fixed Receptor    =  -9.14 kcal/mol
DOCKED: USER        Moving Ligand-Moving Receptor   =  +0.00 kcal/mol
DOCKED: USER    (2) Final Total Internal Energy     =  -1.45 kcal/mol
DOCKED: USER    (3) Torsional Free Energy           =  +3.28 kcal/mol
DOCKED: USER    (4) Unbound System's Energy         =  -1.45 kcal/mol
DOCKED: USER
DOCKED: USER
DOCKED: REMARK SMILES O/C(=C\CCOc1ccc(Cl)cc1Cl)[N-]/N=C/c1cccc(C(F)(F)F)c1
DOCKED: REMARK SMILES IDX 2 1 1 2 15 4 16 5 17 6 18 7 19 8 27 9 20 10 22 11 21 12
DOCKED: REMARK SMILES IDX 23 13 24 14 25 15 26 16 3 17 4 18 5 19 6 20 7 21 8 22 13 23
DOCKED: REMARK SMILES IDX 9 24 12 25 10 26 14 27 11 28
DOCKED: REMARK H PARENT 1 3
DOCKED: USER                              x       y       z     vdW  Elec       q    Type
DOCKED: USER                           _______ _______ _______ _____ _____    ______ ____
DOCKED: ROOT
DOCKED: ATOM      1  C   UNL     1     139.317  75.568 222.231 -0.29 -0.00    +0.023 C  
DOCKED: ENDROOT
DOCKED: BRANCH   1   2
DOCKED: ATOM      2  O   UNL     1     138.006  75.404 222.682 -0.07 +0.18    -0.530 OA 
DOCKED: ATOM      3  H   UNL     1     137.685  74.535 223.088 -0.42 -0.18    +0.290 HD 
DOCKED: ENDBRANCH   1   2
DOCKED: BRANCH   1   4
DOCKED: ATOM      4  N   UNL     1     140.244  74.473 222.259 -0.56 -0.01    -0.546 NA 
DOCKED: BRANCH   4   5
DOCKED: ATOM      5  N   UNL     1     139.883  73.122 222.415 -0.56 +0.05    -0.372 NA 
DOCKED: BRANCH   5   6
DOCKED: ATOM      6  C   UNL     1     140.669  72.229 222.935 -0.22 -0.01    +0.094 C  
DOCKED: BRANCH   6   7
DOCKED: ATOM      7  C   UNL     1     140.257  71.452 224.123 -0.44 +0.00    -0.009 A  
DOCKED: ATOM      8  C   UNL     1     139.426  70.324 224.009 -0.34 -0.00    +0.009 A  
DOCKED: ATOM      9  C   UNL     1     140.712  71.843 225.393 -0.44 -0.00    +0.022 A  
DOCKED: ATOM     10  C   UNL     1     139.065  69.598 225.145 -0.40 -0.00    +0.001 A  
DOCKED: ATOM     11  C   UNL     1     140.329  71.131 226.545 -0.57 -0.01    +0.056 A  
DOCKED: ATOM     12  C   UNL     1     139.520  69.992 226.406 -0.44 -0.00    +0.013 A  
DOCKED: BRANCH  11  13
DOCKED: ATOM     13  C   UNL     1     140.863  71.529 227.899 -0.40 -0.09    +0.416 C  
DOCKED: ATOM     14  F   UNL     1     139.839  71.981 228.712 -0.28 +0.05    -0.166 F  
DOCKED: ATOM     15  F   UNL     1     141.467  70.452 228.523 -0.16 +0.03    -0.166 F  
DOCKED: ATOM     16  F   UNL     1     141.793  72.538 227.742 -0.32 +0.03    -0.166 F  
DOCKED: ENDBRANCH  11  13
DOCKED: ENDBRANCH   6   7
DOCKED: ENDBRANCH   5   6
DOCKED: ENDBRANCH   4   5
DOCKED: ENDBRANCH   1   4
DOCKED: BRANCH   1  17
DOCKED: ATOM     17  C   UNL     1     139.734  76.760 221.797 -0.33 +0.00    -0.001 C  
DOCKED: BRANCH  17  18
DOCKED: ATOM     18  C   UNL     1     140.501  76.935 220.517 -0.19 -0.02    +0.071 C  
DOCKED: BRANCH  18  19
DOCKED: ATOM     19  C   UNL     1     139.908  76.078 219.394 -0.04 -0.07    +0.234 C  
DOCKED: BRANCH  19  20
DOCKED: ATOM     20  O   UNL     1     140.936  75.341 218.731 +0.02 +0.15    -0.492 OA 
DOCKED: BRANCH  20  21
DOCKED: ATOM     21  C   UNL     1     142.131  74.893 219.318 -0.14 -0.05    +0.137 A  
DOCKED: ATOM     22  C   UNL     1     143.234  75.745 219.536 -0.36 -0.03    +0.049 A  
DOCKED: ATOM     23  C   UNL     1     142.225  73.546 219.706 -0.15 -0.02    +0.084 A  
DOCKED: ATOM     24  C   UNL     1     144.402  75.253 220.123 -0.29 -0.01    +0.024 A  
DOCKED: ATOM     25  C   UNL     1     143.397  73.059 220.295 -0.29 -0.01    +0.045 A  
DOCKED: ATOM     26  C   UNL     1     144.486  73.911 220.503 -0.47 -0.01    +0.042 A  
DOCKED: ATOM     27  Cl  UNL     1     140.873  72.451 219.456 -0.10 +0.01    -0.080 Cl 
DOCKED: ATOM     28  Cl  UNL     1     145.954  73.297 221.242 -0.87 +0.01    -0.084 Cl 
DOCKED: ENDBRANCH  20  21
DOCKED: ENDBRANCH  19  20
DOCKED: ENDBRANCH  18  19
DOCKED: ENDBRANCH  17  18
DOCKED: ENDBRANCH   1  17
DOCKED: TORSDOF 11
DOCKED: TER
DOCKED: ENDMDL
________________________________________________________________________________


    FINAL DOCKED STATE:
    ________________________


Run:   16 / 20
Time taken for this run:   0.040s

DOCKED: MODEL        16
DOCKED: USER    Run = 16
DOCKED: USER
DOCKED: USER    Estimated Free Energy of Binding    =  -6.24 kcal/mol  [=(1)+(2)+(3)-(4)]
DOCKED: USER
DOCKED: USER    (1) Final Intermolecular Energy     =  -9.52 kcal/mol
DOCKED: USER        vdW + Hbond + desolv Energy     =  -9.59 kcal/mol
DOCKED: USER        Electrostatic Energy            =  +0.07 kcal/mol
DOCKED: USER        Moving Ligand-Fixed Receptor    =  -9.52 kcal/mol
DOCKED: USER        Moving Ligand-Moving Receptor   =  +0.00 kcal/mol
DOCKED: USER    (2) Final Total Internal Energy     =  -0.94 kcal/mol
DOCKED: USER    (3) Torsional Free Energy           =  +3.28 kcal/mol
DOCKED: USER    (4) Unbound System's Energy         =  -0.94 kcal/mol
DOCKED: USER
DOCKED: USER
DOCKED: REMARK SMILES O/C(=C\CCOc1ccc(Cl)cc1Cl)[N-]/N=C/c1cccc(C(F)(F)F)c1
DOCKED: REMARK SMILES IDX 2 1 1 2 15 4 16 5 17 6 18 7 19 8 27 9 20 10 22 11 21 12
DOCKED: REMARK SMILES IDX 23 13 24 14 25 15 26 16 3 17 4 18 5 19 6 20 7 21 8 22 13 23
DOCKED: REMARK SMILES IDX 9 24 12 25 10 26 14 27 11 28
DOCKED: REMARK H PARENT 1 3
DOCKED: USER                              x       y       z     vdW  Elec       q    Type
DOCKED: USER                           _______ _______ _______ _____ _____    ______ ____
DOCKED: ROOT
DOCKED: ATOM      1  C   UNL     1     139.242  75.236 221.757 -0.28 -0.00    +0.023 C  
DOCKED: ENDROOT
DOCKED: BRANCH   1   2
DOCKED: ATOM      2  O   UNL     1     138.232  75.605 222.648 -0.12 +0.15    -0.530 OA 
DOCKED: ATOM      3  H   UNL     1     137.972  75.020 223.431 -0.35 -0.20    +0.290 HD 
DOCKED: ENDBRANCH   1   2
DOCKED: BRANCH   1   4
DOCKED: ATOM      4  N   UNL     1     140.057  74.082 222.008 -0.66 +0.05    -0.546 NA 
DOCKED: BRANCH   4   5
DOCKED: ATOM      5  N   UNL     1     139.637  72.948 222.728 -0.45 +0.07    -0.372 NA 
DOCKED: BRANCH   5   6
DOCKED: ATOM      6  C   UNL     1     140.403  71.925 222.957 -0.30 -0.01    +0.094 C  
DOCKED: BRANCH   6   7
DOCKED: ATOM      7  C   UNL     1     140.285  71.149 224.209 -0.45 +0.00    -0.009 A  
DOCKED: ATOM      8  C   UNL     1     139.797  69.831 224.211 -0.30 -0.00    +0.009 A  
DOCKED: ATOM      9  C   UNL     1     140.674  71.738 225.423 -0.48 -0.00    +0.022 A  
DOCKED: ATOM     10  C   UNL     1     139.710  69.115 225.405 -0.44 -0.00    +0.001 A  
DOCKED: ATOM     11  C   UNL     1     140.563  71.031 226.634 -0.60 -0.01    +0.056 A  
DOCKED: ATOM     12  C   UNL     1     140.099  69.705 226.610 -0.53 -0.00    +0.013 A  
DOCKED: BRANCH  11  13
DOCKED: ATOM     13  C   UNL     1     141.031  71.654 227.926 -0.40 -0.09    +0.416 C  
DOCKED: ATOM     14  F   UNL     1     139.956  72.152 228.643 -0.29 +0.05    -0.166 F  
DOCKED: ATOM     15  F   UNL     1     141.679  70.719 228.714 -0.14 +0.03    -0.166 F  
DOCKED: ATOM     16  F   UNL     1     141.902  72.687 227.643 -0.30 +0.03    -0.166 F  
DOCKED: ENDBRANCH  11  13
DOCKED: ENDBRANCH   6   7
DOCKED: ENDBRANCH   5   6
DOCKED: ENDBRANCH   4   5
DOCKED: ENDBRANCH   1   4
DOCKED: BRANCH   1  17
DOCKED: ATOM     17  C   UNL     1     139.484  75.977 220.672 -0.17 +0.00    -0.001 C  
DOCKED: BRANCH  17  18
DOCKED: ATOM     18  C   UNL     1     140.874  76.341 220.231 -0.19 -0.03    +0.071 C  
DOCKED: BRANCH  18  19
DOCKED: ATOM     19  C   UNL     1     141.533  77.309 221.219 -0.08 -0.13    +0.234 C  
DOCKED: BRANCH  19  20
DOCKED: ATOM     20  O   UNL     1     140.970  78.614 221.092 -0.05 +0.20    -0.492 OA 
DOCKED: BRANCH  20  21
DOCKED: ATOM     21  C   UNL     1     140.091  79.219 222.007 -0.22 -0.04    +0.137 A  
DOCKED: ATOM     22  C   UNL     1     138.712  78.927 222.039 -0.20 -0.01    +0.049 A  
DOCKED: ATOM     23  C   UNL     1     140.612  80.145 222.927 -0.38 -0.02    +0.084 A  
DOCKED: ATOM     24  C   UNL     1     137.878  79.555 222.968 -0.25 -0.00    +0.024 A  
DOCKED: ATOM     25  C   UNL     1     139.772  80.770 223.855 -0.34 -0.01    +0.045 A  
DOCKED: ATOM     26  C   UNL     1     138.406  80.476 223.876 -0.37 -0.00    +0.042 A  
DOCKED: ATOM     27  Cl  UNL     1     142.325  80.536 222.923 -0.77 +0.02    -0.080 Cl 
DOCKED: ATOM     28  Cl  UNL     1     137.356  81.261 225.041 -0.49 +0.01    -0.084 Cl 
DOCKED: ENDBRANCH  20  21
DOCKED: ENDBRANCH  19  20
DOCKED: ENDBRANCH  18  19
DOCKED: ENDBRANCH  17  18
DOCKED: ENDBRANCH   1  17
DOCKED: TORSDOF 11
DOCKED: TER
DOCKED: ENDMDL
________________________________________________________________________________


    FINAL DOCKED STATE:
    ________________________


Run:   17 / 20
Time taken for this run:   0.040s

DOCKED: MODEL        17
DOCKED: USER    Run = 17
DOCKED: USER
DOCKED: USER    Estimated Free Energy of Binding    =  -6.15 kcal/mol  [=(1)+(2)+(3)-(4)]
DOCKED: USER
DOCKED: USER    (1) Final Intermolecular Energy     =  -9.43 kcal/mol
DOCKED: USER        vdW + Hbond + desolv Energy     =  -9.46 kcal/mol
DOCKED: USER        Electrostatic Energy            =  +0.03 kcal/mol
DOCKED: USER        Moving Ligand-Fixed Receptor    =  -9.43 kcal/mol
DOCKED: USER        Moving Ligand-Moving Receptor   =  +0.00 kcal/mol
DOCKED: USER    (2) Final Total Internal Energy     =  -0.70 kcal/mol
DOCKED: USER    (3) Torsional Free Energy           =  +3.28 kcal/mol
DOCKED: USER    (4) Unbound System's Energy         =  -0.70 kcal/mol
DOCKED: USER
DOCKED: USER
DOCKED: REMARK SMILES O/C(=C\CCOc1ccc(Cl)cc1Cl)[N-]/N=C/c1cccc(C(F)(F)F)c1
DOCKED: REMARK SMILES IDX 2 1 1 2 15 4 16 5 17 6 18 7 19 8 27 9 20 10 22 11 21 12
DOCKED: REMARK SMILES IDX 23 13 24 14 25 15 26 16 3 17 4 18 5 19 6 20 7 21 8 22 13 23
DOCKED: REMARK SMILES IDX 9 24 12 25 10 26 14 27 11 28
DOCKED: REMARK H PARENT 1 3
DOCKED: USER                              x       y       z     vdW  Elec       q    Type
DOCKED: USER                           _______ _______ _______ _____ _____    ______ ____
DOCKED: ROOT
DOCKED: ATOM      1  C   UNL     1     140.029  73.797 220.732 -0.18 -0.00    +0.023 C  
DOCKED: ENDROOT
DOCKED: BRANCH   1   2
DOCKED: ATOM      2  O   UNL     1     138.799  73.535 220.127 +0.01 +0.11    -0.530 OA 
DOCKED: ATOM      3  H   UNL     1     138.092  72.967 220.576 +0.05 -0.06    +0.290 HD 
DOCKED: ENDBRANCH   1   2
DOCKED: BRANCH   1   4
DOCKED: ATOM      4  N   UNL     1     140.165  73.767 222.161 -0.64 +0.03    -0.546 NA 
DOCKED: BRANCH   4   5
DOCKED: ATOM      5  N   UNL     1     140.690  72.685 222.892 -0.36 +0.00    -0.372 NA 
DOCKED: BRANCH   5   6
DOCKED: ATOM      6  C   UNL     1     140.078  71.547 223.021 -0.31 -0.01    +0.094 C  
DOCKED: BRANCH   6   7
DOCKED: ATOM      7  C   UNL     1     140.040  70.846 224.321 -0.43 +0.00    -0.009 A  
DOCKED: ATOM      8  C   UNL     1     139.553  69.532 224.431 -0.34 -0.00    +0.009 A  
DOCKED: ATOM      9  C   UNL     1     140.506  71.503 225.471 -0.54 -0.00    +0.022 A  
DOCKED: ATOM     10  C   UNL     1     139.542  68.886 225.668 -0.48 -0.00    +0.001 A  
DOCKED: ATOM     11  C   UNL     1     140.472  70.867 226.726 -0.58 -0.01    +0.056 A  
DOCKED: ATOM     12  C   UNL     1     140.007  69.544 226.809 -0.54 -0.00    +0.013 A  
DOCKED: BRANCH  11  13
DOCKED: ATOM     13  C   UNL     1     141.022  71.562 227.947 -0.40 -0.09    +0.416 C  
DOCKED: ATOM     14  F   UNL     1     141.780  70.686 228.706 -0.12 +0.03    -0.166 F  
DOCKED: ATOM     15  F   UNL     1     141.828  72.627 227.585 -0.35 +0.03    -0.166 F  
DOCKED: ATOM     16  F   UNL     1     139.973  72.031 228.714 -0.29 +0.05    -0.166 F  
DOCKED: ENDBRANCH  11  13
DOCKED: ENDBRANCH   6   7
DOCKED: ENDBRANCH   5   6
DOCKED: ENDBRANCH   4   5
DOCKED: ENDBRANCH   1   4
DOCKED: BRANCH   1  17
DOCKED: ATOM     17  C   UNL     1     141.091  74.113 219.986 -0.16 +0.00    -0.001 C  
DOCKED: BRANCH  17  18
DOCKED: ATOM     18  C   UNL     1     141.830  75.413 220.136 -0.24 -0.03    +0.071 C  
DOCKED: BRANCH  18  19
DOCKED: ATOM     19  C   UNL     1     141.324  76.457 219.135 -0.10 -0.10    +0.234 C  
DOCKED: BRANCH  19  20
DOCKED: ATOM     20  O   UNL     1     140.619  77.498 219.811 -0.00 +0.19    -0.492 OA 
DOCKED: BRANCH  20  21
DOCKED: ATOM     21  C   UNL     1     141.121  78.274 220.869 -0.23 -0.06    +0.137 A  
DOCKED: ATOM     22  C   UNL     1     141.049  77.858 222.215 -0.41 -0.02    +0.049 A  
DOCKED: ATOM     23  C   UNL     1     141.723  79.508 220.570 -0.28 -0.04    +0.084 A  
DOCKED: ATOM     24  C   UNL     1     141.564  78.665 223.233 -0.56 -0.01    +0.024 A  
DOCKED: ATOM     25  C   UNL     1     142.238  80.312 221.594 -0.41 -0.02    +0.045 A  
DOCKED: ATOM     26  C   UNL     1     142.157  79.892 222.924 -0.57 -0.01    +0.042 A  
DOCKED: ATOM     27  Cl  UNL     1     141.837  80.063 218.907 -0.37 +0.05    -0.080 Cl 
DOCKED: ATOM     28  Cl  UNL     1     142.803  80.901 224.205 -0.63 +0.01    -0.084 Cl 
DOCKED: ENDBRANCH  20  21
DOCKED: ENDBRANCH  19  20
DOCKED: ENDBRANCH  18  19
DOCKED: ENDBRANCH  17  18
DOCKED: ENDBRANCH   1  17
DOCKED: TORSDOF 11
DOCKED: TER
DOCKED: ENDMDL
________________________________________________________________________________


    FINAL DOCKED STATE:
    ________________________


Run:   18 / 20
Time taken for this run:   0.040s

DOCKED: MODEL        18
DOCKED: USER    Run = 18
DOCKED: USER
DOCKED: USER    Estimated Free Energy of Binding    =  -5.71 kcal/mol  [=(1)+(2)+(3)-(4)]
DOCKED: USER
DOCKED: USER    (1) Final Intermolecular Energy     =  -9.00 kcal/mol
DOCKED: USER        vdW + Hbond + desolv Energy     =  -9.09 kcal/mol
DOCKED: USER        Electrostatic Energy            =  +0.09 kcal/mol
DOCKED: USER        Moving Ligand-Fixed Receptor    =  -9.00 kcal/mol
DOCKED: USER        Moving Ligand-Moving Receptor   =  +0.00 kcal/mol
DOCKED: USER    (2) Final Total Internal Energy     =  -0.49 kcal/mol
DOCKED: USER    (3) Torsional Free Energy           =  +3.28 kcal/mol
DOCKED: USER    (4) Unbound System's Energy         =  -0.49 kcal/mol
DOCKED: USER
DOCKED: USER
DOCKED: REMARK SMILES O/C(=C\CCOc1ccc(Cl)cc1Cl)[N-]/N=C/c1cccc(C(F)(F)F)c1
DOCKED: REMARK SMILES IDX 2 1 1 2 15 4 16 5 17 6 18 7 19 8 27 9 20 10 22 11 21 12
DOCKED: REMARK SMILES IDX 23 13 24 14 25 15 26 16 3 17 4 18 5 19 6 20 7 21 8 22 13 23
DOCKED: REMARK SMILES IDX 9 24 12 25 10 26 14 27 11 28
DOCKED: REMARK H PARENT 1 3
DOCKED: USER                              x       y       z     vdW  Elec       q    Type
DOCKED: USER                           _______ _______ _______ _____ _____    ______ ____
DOCKED: ROOT
DOCKED: ATOM      1  C   UNL     1     140.193  74.890 221.368 -0.29 -0.00    +0.023 C  
DOCKED: ENDROOT
DOCKED: BRANCH   1   2
DOCKED: ATOM      2  O   UNL     1     141.430  75.096 221.980 -0.28 +0.10    -0.530 OA 
DOCKED: ATOM      3  H   UNL     1     141.880  76.002 221.985 -0.45 -0.17    +0.290 HD 
DOCKED: ENDBRANCH   1   2
DOCKED: BRANCH   1   4
DOCKED: ATOM      4  N   UNL     1     139.430  75.996 220.863 +0.00 +0.13    -0.546 NA 
DOCKED: BRANCH   4   5
DOCKED: ATOM      5  N   UNL     1     139.207  77.197 221.560 -0.07 +0.09    -0.372 NA 
DOCKED: BRANCH   5   6
DOCKED: ATOM      6  C   UNL     1     139.809  77.501 222.670 -0.25 -0.02    +0.094 C  
DOCKED: BRANCH   6   7
DOCKED: ATOM      7  C   UNL     1     140.685  78.687 222.761 -0.44 +0.00    -0.009 A  
DOCKED: ATOM      8  C   UNL     1     141.733  78.754 223.695 -0.61 -0.00    +0.009 A  
DOCKED: ATOM      9  C   UNL     1     140.473  79.768 221.890 -0.29 -0.01    +0.022 A  
DOCKED: ATOM     10  C   UNL     1     142.556  79.880 223.750 -0.61 -0.00    +0.001 A  
DOCKED: ATOM     11  C   UNL     1     141.283  80.917 221.958 -0.38 -0.01    +0.056 A  
DOCKED: ATOM     12  C   UNL     1     142.341  80.952 222.881 -0.57 -0.00    +0.013 A  
DOCKED: BRANCH  11  13
DOCKED: ATOM     13  C   UNL     1     141.079  82.052 220.985 -0.15 -0.10    +0.416 C  
DOCKED: ATOM     14  F   UNL     1     141.817  81.843 219.833 -0.10 +0.06    -0.166 F  
DOCKED: ATOM     15  F   UNL     1     139.746  82.161 220.631 -0.04 +0.03    -0.166 F  
DOCKED: ATOM     16  F   UNL     1     141.488  83.234 221.573 -0.12 +0.02    -0.166 F  
DOCKED: ENDBRANCH  11  13
DOCKED: ENDBRANCH   6   7
DOCKED: ENDBRANCH   5   6
DOCKED: ENDBRANCH   4   5
DOCKED: ENDBRANCH   1   4
DOCKED: BRANCH   1  17
DOCKED: ATOM     17  C   UNL     1     139.687  73.656 221.274 -0.23 +0.00    -0.001 C  
DOCKED: BRANCH  17  18
DOCKED: ATOM     18  C   UNL     1     138.479  73.214 222.050 -0.10 -0.02    +0.071 C  
DOCKED: BRANCH  18  19
DOCKED: ATOM     19  C   UNL     1     138.544  71.718 222.373 -0.13 -0.06    +0.234 C  
DOCKED: BRANCH  19  20
DOCKED: ATOM     20  O   UNL     1     139.808  71.384 222.946 -0.12 +0.09    -0.492 OA 
DOCKED: BRANCH  20  21
DOCKED: ATOM     21  C   UNL     1     140.010  70.843 224.227 -0.34 -0.02    +0.137 A  
DOCKED: ATOM     22  C   UNL     1     140.652  71.559 225.259 -0.50 -0.01    +0.049 A  
DOCKED: ATOM     23  C   UNL     1     139.546  69.542 224.487 -0.30 -0.01    +0.084 A  
DOCKED: ATOM     24  C   UNL     1     140.829  70.978 226.518 -0.63 -0.00    +0.024 A  
DOCKED: ATOM     25  C   UNL     1     139.726  68.967 225.750 -0.45 -0.01    +0.045 A  
DOCKED: ATOM     26  C   UNL     1     140.367  69.682 226.764 -0.52 -0.01    +0.042 A  
DOCKED: ATOM     27  Cl  UNL     1     138.738  68.618 223.231 -0.32 +0.01    -0.080 Cl 
DOCKED: ATOM     28  Cl  UNL     1     140.590  68.957 228.346 -0.78 +0.02    -0.084 Cl 
DOCKED: ENDBRANCH  20  21
DOCKED: ENDBRANCH  19  20
DOCKED: ENDBRANCH  18  19
DOCKED: ENDBRANCH  17  18
DOCKED: ENDBRANCH   1  17
DOCKED: TORSDOF 11
DOCKED: TER
DOCKED: ENDMDL
________________________________________________________________________________


    FINAL DOCKED STATE:
    ________________________


Run:   19 / 20
Time taken for this run:   0.040s

DOCKED: MODEL        19
DOCKED: USER    Run = 19
DOCKED: USER
DOCKED: USER    Estimated Free Energy of Binding    =  -6.16 kcal/mol  [=(1)+(2)+(3)-(4)]
DOCKED: USER
DOCKED: USER    (1) Final Intermolecular Energy     =  -9.44 kcal/mol
DOCKED: USER        vdW + Hbond + desolv Energy     =  -9.57 kcal/mol
DOCKED: USER        Electrostatic Energy            =  +0.13 kcal/mol
DOCKED: USER        Moving Ligand-Fixed Receptor    =  -9.44 kcal/mol
DOCKED: USER        Moving Ligand-Moving Receptor   =  +0.00 kcal/mol
DOCKED: USER    (2) Final Total Internal Energy     =  -0.96 kcal/mol
DOCKED: USER    (3) Torsional Free Energy           =  +3.28 kcal/mol
DOCKED: USER    (4) Unbound System's Energy         =  -0.96 kcal/mol
DOCKED: USER
DOCKED: USER
DOCKED: REMARK SMILES O/C(=C\CCOc1ccc(Cl)cc1Cl)[N-]/N=C/c1cccc(C(F)(F)F)c1
DOCKED: REMARK SMILES IDX 2 1 1 2 15 4 16 5 17 6 18 7 19 8 27 9 20 10 22 11 21 12
DOCKED: REMARK SMILES IDX 23 13 24 14 25 15 26 16 3 17 4 18 5 19 6 20 7 21 8 22 13 23
DOCKED: REMARK SMILES IDX 9 24 12 25 10 26 14 27 11 28
DOCKED: REMARK H PARENT 1 3
DOCKED: USER                              x       y       z     vdW  Elec       q    Type
DOCKED: USER                           _______ _______ _______ _____ _____    ______ ____
DOCKED: ROOT
DOCKED: ATOM      1  C   UNL     1     137.710  73.422 221.967 -0.15 -0.01    +0.023 C  
DOCKED: ENDROOT
DOCKED: BRANCH   1   2
DOCKED: ATOM      2  O   UNL     1     137.005  72.690 222.924 -0.03 +0.19    -0.530 OA 
DOCKED: ATOM      3  H   UNL     1     137.275  72.687 223.900 -0.47 -0.18    +0.290 HD 
DOCKED: ENDBRANCH   1   2
DOCKED: BRANCH   1   4
DOCKED: ATOM      4  N   UNL     1     139.090  73.138 221.695 -0.07 +0.12    -0.546 NA 
DOCKED: BRANCH   4   5
DOCKED: ATOM      5  N   UNL     1     140.093  73.028 222.676 -0.57 +0.03    -0.372 NA 
DOCKED: BRANCH   5   6
DOCKED: ATOM      6  C   UNL     1     140.672  71.907 222.982 -0.27 -0.01    +0.094 C  
DOCKED: BRANCH   6   7
DOCKED: ATOM      7  C   UNL     1     140.275  71.148 224.186 -0.44 +0.00    -0.009 A  
DOCKED: ATOM      8  C   UNL     1     139.485  69.989 224.094 -0.33 -0.00    +0.009 A  
DOCKED: ATOM      9  C   UNL     1     140.703  71.587 225.449 -0.54 -0.00    +0.022 A  
DOCKED: ATOM     10  C   UNL     1     139.137  69.281 225.245 -0.41 -0.00    +0.001 A  
DOCKED: ATOM     11  C   UNL     1     140.332  70.894 226.616 -0.56 -0.01    +0.056 A  
DOCKED: ATOM     12  C   UNL     1     139.565  69.723 226.499 -0.48 -0.00    +0.013 A  
DOCKED: BRANCH  11  13
DOCKED: ATOM     13  C   UNL     1     140.838  71.345 227.964 -0.38 -0.08    +0.416 C  
DOCKED: ATOM     14  F   UNL     1     141.788  72.341 227.819 -0.32 +0.03    -0.166 F  
DOCKED: ATOM     15  F   UNL     1     139.802  71.845 228.733 -0.28 +0.05    -0.166 F  
DOCKED: ATOM     16  F   UNL     1     141.408  70.270 228.619 -0.15 +0.03    -0.166 F  
DOCKED: ENDBRANCH  11  13
DOCKED: ENDBRANCH   6   7
DOCKED: ENDBRANCH   5   6
DOCKED: ENDBRANCH   4   5
DOCKED: ENDBRANCH   1   4
DOCKED: BRANCH   1  17
DOCKED: ATOM     17  C   UNL     1     137.113  74.424 221.315 -0.12 +0.00    -0.001 C  
DOCKED: BRANCH  17  18
DOCKED: ATOM     18  C   UNL     1     136.566  75.636 222.014 -0.15 -0.02    +0.071 C  
DOCKED: BRANCH  18  19
DOCKED: ATOM     19  C   UNL     1     137.646  76.329 222.850 -0.18 -0.05    +0.234 C  
DOCKED: BRANCH  19  20
DOCKED: ATOM     20  O   UNL     1     138.145  77.480 222.169 -0.07 +0.09    -0.492 OA 
DOCKED: BRANCH  20  21
DOCKED: ATOM     21  C   UNL     1     139.244  78.258 222.571 -0.25 -0.03    +0.137 A  
DOCKED: ATOM     22  C   UNL     1     139.096  79.518 223.186 -0.33 -0.01    +0.049 A  
DOCKED: ATOM     23  C   UNL     1     140.538  77.753 222.357 -0.37 -0.03    +0.084 A  
DOCKED: ATOM     24  C   UNL     1     140.220  80.255 223.569 -0.43 -0.00    +0.024 A  
DOCKED: ATOM     25  C   UNL     1     141.660  78.494 222.744 -0.44 -0.02    +0.045 A  
DOCKED: ATOM     26  C   UNL     1     141.502  79.744 223.348 -0.54 -0.01    +0.042 A  
DOCKED: ATOM     27  Cl  UNL     1     140.768  76.185 221.598 -0.45 +0.03    -0.080 Cl 
DOCKED: ATOM     28  Cl  UNL     1     142.911  80.672 223.831 -0.78 +0.02    -0.084 Cl 
DOCKED: ENDBRANCH  20  21
DOCKED: ENDBRANCH  19  20
DOCKED: ENDBRANCH  18  19
DOCKED: ENDBRANCH  17  18
DOCKED: ENDBRANCH   1  17
DOCKED: TORSDOF 11
DOCKED: TER
DOCKED: ENDMDL
________________________________________________________________________________


    FINAL DOCKED STATE:
    ________________________


Run:   20 / 20
Time taken for this run:   0.040s

DOCKED: MODEL        20
DOCKED: USER    Run = 20
DOCKED: USER
DOCKED: USER    Estimated Free Energy of Binding    =  -6.56 kcal/mol  [=(1)+(2)+(3)-(4)]
DOCKED: USER
DOCKED: USER    (1) Final Intermolecular Energy     =  -9.85 kcal/mol
DOCKED: USER        vdW + Hbond + desolv Energy     =  -9.87 kcal/mol
DOCKED: USER        Electrostatic Energy            =  +0.02 kcal/mol
DOCKED: USER        Moving Ligand-Fixed Receptor    =  -9.85 kcal/mol
DOCKED: USER        Moving Ligand-Moving Receptor   =  +0.00 kcal/mol
DOCKED: USER    (2) Final Total Internal Energy     =  -0.72 kcal/mol
DOCKED: USER    (3) Torsional Free Energy           =  +3.28 kcal/mol
DOCKED: USER    (4) Unbound System's Energy         =  -0.72 kcal/mol
DOCKED: USER
DOCKED: USER
DOCKED: REMARK SMILES O/C(=C\CCOc1ccc(Cl)cc1Cl)[N-]/N=C/c1cccc(C(F)(F)F)c1
DOCKED: REMARK SMILES IDX 2 1 1 2 15 4 16 5 17 6 18 7 19 8 27 9 20 10 22 11 21 12
DOCKED: REMARK SMILES IDX 23 13 24 14 25 15 26 16 3 17 4 18 5 19 6 20 7 21 8 22 13 23
DOCKED: REMARK SMILES IDX 9 24 12 25 10 26 14 27 11 28
DOCKED: REMARK H PARENT 1 3
DOCKED: USER                              x       y       z     vdW  Elec       q    Type
DOCKED: USER                           _______ _______ _______ _____ _____    ______ ____
DOCKED: ROOT
DOCKED: ATOM      1  C   UNL     1     138.396  73.817 221.912 -0.16 -0.01    +0.023 C  
DOCKED: ENDROOT
DOCKED: BRANCH   1   2
DOCKED: ATOM      2  O   UNL     1     137.671  72.821 222.568 -0.00 +0.20    -0.530 OA 
DOCKED: ATOM      3  H   UNL     1     137.786  72.640 223.557 -0.42 -0.18    +0.290 HD 
DOCKED: ENDBRANCH   1   2
DOCKED: BRANCH   1   4
DOCKED: ATOM      4  N   UNL     1     139.785  74.027 222.203 -0.62 +0.06    -0.546 NA 
DOCKED: BRANCH   4   5
DOCKED: ATOM      5  N   UNL     1     140.665  73.030 222.663 -0.47 -0.01    -0.372 NA 
DOCKED: BRANCH   5   6
DOCKED: ATOM      6  C   UNL     1     140.358  71.769 222.701 -0.29 -0.01    +0.094 C  
DOCKED: BRANCH   6   7
DOCKED: ATOM      7  C   UNL     1     140.074  71.092 223.983 -0.41 +0.00    -0.009 A  
DOCKED: ATOM      8  C   UNL     1     139.325  69.904 224.034 -0.31 -0.00    +0.009 A  
DOCKED: ATOM      9  C   UNL     1     140.568  71.643 225.177 -0.47 -0.00    +0.022 A  
DOCKED: ATOM     10  C   UNL     1     139.084  69.276 225.256 -0.41 -0.00    +0.001 A  
DOCKED: ATOM     11  C   UNL     1     140.305  71.029 226.415 -0.55 -0.01    +0.056 A  
DOCKED: ATOM     12  C   UNL     1     139.578  69.827 226.441 -0.47 -0.00    +0.013 A  
DOCKED: BRANCH  11  13
DOCKED: ATOM     13  C   UNL     1     140.883  71.600 227.687 -0.40 -0.08    +0.416 C  
DOCKED: ATOM     14  F   UNL     1     139.903  72.249 228.417 -0.27 +0.05    -0.166 F  
DOCKED: ATOM     15  F   UNL     1     141.417  70.597 228.476 -0.18 +0.03    -0.166 F  
DOCKED: ATOM     16  F   UNL     1     141.880  72.502 227.369 -0.32 +0.03    -0.166 F  
DOCKED: ENDBRANCH  11  13
DOCKED: ENDBRANCH   6   7
DOCKED: ENDBRANCH   5   6
DOCKED: ENDBRANCH   4   5
DOCKED: ENDBRANCH   1   4
DOCKED: BRANCH   1  17
DOCKED: ATOM     17  C   UNL     1     137.791  74.614 221.025 -0.13 +0.00    -0.001 C  
DOCKED: BRANCH  17  18
DOCKED: ATOM     18  C   UNL     1     137.699  76.103 221.203 -0.13 -0.02    +0.071 C  
DOCKED: BRANCH  18  19
DOCKED: ATOM     19  C   UNL     1     137.423  76.471 222.664 -0.20 -0.05    +0.234 C  
DOCKED: BRANCH  19  20
DOCKED: ATOM     20  O   UNL     1     137.681  77.857 222.889 -0.08 +0.08    -0.492 OA 
DOCKED: BRANCH  20  21
DOCKED: ATOM     21  C   UNL     1     138.951  78.445 223.013 -0.24 -0.02    +0.137 A  
DOCKED: ATOM     22  C   UNL     1     140.135  77.778 222.633 -0.35 -0.01    +0.049 A  
DOCKED: ATOM     23  C   UNL     1     139.041  79.748 223.530 -0.35 -0.01    +0.084 A  
DOCKED: ATOM     24  C   UNL     1     141.376  78.404 222.775 -0.50 -0.01    +0.024 A  
DOCKED: ATOM     25  C   UNL     1     140.286  80.371 223.669 -0.41 -0.01    +0.045 A  
DOCKED: ATOM     26  C   UNL     1     141.453  79.700 223.293 -0.53 -0.01    +0.042 A  
DOCKED: ATOM     27  Cl  UNL     1     137.591  80.616 224.012 -0.41 +0.01    -0.080 Cl 
DOCKED: ATOM     28  Cl  UNL     1     143.013  80.483 223.469 -0.79 +0.02    -0.084 Cl 
DOCKED: ENDBRANCH  20  21
DOCKED: ENDBRANCH  19  20
DOCKED: ENDBRANCH  18  19
DOCKED: ENDBRANCH  17  18
DOCKED: ENDBRANCH   1  17
DOCKED: TORSDOF 11
DOCKED: TER
DOCKED: ENDMDL
________________________________________________________________________________


    CLUSTERING HISTOGRAM
    ____________________


________________________________________________________________________________
     |           |     |           |     |
Clus | Lowest    | Run | Mean      | Num | Histogram
-ter | Binding   |     | Binding   | in  |
Rank | Energy    |     | Energy    | Clus|    5    10   15   20   25   30   35
_____|___________|_____|___________|_____|____:____|____:____|____:____|____:___
   1 |     -6.63 |   9 |     -6.32 |   5 |#####
   2 |     -6.63 |  11 |     -6.13 |   7 |#######
   3 |     -6.56 |  20 |     -6.38 |   4 |####
   4 |     -6.15 |  17 |     -6.15 |   1 |#
   5 |     -5.95 |   3 |     -5.76 |   3 |###
_____|___________|_____|___________|_____|______________________________________


    RMSD TABLE
    __________


_______________________________________________________________________
     |      |      |           |         |                 |
Rank | Sub- | Run  | Binding   | Cluster | Reference       | Grep
     | Rank |      | Energy    | RMSD    | RMSD            | Pattern
_____|______|______|___________|_________|_________________|___________
   1      1      9       -6.63      0.00    271.75           RANKING
   1      2      4       -6.62      1.63    271.69           RANKING
   1      3      6       -6.33      1.40    271.39           RANKING
   1      4      8       -6.30      1.65    271.70           RANKING
   1      5     14       -5.70      1.60    271.25           RANKING
   2      1     11       -6.63      0.00    271.54           RANKING
   2      2      7       -6.45      0.50    271.55           RANKING
   2      3     10       -6.38      0.40    271.55           RANKING
   2      4      2       -6.14      0.77    271.38           RANKING
   2      5      5       -5.90      0.64    271.34           RANKING
   2      6     12       -5.71      1.34    271.04           RANKING
   2      7     18       -5.71      1.22    271.24           RANKING
   3      1     20       -6.56      0.00    271.48           RANKING
   3      2      1       -6.55      1.59    271.75           RANKING
   3      3     16       -6.24      1.61    271.70           RANKING
   3      4     19       -6.16      1.14    271.40           RANKING
   4      1     17       -6.15      0.00    271.35           RANKING
   5      1      3       -5.95      0.00    270.95           RANKING
   5      2     15       -5.86      0.87    270.87           RANKING
   5      3     13       -5.48      1.36    270.75           RANKING

Run time 0.772 sec
Idle time 0.000 sec
