AutoDock-GPU version: v1.6

**********************************************************
**    AutoDock-GPU AUTODOCKTOOLS-COMPATIBLE DLG FILE    **
**********************************************************


    DOCKING PARAMETERS
    ________________________


Ligand file:                               /home/a/REINVENT4/ReinventStudies/scoringData/graph-dock-34dfml/graph-DockGPU/node-autodockgpu/inputs/JFIDHXWBANSMLJ-PDNZSPLUNA-M.pdbqt
Grid fld file:                             /home/a/REINVENT4/ReinventStudies/mols/Rad51/maps/rad51_receptor.maps.fld

Random seed:                               42
Number of runs:                            20
Number of energy evaluations:              2542121
Number of generations:                     42000
Size of population:                        150
Rate of crossover:                         80.000000%
Tournament selection probability limit:    60.000000%
Rate of mutation:                          2.000000%
Maximal allowed delta movement:            +/- 6.000000A
Maximal allowed delta angle:               +/- 90.000000

Rate of local search:                      100.000000%
Maximal number of local search iterations: 300
Rho lower bound:                           0.010000
Spread of local search delta movement:     2.000000A
Spread of local search delta angle:        74.999999
Limit of consecutive successes/failures:   4

Handle symmetry during clustering:         YES
RMSD tolerance:                            2.000000A

Program call in command line was:          /home/a/REINVENT4/ReinventStudies/adgpu-v1.6_linux_x64_cuda12_128wi --filelist batch.txt --heuristics 1 --nrun 20 --psize 150 --lsit 300 --seed 42 --heurmax 12000000 


    GRID PARAMETERS
    ________________________


Receptor name:                             rad51_receptor
Number of grid points (x, y, z):           53, 53, 53
Grid center (x, y, z):                     139.950000, 75.640000, 221.970000A
Grid size (x, y, z):                       19.500000, 19.500000, 19.500000A
Grid spacing:                              0.375000A


    LIGAND PARAMETERS
    ________________________


Ligand name:                               /home/a/REINVENT4/ReinventStudies/scoringData/graph-dock-34dfml/graph-DockGPU/node-autodockgpu/inputs/JFIDHXWBANSMLJ-PDNZSPLUNA-M
Number of atoms:                           39
Number of rotatable bonds:                 10
Number of atom types:                      8


    DUMMY DATA (only for ADT-compatibility)
    ________________________


DPF> outlev 1
DPF> ga_run 20
DPF> fld /home/a/REINVENT4/ReinventStudies/mols/Rad51/maps/rad51_receptor.maps.fld
DPF> move /home/a/REINVENT4/ReinventStudies/scoringData/graph-dock-34dfml/graph-DockGPU/node-autodockgpu/inputs/JFIDHXWBANSMLJ-PDNZSPLUNA-M.pdbqt


    COUNTER STATES
    ________________________


Number of energy evaluations performed:    1152648
Number of generations used:                75


    INPUT LIGAND PDBQT FILE:
    ________________________


INPUT-LIGAND-PDBQT: REMARK SMILES COc1ccc([C@H](C)NC(=O)[C@@H]2C[C@@H](O)CN2C(=O)C[N-]C(=O)c2ccc3cc(F)ccc3n2)c(Cl)c1
INPUT-LIGAND-PDBQT: REMARK SMILES IDX 12 1 13 2 14 3 16 4 17 5 10 6 9 7 11 9 7 10 8 11 6 12 3 13
INPUT-LIGAND-PDBQT: REMARK SMILES IDX 4 14 37 15 5 16 35 17 36 18 2 19 1 20 18 21 19 22 20 23
INPUT-LIGAND-PDBQT: REMARK SMILES IDX 21 24 22 25 23 26 24 27 25 28 34 29 26 30 33 31 27 32 32 33
INPUT-LIGAND-PDBQT: REMARK SMILES IDX 28 34 31 35 29 36 30 37 15 38
INPUT-LIGAND-PDBQT: REMARK H PARENT 9 8 15 39
INPUT-LIGAND-PDBQT: ROOT
INPUT-LIGAND-PDBQT: ATOM      1  C   UNL     1      -2.972   2.642  -0.246  1.00  0.00     0.177 C 
INPUT-LIGAND-PDBQT: ATOM      2  C   UNL     1      -4.058   3.695  -0.017  1.00  0.00     0.069 C 
INPUT-LIGAND-PDBQT: ATOM      3  C   UNL     1      -4.238   4.402  -1.364  1.00  0.00     0.136 C 
INPUT-LIGAND-PDBQT: ATOM      4  C   UNL     1      -3.722   3.417  -2.415  1.00  0.00     0.152 C 
INPUT-LIGAND-PDBQT: ATOM      5  N   UNL     1      -2.956   2.428  -1.680  1.00  0.00    -0.329 N 
INPUT-LIGAND-PDBQT: ENDROOT
INPUT-LIGAND-PDBQT: BRANCH   1   6
INPUT-LIGAND-PDBQT: ATOM      6  C   UNL     1      -3.245   1.356   0.495  1.00  0.00     0.243 C 
INPUT-LIGAND-PDBQT: ATOM      7  N   UNL     1      -2.249   0.813   1.381  1.00  0.00    -0.348 N 
INPUT-LIGAND-PDBQT: ATOM      8  H   UNL     1      -1.384   1.375   1.547  1.00  0.00     0.164 HD
INPUT-LIGAND-PDBQT: ATOM      9  O   UNL     1      -4.318   0.728   0.282  1.00  0.00    -0.273 OA
INPUT-LIGAND-PDBQT: BRANCH   7  10
INPUT-LIGAND-PDBQT: ATOM     10  C   UNL     1      -2.374  -0.522   1.979  1.00  0.00     0.111 C 
INPUT-LIGAND-PDBQT: ATOM     11  C   UNL     1      -2.068  -1.599   0.935  1.00  0.00     0.036 C 
INPUT-LIGAND-PDBQT: BRANCH  10  12
INPUT-LIGAND-PDBQT: ATOM     12  C   UNL     1      -1.448  -0.664   3.178  1.00  0.00    -0.007 A 
INPUT-LIGAND-PDBQT: ATOM     13  C   UNL     1       0.350  -0.929   5.346  1.00  0.00     0.120 A 
INPUT-LIGAND-PDBQT: ATOM     14  C   UNL     1       0.829  -0.660   4.062  1.00  0.00     0.047 A 
INPUT-LIGAND-PDBQT: ATOM     15  C   UNL     1      -1.037  -1.064   5.549  1.00  0.00     0.067 A 
INPUT-LIGAND-PDBQT: ATOM     16  C   UNL     1      -0.055  -0.532   2.993  1.00  0.00     0.011 A 
INPUT-LIGAND-PDBQT: ATOM     17  C   UNL     1      -1.932  -0.940   4.480  1.00  0.00     0.049 A 
INPUT-LIGAND-PDBQT: ATOM     18  Cl  UNL     1      -3.647  -1.139   4.831  1.00  0.00    -0.084 Cl
INPUT-LIGAND-PDBQT: BRANCH  13  19
INPUT-LIGAND-PDBQT: ATOM     19  O   UNL     1       1.281  -1.055   6.387  1.00  0.00    -0.497 OA
INPUT-LIGAND-PDBQT: ATOM     20  C   UNL     1       0.947  -1.372   7.735  1.00  0.00     0.278 C 
INPUT-LIGAND-PDBQT: ENDBRANCH  13  19
INPUT-LIGAND-PDBQT: ENDBRANCH  10  12
INPUT-LIGAND-PDBQT: ENDBRANCH   7  10
INPUT-LIGAND-PDBQT: ENDBRANCH   1   6
INPUT-LIGAND-PDBQT: BRANCH   5  21
INPUT-LIGAND-PDBQT: ATOM     21  C   UNL     1      -2.122   1.455  -2.322  1.00  0.00     0.205 C 
INPUT-LIGAND-PDBQT: ATOM     22  O   UNL     1      -2.443   0.239  -2.285  1.00  0.00    -0.277 OA
INPUT-LIGAND-PDBQT: BRANCH  21  23
INPUT-LIGAND-PDBQT: ATOM     23  C   UNL     1      -0.883   1.873  -3.051  1.00  0.00    -0.015 C 
INPUT-LIGAND-PDBQT: BRANCH  23  24
INPUT-LIGAND-PDBQT: ATOM     24  N   UNL     1       0.249   1.068  -2.605  1.00  0.00    -0.640 NA
INPUT-LIGAND-PDBQT: BRANCH  24  25
INPUT-LIGAND-PDBQT: ATOM     25  C   UNL     1       0.818   1.175  -1.296  1.00  0.00     0.101 C 
INPUT-LIGAND-PDBQT: ATOM     26  O   UNL     1       0.477   2.123  -0.537  1.00  0.00    -0.313 OA
INPUT-LIGAND-PDBQT: BRANCH  25  27
INPUT-LIGAND-PDBQT: ATOM     27  C   UNL     1       1.786   0.166  -0.834  1.00  0.00     0.088 A 
INPUT-LIGAND-PDBQT: ATOM     28  C   UNL     1       2.477   0.321   0.378  1.00  0.00     0.031 A 
INPUT-LIGAND-PDBQT: ATOM     29  N   UNL     1       1.983  -0.955  -1.579  1.00  0.00    -0.246 NA
INPUT-LIGAND-PDBQT: ATOM     30  C   UNL     1       3.348  -0.682   0.813  1.00  0.00     0.013 A 
INPUT-LIGAND-PDBQT: ATOM     31  C   UNL     1       2.823  -1.950  -1.182  1.00  0.00     0.071 A 
INPUT-LIGAND-PDBQT: ATOM     32  C   UNL     1       3.530  -1.832   0.036  1.00  0.00     0.003 A 
INPUT-LIGAND-PDBQT: ATOM     33  C   UNL     1       2.978  -3.097  -1.969  1.00  0.00     0.032 A 
INPUT-LIGAND-PDBQT: ATOM     34  C   UNL     1       4.390  -2.861   0.448  1.00  0.00     0.049 A 
INPUT-LIGAND-PDBQT: ATOM     35  C   UNL     1       3.832  -4.126  -1.547  1.00  0.00     0.041 A 
INPUT-LIGAND-PDBQT: ATOM     36  C   UNL     1       4.540  -4.004  -0.345  1.00  0.00     0.123 A 
INPUT-LIGAND-PDBQT: ATOM     37  F   UNL     1       5.382  -4.996   0.048  1.00  0.00    -0.207 F 
INPUT-LIGAND-PDBQT: ENDBRANCH  25  27
INPUT-LIGAND-PDBQT: ENDBRANCH  24  25
INPUT-LIGAND-PDBQT: ENDBRANCH  23  24
INPUT-LIGAND-PDBQT: ENDBRANCH  21  23
INPUT-LIGAND-PDBQT: ENDBRANCH   5  21
INPUT-LIGAND-PDBQT: BRANCH   3  38
INPUT-LIGAND-PDBQT: ATOM     38  O   UNL     1      -3.475   5.582  -1.379  1.00  0.00    -0.391 OA
INPUT-LIGAND-PDBQT: ATOM     39  H   UNL     1      -3.802   6.118  -2.149  1.00  0.00     0.211 HD
INPUT-LIGAND-PDBQT: ENDBRANCH   3  38
INPUT-LIGAND-PDBQT: TORSDOF 10


    FINAL DOCKED STATE:
    ________________________


Run:   1 / 20
Time taken for this run:   0.069s

DOCKED: MODEL        1
DOCKED: USER    Run = 1
DOCKED: USER
DOCKED: USER    Estimated Free Energy of Binding    =  -6.11 kcal/mol  [=(1)+(2)+(3)-(4)]
DOCKED: USER
DOCKED: USER    (1) Final Intermolecular Energy     =  -9.09 kcal/mol
DOCKED: USER        vdW + Hbond + desolv Energy     =  -9.08 kcal/mol
DOCKED: USER        Electrostatic Energy            =  -0.01 kcal/mol
DOCKED: USER        Moving Ligand-Fixed Receptor    =  -9.09 kcal/mol
DOCKED: USER        Moving Ligand-Moving Receptor   =  +0.00 kcal/mol
DOCKED: USER    (2) Final Total Internal Energy     =  -4.58 kcal/mol
DOCKED: USER    (3) Torsional Free Energy           =  +2.98 kcal/mol
DOCKED: USER    (4) Unbound System's Energy         =  -4.58 kcal/mol
DOCKED: USER
DOCKED: USER
DOCKED: REMARK SMILES COc1ccc([C@H](C)NC(=O)[C@@H]2C[C@@H](O)CN2C(=O)C[N-]C(=O)c2ccc3cc(F)ccc3n2)c(Cl)c1
DOCKED: REMARK SMILES IDX 12 1 13 2 14 3 16 4 17 5 10 6 9 7 11 9 7 10 8 11 6 12 3 13
DOCKED: REMARK SMILES IDX 4 14 37 15 5 16 35 17 36 18 2 19 1 20 18 21 19 22 20 23
DOCKED: REMARK SMILES IDX 21 24 22 25 23 26 24 27 25 28 34 29 26 30 33 31 27 32 32 33
DOCKED: REMARK SMILES IDX 28 34 31 35 29 36 30 37 15 38
DOCKED: REMARK H PARENT 9 8 15 39
DOCKED: USER                              x       y       z     vdW  Elec       q    Type
DOCKED: USER                           _______ _______ _______ _____ _____    ______ ____
DOCKED: ROOT
DOCKED: ATOM      1  C   UNL     1     143.227  75.072 220.191 -0.23 -0.09    +0.177 C  
DOCKED: ATOM      2  C   UNL     1     144.382  74.324 219.521 -0.27 -0.02    +0.069 C  
DOCKED: ATOM      3  C   UNL     1     144.303  72.888 220.046 -0.31 -0.02    +0.136 C  
DOCKED: ATOM      4  C   UNL     1     142.856  72.699 220.506 -0.21 -0.02    +0.152 C  
DOCKED: ATOM      5  N   UNL     1     142.299  74.036 220.601 -0.13 +0.08    -0.329 N  
DOCKED: ENDROOT
DOCKED: BRANCH   1   6
DOCKED: ATOM      6  C   UNL     1     142.564  76.064 219.266 -0.21 -0.12    +0.243 C  
DOCKED: ATOM      7  N   UNL     1     141.230  76.526 219.547 -0.05 +0.14    -0.348 N  
DOCKED: ATOM      8  H   UNL     1     140.783  76.216 220.439 +0.06 -0.06    +0.164 HD 
DOCKED: ATOM      9  O   UNL     1     143.157  76.431 218.215 -0.21 +0.16    -0.273 OA 
DOCKED: BRANCH   7  10
DOCKED: ATOM     10  C   UNL     1     140.463  77.337 218.594 -0.06 -0.04    +0.111 C  
DOCKED: ATOM     11  C   UNL     1     139.036  77.546 219.107 -0.04 -0.01    +0.036 C  
DOCKED: BRANCH  10  12
DOCKED: ATOM     12  C   UNL     1     141.144  78.676 218.354 -0.16 +0.00    -0.007 A  
DOCKED: ATOM     13  C   UNL     1     142.381  81.195 217.997 -0.27 -0.09    +0.120 A  
DOCKED: ATOM     14  C   UNL     1     141.877  80.828 219.247 -0.28 -0.02    +0.047 A  
DOCKED: ATOM     15  C   UNL     1     142.268  80.296 216.918 -0.16 -0.07    +0.067 A  
DOCKED: ATOM     16  C   UNL     1     141.266  79.589 219.423 -0.23 -0.01    +0.011 A  
DOCKED: ATOM     17  C   UNL     1     141.652  79.051 217.086 -0.17 -0.04    +0.049 A  
DOCKED: ATOM     18  Cl  UNL     1     141.547  78.002 215.675 -0.13 +0.05    -0.084 Cl 
DOCKED: BRANCH  13  19
DOCKED: ATOM     19  O   UNL     1     142.982  82.456 217.870 -0.11 +0.33    -0.497 OA 
DOCKED: ATOM     20  C   UNL     1     144.018  82.766 216.942 -0.27 -0.27    +0.278 C  
DOCKED: ENDBRANCH  13  19
DOCKED: ENDBRANCH  10  12
DOCKED: ENDBRANCH   7  10
DOCKED: ENDBRANCH   1   6
DOCKED: BRANCH   5  21
DOCKED: ATOM     21  C   UNL     1     141.032  74.310 221.211 -0.22 -0.04    +0.205 C  
DOCKED: ATOM     22  O   UNL     1     140.992  74.857 222.343 -0.43 -0.01    -0.277 OA 
DOCKED: BRANCH  21  23
DOCKED: ATOM     23  C   UNL     1     139.755  73.968 220.507 -0.14 +0.00    -0.015 C  
DOCKED: BRANCH  23  24
DOCKED: ATOM     24  N   UNL     1     138.852  75.113 220.535 +0.03 +0.14    -0.640 NA 
DOCKED: BRANCH  24  25
DOCKED: ATOM     25  C   UNL     1     138.338  75.675 221.747 -0.21 -0.02    +0.101 C  
DOCKED: ATOM     26  O   UNL     1     137.484  75.038 222.423 -0.14 +0.10    -0.313 OA 
DOCKED: BRANCH  25  27
DOCKED: ATOM     27  C   UNL     1     138.823  76.986 222.210 -0.26 -0.02    +0.088 A  
DOCKED: ATOM     28  C   UNL     1     137.940  77.949 222.723 -0.25 -0.01    +0.031 A  
DOCKED: ATOM     29  N   UNL     1     140.157  77.251 222.176 -0.22 +0.07    -0.246 NA 
DOCKED: ATOM     30  C   UNL     1     138.440  79.163 223.204 -0.29 -0.00    +0.013 A  
DOCKED: ATOM     31  C   UNL     1     140.675  78.421 222.638 -0.40 -0.02    +0.071 A  
DOCKED: ATOM     32  C   UNL     1     139.817  79.412 223.168 -0.40 -0.00    +0.003 A  
DOCKED: ATOM     33  C   UNL     1     142.057  78.642 222.605 -0.37 -0.02    +0.032 A  
DOCKED: ATOM     34  C   UNL     1     140.352  80.615 223.650 -0.40 -0.01    +0.049 A  
DOCKED: ATOM     35  C   UNL     1     142.586  79.843 223.097 -0.62 -0.01    +0.041 A  
DOCKED: ATOM     36  C   UNL     1     141.735  80.829 223.612 -0.49 -0.02    +0.123 A  
DOCKED: ATOM     37  F   UNL     1     142.253  81.999 224.069 -0.17 +0.01    -0.207 F  
DOCKED: ENDBRANCH  25  27
DOCKED: ENDBRANCH  24  25
DOCKED: ENDBRANCH  23  24
DOCKED: ENDBRANCH  21  23
DOCKED: ENDBRANCH   5  21
DOCKED: BRANCH   3  38
DOCKED: ATOM     38  O   UNL     1     145.187  72.735 221.128 -0.27 +0.08    -0.391 OA 
DOCKED: ATOM     39  H   UNL     1     145.104  71.791 221.427 -0.39 -0.14    +0.211 HD 
DOCKED: ENDBRANCH   3  38
DOCKED: TORSDOF 10
DOCKED: TER
DOCKED: ENDMDL
________________________________________________________________________________


    FINAL DOCKED STATE:
    ________________________


Run:   2 / 20
Time taken for this run:   0.069s

DOCKED: MODEL        2
DOCKED: USER    Run = 2
DOCKED: USER
DOCKED: USER    Estimated Free Energy of Binding    =  -8.98 kcal/mol  [=(1)+(2)+(3)-(4)]
DOCKED: USER
DOCKED: USER    (1) Final Intermolecular Energy     = -11.96 kcal/mol
DOCKED: USER        vdW + Hbond + desolv Energy     = -11.81 kcal/mol
DOCKED: USER        Electrostatic Energy            =  -0.15 kcal/mol
DOCKED: USER        Moving Ligand-Fixed Receptor    = -11.96 kcal/mol
DOCKED: USER        Moving Ligand-Moving Receptor   =  +0.00 kcal/mol
DOCKED: USER    (2) Final Total Internal Energy     =  -3.27 kcal/mol
DOCKED: USER    (3) Torsional Free Energy           =  +2.98 kcal/mol
DOCKED: USER    (4) Unbound System's Energy         =  -3.27 kcal/mol
DOCKED: USER
DOCKED: USER
DOCKED: REMARK SMILES COc1ccc([C@H](C)NC(=O)[C@@H]2C[C@@H](O)CN2C(=O)C[N-]C(=O)c2ccc3cc(F)ccc3n2)c(Cl)c1
DOCKED: REMARK SMILES IDX 12 1 13 2 14 3 16 4 17 5 10 6 9 7 11 9 7 10 8 11 6 12 3 13
DOCKED: REMARK SMILES IDX 4 14 37 15 5 16 35 17 36 18 2 19 1 20 18 21 19 22 20 23
DOCKED: REMARK SMILES IDX 21 24 22 25 23 26 24 27 25 28 34 29 26 30 33 31 27 32 32 33
DOCKED: REMARK SMILES IDX 28 34 31 35 29 36 30 37 15 38
DOCKED: REMARK H PARENT 9 8 15 39
DOCKED: USER                              x       y       z     vdW  Elec       q    Type
DOCKED: USER                           _______ _______ _______ _____ _____    ______ ____
DOCKED: ROOT
DOCKED: ATOM      1  C   UNL     1     139.908  77.010 222.392 -0.27 -0.04    +0.177 C  
DOCKED: ATOM      2  C   UNL     1     140.137  78.509 222.590 -0.36 -0.02    +0.069 C  
DOCKED: ATOM      3  C   UNL     1     141.431  78.833 221.837 -0.35 -0.06    +0.136 C  
DOCKED: ATOM      4  C   UNL     1     141.588  77.720 220.798 -0.24 -0.09    +0.152 C  
DOCKED: ATOM      5  N   UNL     1     140.682  76.667 221.215 -0.13 +0.12    -0.329 N  
DOCKED: ENDROOT
DOCKED: BRANCH   1   6
DOCKED: ATOM      6  C   UNL     1     138.451  76.665 222.207 -0.20 -0.05    +0.243 C  
DOCKED: ATOM      7  N   UNL     1     138.000  75.315 222.425 -0.09 +0.11    -0.348 N  
DOCKED: ATOM      8  H   UNL     1     138.692  74.621 222.787 -0.53 -0.07    +0.164 HD 
DOCKED: ATOM      9  O   UNL     1     137.648  77.546 221.796 -0.09 +0.05    -0.273 OA 
DOCKED: BRANCH   7  10
DOCKED: ATOM     10  C   UNL     1     136.643  74.875 222.080 -0.14 -0.03    +0.111 C  
DOCKED: ATOM     11  C   UNL     1     136.701  73.629 221.192 -0.08 -0.01    +0.036 C  
DOCKED: BRANCH  10  12
DOCKED: ATOM     12  C   UNL     1     135.830  74.597 223.336 -0.23 +0.00    -0.007 A  
DOCKED: ATOM     13  C   UNL     1     134.330  73.983 225.655 -0.28 +0.00    +0.120 A  
DOCKED: ATOM     14  C   UNL     1     135.016  72.976 224.972 -0.21 -0.00    +0.047 A  
DOCKED: ATOM     15  C   UNL     1     134.397  75.306 225.178 -0.31 -0.01    +0.067 A  
DOCKED: ATOM     16  C   UNL     1     135.753  73.276 223.828 -0.20 -0.00    +0.011 A  
DOCKED: ATOM     17  C   UNL     1     135.132  75.616 224.028 -0.26 -0.01    +0.049 A  
DOCKED: ATOM     18  Cl  UNL     1     135.144  77.298 223.502 -0.20 +0.01    -0.084 Cl 
DOCKED: BRANCH  13  19
DOCKED: ATOM     19  O   UNL     1     133.598  73.628 226.797 -0.71 -0.07    -0.497 OA 
DOCKED: ATOM     20  C   UNL     1     133.146  72.309 227.088 -0.26 -0.03    +0.278 C  
DOCKED: ENDBRANCH  13  19
DOCKED: ENDBRANCH  10  12
DOCKED: ENDBRANCH   7  10
DOCKED: ENDBRANCH   1   6
DOCKED: BRANCH   5  21
DOCKED: ATOM     21  C   UNL     1     140.691  75.357 220.631 -0.17 -0.06    +0.205 C  
DOCKED: ATOM     22  O   UNL     1     140.198  75.183 219.487 -0.03 +0.07    -0.277 OA 
DOCKED: BRANCH  21  23
DOCKED: ATOM     23  C   UNL     1     141.295  74.199 221.363 -0.25 +0.00    -0.015 C  
DOCKED: BRANCH  23  24
DOCKED: ATOM     24  N   UNL     1     140.342  73.676 222.335 -0.57 -0.01    -0.640 NA 
DOCKED: BRANCH  24  25
DOCKED: ATOM     25  C   UNL     1     139.753  72.375 222.232 -0.25 -0.02    +0.101 C  
DOCKED: ATOM     26  O   UNL     1     139.306  71.973 221.124 -0.06 +0.06    -0.313 OA 
DOCKED: BRANCH  25  27
DOCKED: ATOM     27  C   UNL     1     139.690  71.505 223.418 -0.33 -0.02    +0.088 A  
DOCKED: ATOM     28  C   UNL     1     139.017  70.273 223.382 -0.26 -0.01    +0.031 A  
DOCKED: ATOM     29  N   UNL     1     140.330  71.886 224.557 -0.27 +0.04    -0.246 NA 
DOCKED: ATOM     30  C   UNL     1     139.022  69.447 224.510 -0.34 -0.00    +0.013 A  
DOCKED: ATOM     31  C   UNL     1     140.355  71.103 225.670 -0.52 -0.01    +0.071 A  
DOCKED: ATOM     32  C   UNL     1     139.694  69.853 225.668 -0.46 -0.00    +0.003 A  
DOCKED: ATOM     33  C   UNL     1     141.045  71.524 226.812 -0.71 -0.01    +0.032 A  
DOCKED: ATOM     34  C   UNL     1     139.727  69.044 226.814 -0.52 -0.01    +0.049 A  
DOCKED: ATOM     35  C   UNL     1     141.081  70.706 227.950 -0.63 -0.01    +0.041 A  
DOCKED: ATOM     36  C   UNL     1     140.418  69.473 227.952 -0.52 -0.02    +0.123 A  
DOCKED: ATOM     37  F   UNL     1     140.440  68.694 229.066 -0.14 +0.04    -0.207 F  
DOCKED: ENDBRANCH  25  27
DOCKED: ENDBRANCH  24  25
DOCKED: ENDBRANCH  23  24
DOCKED: ENDBRANCH  21  23
DOCKED: ENDBRANCH   5  21
DOCKED: BRANCH   3  38
DOCKED: ATOM     38  O   UNL     1     142.511  78.823 222.735 -0.21 +0.23    -0.391 OA 
DOCKED: ATOM     39  H   UNL     1     143.230  78.289 222.304 -0.41 -0.24    +0.211 HD 
DOCKED: ENDBRANCH   3  38
DOCKED: TORSDOF 10
DOCKED: TER
DOCKED: ENDMDL
________________________________________________________________________________


    FINAL DOCKED STATE:
    ________________________


Run:   3 / 20
Time taken for this run:   0.069s

DOCKED: MODEL        3
DOCKED: USER    Run = 3
DOCKED: USER
DOCKED: USER    Estimated Free Energy of Binding    =  -8.37 kcal/mol  [=(1)+(2)+(3)-(4)]
DOCKED: USER
DOCKED: USER    (1) Final Intermolecular Energy     = -11.35 kcal/mol
DOCKED: USER        vdW + Hbond + desolv Energy     = -11.25 kcal/mol
DOCKED: USER        Electrostatic Energy            =  -0.10 kcal/mol
DOCKED: USER        Moving Ligand-Fixed Receptor    = -11.35 kcal/mol
DOCKED: USER        Moving Ligand-Moving Receptor   =  +0.00 kcal/mol
DOCKED: USER    (2) Final Total Internal Energy     =  -2.33 kcal/mol
DOCKED: USER    (3) Torsional Free Energy           =  +2.98 kcal/mol
DOCKED: USER    (4) Unbound System's Energy         =  -2.33 kcal/mol
DOCKED: USER
DOCKED: USER
DOCKED: REMARK SMILES COc1ccc([C@H](C)NC(=O)[C@@H]2C[C@@H](O)CN2C(=O)C[N-]C(=O)c2ccc3cc(F)ccc3n2)c(Cl)c1
DOCKED: REMARK SMILES IDX 12 1 13 2 14 3 16 4 17 5 10 6 9 7 11 9 7 10 8 11 6 12 3 13
DOCKED: REMARK SMILES IDX 4 14 37 15 5 16 35 17 36 18 2 19 1 20 18 21 19 22 20 23
DOCKED: REMARK SMILES IDX 21 24 22 25 23 26 24 27 25 28 34 29 26 30 33 31 27 32 32 33
DOCKED: REMARK SMILES IDX 28 34 31 35 29 36 30 37 15 38
DOCKED: REMARK H PARENT 9 8 15 39
DOCKED: USER                              x       y       z     vdW  Elec       q    Type
DOCKED: USER                           _______ _______ _______ _____ _____    ______ ____
DOCKED: ROOT
DOCKED: ATOM      1  C   UNL     1     143.146  74.172 220.436 -0.25 -0.05    +0.177 C  
DOCKED: ATOM      2  C   UNL     1     144.083  74.872 219.450 -0.25 -0.03    +0.069 C  
DOCKED: ATOM      3  C   UNL     1     144.610  73.769 218.527 -0.14 -0.02    +0.136 C  
DOCKED: ATOM      4  C   UNL     1     143.582  72.639 218.612 -0.09 -0.01    +0.152 C  
DOCKED: ATOM      5  N   UNL     1     142.778  72.930 219.783 -0.06 +0.06    -0.329 N  
DOCKED: ENDROOT
DOCKED: BRANCH   1   6
DOCKED: ATOM      6  C   UNL     1     141.927  74.998 220.766 -0.19 -0.08    +0.243 C  
DOCKED: ATOM      7  N   UNL     1     141.092  75.498 219.706 -0.03 +0.11    -0.348 N  
DOCKED: ATOM      8  H   UNL     1     141.314  75.205 218.728 +0.04 -0.05    +0.164 HD 
DOCKED: ATOM      9  O   UNL     1     141.685  75.303 221.965 -0.22 +0.08    -0.273 OA 
DOCKED: BRANCH   7  10
DOCKED: ATOM     10  C   UNL     1     140.009  76.460 219.947 -0.09 -0.03    +0.111 C  
DOCKED: ATOM     11  C   UNL     1     138.828  75.766 220.631 -0.12 -0.01    +0.036 C  
DOCKED: BRANCH  10  12
DOCKED: ATOM     12  C   UNL     1     140.502  77.626 220.791 -0.22 +0.00    -0.007 A  
DOCKED: ATOM     13  C   UNL     1     141.349  79.775 222.425 -0.39 -0.04    +0.120 A  
DOCKED: ATOM     14  C   UNL     1     140.404  78.861 222.897 -0.40 -0.01    +0.047 A  
DOCKED: ATOM     15  C   UNL     1     141.877  79.613 221.129 -0.33 -0.03    +0.067 A  
DOCKED: ATOM     16  C   UNL     1     139.985  77.804 222.092 -0.33 -0.00    +0.011 A  
DOCKED: ATOM     17  C   UNL     1     141.458  78.556 220.313 -0.27 -0.03    +0.049 A  
DOCKED: ATOM     18  Cl  UNL     1     142.165  78.445 218.703 -0.36 +0.06    -0.084 Cl 
DOCKED: BRANCH  13  19
DOCKED: ATOM     19  O   UNL     1     141.734  80.825 223.271 -0.19 +0.10    -0.497 OA 
DOCKED: ATOM     20  C   UNL     1     142.938  80.849 224.032 -0.36 -0.05    +0.278 C  
DOCKED: ENDBRANCH  13  19
DOCKED: ENDBRANCH  10  12
DOCKED: ENDBRANCH   7  10
DOCKED: ENDBRANCH   1   6
DOCKED: BRANCH   5  21
DOCKED: ATOM     21  C   UNL     1     141.844  71.995 220.339 -0.12 -0.03    +0.205 C  
DOCKED: ATOM     22  O   UNL     1     142.210  71.228 221.266 +0.03 +0.02    -0.277 OA 
DOCKED: BRANCH  21  23
DOCKED: ATOM     23  C   UNL     1     140.435  71.934 219.838 -0.09 +0.00    -0.015 C  
DOCKED: BRANCH  23  24
DOCKED: ATOM     24  N   UNL     1     139.517  71.785 220.962 +0.03 +0.11    -0.640 NA 
DOCKED: BRANCH  24  25
DOCKED: ATOM     25  C   UNL     1     139.785  72.310 222.267 -0.26 -0.02    +0.101 C  
DOCKED: ATOM     26  O   UNL     1     139.968  73.548 222.422 -0.78 +0.02    -0.313 OA 
DOCKED: BRANCH  25  27
DOCKED: ATOM     27  C   UNL     1     139.826  71.403 223.426 -0.33 -0.02    +0.088 A  
DOCKED: ATOM     28  C   UNL     1     139.404  70.068 223.322 -0.25 -0.01    +0.031 A  
DOCKED: ATOM     29  N   UNL     1     140.321  71.859 224.609 -0.27 +0.04    -0.246 NA 
DOCKED: ATOM     30  C   UNL     1     139.508  69.219 224.428 -0.32 -0.00    +0.013 A  
DOCKED: ATOM     31  C   UNL     1     140.436  71.057 225.703 -0.53 -0.01    +0.071 A  
DOCKED: ATOM     32  C   UNL     1     140.028  69.706 225.633 -0.46 -0.00    +0.003 A  
DOCKED: ATOM     33  C   UNL     1     140.972  71.563 226.893 -0.72 -0.01    +0.032 A  
DOCKED: ATOM     34  C   UNL     1     140.154  68.879 226.759 -0.55 -0.01    +0.049 A  
DOCKED: ATOM     35  C   UNL     1     141.104  70.728 228.012 -0.61 -0.01    +0.041 A  
DOCKED: ATOM     36  C   UNL     1     140.690  69.392 227.945 -0.52 -0.02    +0.123 A  
DOCKED: ATOM     37  F   UNL     1     140.802  68.594 229.040 -0.15 +0.05    -0.207 F  
DOCKED: ENDBRANCH  25  27
DOCKED: ENDBRANCH  24  25
DOCKED: ENDBRANCH  23  24
DOCKED: ENDBRANCH  21  23
DOCKED: ENDBRANCH   5  21
DOCKED: BRANCH   3  38
DOCKED: ATOM     38  O   UNL     1     145.863  73.331 218.989 -0.63 -0.15    -0.391 OA 
DOCKED: ATOM     39  H   UNL     1     146.433  74.141 219.067 -0.48 -0.02    +0.211 HD 
DOCKED: ENDBRANCH   3  38
DOCKED: TORSDOF 10
DOCKED: TER
DOCKED: ENDMDL
________________________________________________________________________________


    FINAL DOCKED STATE:
    ________________________


Run:   4 / 20
Time taken for this run:   0.069s

DOCKED: MODEL        4
DOCKED: USER    Run = 4
DOCKED: USER
DOCKED: USER    Estimated Free Energy of Binding    =  -8.81 kcal/mol  [=(1)+(2)+(3)-(4)]
DOCKED: USER
DOCKED: USER    (1) Final Intermolecular Energy     = -11.79 kcal/mol
DOCKED: USER        vdW + Hbond + desolv Energy     = -11.76 kcal/mol
DOCKED: USER        Electrostatic Energy            =  -0.03 kcal/mol
DOCKED: USER        Moving Ligand-Fixed Receptor    = -11.79 kcal/mol
DOCKED: USER        Moving Ligand-Moving Receptor   =  +0.00 kcal/mol
DOCKED: USER    (2) Final Total Internal Energy     =  -3.62 kcal/mol
DOCKED: USER    (3) Torsional Free Energy           =  +2.98 kcal/mol
DOCKED: USER    (4) Unbound System's Energy         =  -3.62 kcal/mol
DOCKED: USER
DOCKED: USER
DOCKED: REMARK SMILES COc1ccc([C@H](C)NC(=O)[C@@H]2C[C@@H](O)CN2C(=O)C[N-]C(=O)c2ccc3cc(F)ccc3n2)c(Cl)c1
DOCKED: REMARK SMILES IDX 12 1 13 2 14 3 16 4 17 5 10 6 9 7 11 9 7 10 8 11 6 12 3 13
DOCKED: REMARK SMILES IDX 4 14 37 15 5 16 35 17 36 18 2 19 1 20 18 21 19 22 20 23
DOCKED: REMARK SMILES IDX 21 24 22 25 23 26 24 27 25 28 34 29 26 30 33 31 27 32 32 33
DOCKED: REMARK SMILES IDX 28 34 31 35 29 36 30 37 15 38
DOCKED: REMARK H PARENT 9 8 15 39
DOCKED: USER                              x       y       z     vdW  Elec       q    Type
DOCKED: USER                           _______ _______ _______ _____ _____    ______ ____
DOCKED: ROOT
DOCKED: ATOM      1  C   UNL     1     143.763  73.569 220.316 -0.28 -0.04    +0.177 C  
DOCKED: ATOM      2  C   UNL     1     145.204  73.785 219.851 -0.40 -0.01    +0.069 C  
DOCKED: ATOM      3  C   UNL     1     145.563  72.543 219.028 -0.23 +0.07    +0.136 C  
DOCKED: ATOM      4  C   UNL     1     144.227  71.958 218.567 -0.12 +0.01    +0.152 C  
DOCKED: ATOM      5  N   UNL     1     143.218  72.588 219.398 -0.04 +0.04    -0.329 N  
DOCKED: ENDROOT
DOCKED: BRANCH   1   6
DOCKED: ATOM      6  C   UNL     1     142.952  74.841 220.300 -0.21 -0.10    +0.243 C  
DOCKED: ATOM      7  N   UNL     1     141.539  74.794 220.571 -0.11 +0.10    -0.348 N  
DOCKED: ATOM      8  H   UNL     1     141.125  73.877 220.852 +0.05 -0.03    +0.164 HD 
DOCKED: ATOM      9  O   UNL     1     143.503  75.930 219.983 -0.32 +0.18    -0.273 OA 
DOCKED: BRANCH   7  10
DOCKED: ATOM     10  C   UNL     1     140.664  75.959 220.385 -0.18 -0.04    +0.111 C  
DOCKED: ATOM     11  C   UNL     1     139.216  75.591 220.717 -0.15 -0.01    +0.036 C  
DOCKED: BRANCH  10  12
DOCKED: ATOM     12  C   UNL     1     141.129  77.124 221.246 -0.32 +0.00    -0.007 A  
DOCKED: ATOM     13  C   UNL     1     141.950  79.248 222.925 -0.49 -0.05    +0.120 A  
DOCKED: ATOM     14  C   UNL     1     141.420  78.079 223.476 -0.42 -0.02    +0.047 A  
DOCKED: ATOM     15  C   UNL     1     142.074  79.356 221.527 -0.34 -0.04    +0.067 A  
DOCKED: ATOM     16  C   UNL     1     141.012  77.034 222.650 -0.39 -0.00    +0.011 A  
DOCKED: ATOM     17  C   UNL     1     141.664  78.311 220.690 -0.30 -0.03    +0.049 A  
DOCKED: ATOM     18  Cl  UNL     1     141.845  78.545 218.953 -0.34 +0.05    -0.084 Cl 
DOCKED: BRANCH  13  19
DOCKED: ATOM     19  O   UNL     1     142.340  80.273 223.799 -0.23 +0.11    -0.497 OA 
DOCKED: ATOM     20  C   UNL     1     141.918  81.629 223.691 -0.27 -0.03    +0.278 C  
DOCKED: ENDBRANCH  13  19
DOCKED: ENDBRANCH  10  12
DOCKED: ENDBRANCH   7  10
DOCKED: ENDBRANCH   1   6
DOCKED: BRANCH   5  21
DOCKED: ATOM     21  C   UNL     1     141.854  72.149 219.433 -0.06 -0.03    +0.205 C  
DOCKED: ATOM     22  O   UNL     1     141.086  72.425 218.475 -0.01 +0.05    -0.277 OA 
DOCKED: BRANCH  21  23
DOCKED: ATOM     23  C   UNL     1     141.338  71.350 220.589 -0.15 +0.00    -0.015 C  
DOCKED: BRANCH  23  24
DOCKED: ATOM     24  N   UNL     1     140.127  71.969 221.118 +0.01 +0.10    -0.640 NA 
DOCKED: BRANCH  24  25
DOCKED: ATOM     25  C   UNL     1     140.019  72.455 222.460 -0.27 -0.01    +0.101 C  
DOCKED: ATOM     26  O   UNL     1     139.952  73.696 222.676 -0.73 +0.00    -0.313 OA 
DOCKED: BRANCH  25  27
DOCKED: ATOM     27  C   UNL     1     139.967  71.503 223.582 -0.35 -0.02    +0.088 A  
DOCKED: ATOM     28  C   UNL     1     139.450  70.209 223.415 -0.27 -0.01    +0.031 A  
DOCKED: ATOM     29  N   UNL     1     140.467  71.874 224.791 -0.27 +0.04    -0.246 NA 
DOCKED: ATOM     30  C   UNL     1     139.466  69.312 224.487 -0.34 -0.00    +0.013 A  
DOCKED: ATOM     31  C   UNL     1     140.498  71.024 225.854 -0.54 -0.01    +0.071 A  
DOCKED: ATOM     32  C   UNL     1     139.993  69.711 225.721 -0.47 -0.00    +0.003 A  
DOCKED: ATOM     33  C   UNL     1     141.043  71.440 227.074 -0.72 -0.01    +0.032 A  
DOCKED: ATOM     34  C   UNL     1     140.032  68.832 226.815 -0.56 -0.01    +0.049 A  
DOCKED: ATOM     35  C   UNL     1     141.087  70.555 228.160 -0.57 -0.01    +0.041 A  
DOCKED: ATOM     36  C   UNL     1     140.577  69.257 228.031 -0.53 -0.02    +0.123 A  
DOCKED: ATOM     37  F   UNL     1     140.604  68.411 229.094 -0.17 +0.05    -0.207 F  
DOCKED: ENDBRANCH  25  27
DOCKED: ENDBRANCH  24  25
DOCKED: ENDBRANCH  23  24
DOCKED: ENDBRANCH  21  23
DOCKED: ENDBRANCH   5  21
DOCKED: BRANCH   3  38
DOCKED: ATOM     38  O   UNL     1     146.248  71.624 219.842 -0.34 -0.28    -0.391 OA 
DOCKED: ATOM     39  H   UNL     1     145.749  71.583 220.700 -0.38 -0.05    +0.211 HD 
DOCKED: ENDBRANCH   3  38
DOCKED: TORSDOF 10
DOCKED: TER
DOCKED: ENDMDL
________________________________________________________________________________


    FINAL DOCKED STATE:
    ________________________


Run:   5 / 20
Time taken for this run:   0.069s

DOCKED: MODEL        5
DOCKED: USER    Run = 5
DOCKED: USER
DOCKED: USER    Estimated Free Energy of Binding    =  -8.15 kcal/mol  [=(1)+(2)+(3)-(4)]
DOCKED: USER
DOCKED: USER    (1) Final Intermolecular Energy     = -11.14 kcal/mol
DOCKED: USER        vdW + Hbond + desolv Energy     = -11.10 kcal/mol
DOCKED: USER        Electrostatic Energy            =  -0.03 kcal/mol
DOCKED: USER        Moving Ligand-Fixed Receptor    = -11.14 kcal/mol
DOCKED: USER        Moving Ligand-Moving Receptor   =  +0.00 kcal/mol
DOCKED: USER    (2) Final Total Internal Energy     =  -3.61 kcal/mol
DOCKED: USER    (3) Torsional Free Energy           =  +2.98 kcal/mol
DOCKED: USER    (4) Unbound System's Energy         =  -3.61 kcal/mol
DOCKED: USER
DOCKED: USER
DOCKED: REMARK SMILES COc1ccc([C@H](C)NC(=O)[C@@H]2C[C@@H](O)CN2C(=O)C[N-]C(=O)c2ccc3cc(F)ccc3n2)c(Cl)c1
DOCKED: REMARK SMILES IDX 12 1 13 2 14 3 16 4 17 5 10 6 9 7 11 9 7 10 8 11 6 12 3 13
DOCKED: REMARK SMILES IDX 4 14 37 15 5 16 35 17 36 18 2 19 1 20 18 21 19 22 20 23
DOCKED: REMARK SMILES IDX 21 24 22 25 23 26 24 27 25 28 34 29 26 30 33 31 27 32 32 33
DOCKED: REMARK SMILES IDX 28 34 31 35 29 36 30 37 15 38
DOCKED: REMARK H PARENT 9 8 15 39
DOCKED: USER                              x       y       z     vdW  Elec       q    Type
DOCKED: USER                           _______ _______ _______ _____ _____    ______ ____
DOCKED: ROOT
DOCKED: ATOM      1  C   UNL     1     140.062  77.507 222.725 -0.21 -0.04    +0.177 C  
DOCKED: ATOM      2  C   UNL     1     140.474  78.976 222.839 -0.40 -0.02    +0.069 C  
DOCKED: ATOM      3  C   UNL     1     141.699  79.132 221.933 -0.38 -0.06    +0.136 C  
DOCKED: ATOM      4  C   UNL     1     141.613  77.983 220.927 -0.25 -0.09    +0.152 C  
DOCKED: ATOM      5  N   UNL     1     140.652  77.049 221.482 -0.15 +0.12    -0.329 N  
DOCKED: ENDROOT
DOCKED: BRANCH   1   6
DOCKED: ATOM      6  C   UNL     1     138.564  77.323 222.719 -0.18 -0.04    +0.243 C  
DOCKED: ATOM      7  N   UNL     1     138.002  76.008 222.881 -0.14 +0.09    -0.348 N  
DOCKED: ATOM      8  H   UNL     1     138.656  75.218 223.079 -0.48 -0.06    +0.164 HD 
DOCKED: ATOM      9  O   UNL     1     137.814  78.314 222.503 -0.14 +0.04    -0.273 OA 
DOCKED: BRANCH   7  10
DOCKED: ATOM     10  C   UNL     1     136.571  75.737 222.694 -0.21 -0.03    +0.111 C  
DOCKED: ATOM     11  C   UNL     1     136.172  75.988 221.237 -0.08 -0.01    +0.036 C  
DOCKED: BRANCH  10  12
DOCKED: ATOM     12  C   UNL     1     136.235  74.309 223.099 -0.15 +0.00    -0.007 A  
DOCKED: ATOM     13  C   UNL     1     135.643  71.625 223.767 -0.15 -0.02    +0.120 A  
DOCKED: ATOM     14  C   UNL     1     136.381  71.919 222.618 -0.12 -0.01    +0.047 A  
DOCKED: ATOM     15  C   UNL     1     135.201  72.678 224.589 -0.20 -0.01    +0.067 A  
DOCKED: ATOM     16  C   UNL     1     136.671  73.241 222.287 -0.15 -0.00    +0.011 A  
DOCKED: ATOM     17  C   UNL     1     135.485  74.009 224.262 -0.25 -0.01    +0.049 A  
DOCKED: ATOM     18  Cl  UNL     1     134.876  75.258 225.346 -0.49 +0.01    -0.084 Cl 
DOCKED: BRANCH  13  19
DOCKED: ATOM     19  O   UNL     1     135.373  70.279 224.053 -0.03 +0.05    -0.497 OA 
DOCKED: ATOM     20  C   UNL     1     135.739  69.621 225.262 -0.09 -0.02    +0.278 C  
DOCKED: ENDBRANCH  13  19
DOCKED: ENDBRANCH  10  12
DOCKED: ENDBRANCH   7  10
DOCKED: ENDBRANCH   1   6
DOCKED: BRANCH   5  21
DOCKED: ATOM     21  C   UNL     1     140.450  75.733 220.952 -0.20 -0.06    +0.205 C  
DOCKED: ATOM     22  O   UNL     1     139.737  75.577 219.927 -0.04 +0.07    -0.277 OA 
DOCKED: BRANCH  21  23
DOCKED: ATOM     23  C   UNL     1     141.093  74.543 221.596 -0.28 +0.00    -0.015 C  
DOCKED: BRANCH  23  24
DOCKED: ATOM     24  N   UNL     1     140.091  73.773 222.324 -0.60 +0.02    -0.640 NA 
DOCKED: BRANCH  24  25
DOCKED: ATOM     25  C   UNL     1     139.928  72.359 222.172 -0.26 -0.02    +0.101 C  
DOCKED: ATOM     26  O   UNL     1     139.890  71.850 221.018 -0.07 +0.05    -0.313 OA 
DOCKED: BRANCH  25  27
DOCKED: ATOM     27  C   UNL     1     139.825  71.501 223.364 -0.33 -0.02    +0.088 A  
DOCKED: ATOM     28  C   UNL     1     139.166  70.263 223.316 -0.26 -0.01    +0.031 A  
DOCKED: ATOM     29  N   UNL     1     140.414  71.902 224.523 -0.26 +0.04    -0.246 NA 
DOCKED: ATOM     30  C   UNL     1     139.134  69.449 224.452 -0.34 -0.00    +0.013 A  
DOCKED: ATOM     31  C   UNL     1     140.402  71.132 225.646 -0.52 -0.01    +0.071 A  
DOCKED: ATOM     32  C   UNL     1     139.754  69.876 225.632 -0.46 -0.00    +0.003 A  
DOCKED: ATOM     33  C   UNL     1     141.041  71.574 226.810 -0.72 -0.01    +0.032 A  
DOCKED: ATOM     34  C   UNL     1     139.748  69.080 226.788 -0.52 -0.01    +0.049 A  
DOCKED: ATOM     35  C   UNL     1     141.039  70.770 227.958 -0.65 -0.01    +0.041 A  
DOCKED: ATOM     36  C   UNL     1     140.389  69.530 227.948 -0.52 -0.02    +0.123 A  
DOCKED: ATOM     37  F   UNL     1     140.373  68.764 229.071 -0.13 +0.04    -0.207 F  
DOCKED: ENDBRANCH  25  27
DOCKED: ENDBRANCH  24  25
DOCKED: ENDBRANCH  23  24
DOCKED: ENDBRANCH  21  23
DOCKED: ENDBRANCH   5  21
DOCKED: BRANCH   3  38
DOCKED: ATOM     38  O   UNL     1     142.868  79.024 222.705 -0.27 +0.24    -0.391 OA 
DOCKED: ATOM     39  H   UNL     1     143.506  78.478 222.173 -0.44 -0.25    +0.211 HD 
DOCKED: ENDBRANCH   3  38
DOCKED: TORSDOF 10
DOCKED: TER
DOCKED: ENDMDL
________________________________________________________________________________


    FINAL DOCKED STATE:
    ________________________


Run:   6 / 20
Time taken for this run:   0.069s

DOCKED: MODEL        6
DOCKED: USER    Run = 6
DOCKED: USER
DOCKED: USER    Estimated Free Energy of Binding    =  -8.73 kcal/mol  [=(1)+(2)+(3)-(4)]
DOCKED: USER
DOCKED: USER    (1) Final Intermolecular Energy     = -11.71 kcal/mol
DOCKED: USER        vdW + Hbond + desolv Energy     = -11.67 kcal/mol
DOCKED: USER        Electrostatic Energy            =  -0.04 kcal/mol
DOCKED: USER        Moving Ligand-Fixed Receptor    = -11.71 kcal/mol
DOCKED: USER        Moving Ligand-Moving Receptor   =  +0.00 kcal/mol
DOCKED: USER    (2) Final Total Internal Energy     =  -3.69 kcal/mol
DOCKED: USER    (3) Torsional Free Energy           =  +2.98 kcal/mol
DOCKED: USER    (4) Unbound System's Energy         =  -3.69 kcal/mol
DOCKED: USER
DOCKED: USER
DOCKED: REMARK SMILES COc1ccc([C@H](C)NC(=O)[C@@H]2C[C@@H](O)CN2C(=O)C[N-]C(=O)c2ccc3cc(F)ccc3n2)c(Cl)c1
DOCKED: REMARK SMILES IDX 12 1 13 2 14 3 16 4 17 5 10 6 9 7 11 9 7 10 8 11 6 12 3 13
DOCKED: REMARK SMILES IDX 4 14 37 15 5 16 35 17 36 18 2 19 1 20 18 21 19 22 20 23
DOCKED: REMARK SMILES IDX 21 24 22 25 23 26 24 27 25 28 34 29 26 30 33 31 27 32 32 33
DOCKED: REMARK SMILES IDX 28 34 31 35 29 36 30 37 15 38
DOCKED: REMARK H PARENT 9 8 15 39
DOCKED: USER                              x       y       z     vdW  Elec       q    Type
DOCKED: USER                           _______ _______ _______ _____ _____    ______ ____
DOCKED: ROOT
DOCKED: ATOM      1  C   UNL     1     143.746  73.607 220.233 -0.28 -0.04    +0.177 C  
DOCKED: ATOM      2  C   UNL     1     145.219  73.790 219.862 -0.39 -0.01    +0.069 C  
DOCKED: ATOM      3  C   UNL     1     145.583  72.572 219.007 -0.22 +0.07    +0.136 C  
DOCKED: ATOM      4  C   UNL     1     144.257  72.056 218.444 -0.12 +0.01    +0.152 C  
DOCKED: ATOM      5  N   UNL     1     143.222  72.687 219.242 -0.03 +0.05    -0.329 N  
DOCKED: ENDROOT
DOCKED: BRANCH   1   6
DOCKED: ATOM      6  C   UNL     1     142.981  74.908 220.227 -0.22 -0.10    +0.243 C  
DOCKED: ATOM      7  N   UNL     1     141.559  74.906 220.452 -0.10 +0.11    -0.348 N  
DOCKED: ATOM      8  H   UNL     1     141.104  73.996 220.694 +0.05 -0.03    +0.164 HD 
DOCKED: ATOM      9  O   UNL     1     143.581  75.985 219.958 -0.32 +0.19    -0.273 OA 
DOCKED: BRANCH   7  10
DOCKED: ATOM     10  C   UNL     1     140.733  76.106 220.271 -0.17 -0.04    +0.111 C  
DOCKED: ATOM     11  C   UNL     1     139.259  75.774 220.514 -0.13 -0.01    +0.036 C  
DOCKED: BRANCH  10  12
DOCKED: ATOM     12  C   UNL     1     141.189  77.219 221.203 -0.32 +0.00    -0.007 A  
DOCKED: ATOM     13  C   UNL     1     141.996  79.241 223.009 -0.50 -0.05    +0.120 A  
DOCKED: ATOM     14  C   UNL     1     141.470  78.039 223.486 -0.41 -0.02    +0.047 A  
DOCKED: ATOM     15  C   UNL     1     142.122  79.434 221.620 -0.36 -0.04    +0.067 A  
DOCKED: ATOM     16  C   UNL     1     141.069  77.043 222.598 -0.39 -0.00    +0.011 A  
DOCKED: ATOM     17  C   UNL     1     141.720  78.440 220.720 -0.30 -0.03    +0.049 A  
DOCKED: ATOM     18  Cl  UNL     1     141.905  78.780 219.001 -0.34 +0.05    -0.084 Cl 
DOCKED: BRANCH  13  19
DOCKED: ATOM     19  O   UNL     1     142.378  80.214 223.944 -0.22 +0.11    -0.497 OA 
DOCKED: ATOM     20  C   UNL     1     142.192  81.616 223.772 -0.30 -0.03    +0.278 C  
DOCKED: ENDBRANCH  13  19
DOCKED: ENDBRANCH  10  12
DOCKED: ENDBRANCH   7  10
DOCKED: ENDBRANCH   1   6
DOCKED: BRANCH   5  21
DOCKED: ATOM     21  C   UNL     1     141.844  72.298 219.179 -0.05 -0.03    +0.205 C  
DOCKED: ATOM     22  O   UNL     1     141.157  72.605 218.171 -0.00 +0.05    -0.277 OA 
DOCKED: BRANCH  21  23
DOCKED: ATOM     23  C   UNL     1     141.220  71.514 220.291 -0.14 +0.00    -0.015 C  
DOCKED: BRANCH  23  24
DOCKED: ATOM     24  N   UNL     1     141.546  72.129 221.573 +0.02 +0.06    -0.640 NA 
DOCKED: BRANCH  24  25
DOCKED: ATOM     25  C   UNL     1     140.556  72.481 222.546 -0.24 -0.01    +0.101 C  
DOCKED: ATOM     26  O   UNL     1     139.920  73.564 222.432 -0.78 +0.02    -0.313 OA 
DOCKED: BRANCH  25  27
DOCKED: ATOM     27  C   UNL     1     140.272  71.568 223.665 -0.36 -0.01    +0.088 A  
DOCKED: ATOM     28  C   UNL     1     139.596  70.354 223.461 -0.28 -0.01    +0.031 A  
DOCKED: ATOM     29  N   UNL     1     140.709  71.890 224.912 -0.28 +0.03    -0.246 NA 
DOCKED: ATOM     30  C   UNL     1     139.392  69.485 224.537 -0.35 -0.00    +0.013 A  
DOCKED: ATOM     31  C   UNL     1     140.527  71.064 225.979 -0.55 -0.01    +0.071 A  
DOCKED: ATOM     32  C   UNL     1     139.857  69.832 225.811 -0.47 -0.00    +0.003 A  
DOCKED: ATOM     33  C   UNL     1     141.013  71.426 227.241 -0.73 -0.01    +0.032 A  
DOCKED: ATOM     34  C   UNL     1     139.675  68.978 226.909 -0.53 -0.01    +0.049 A  
DOCKED: ATOM     35  C   UNL     1     140.837  70.564 228.333 -0.55 -0.01    +0.041 A  
DOCKED: ATOM     36  C   UNL     1     140.164  69.347 228.167 -0.52 -0.02    +0.123 A  
DOCKED: ATOM     37  F   UNL     1     139.978  68.526 229.234 -0.09 +0.04    -0.207 F  
DOCKED: ENDBRANCH  25  27
DOCKED: ENDBRANCH  24  25
DOCKED: ENDBRANCH  23  24
DOCKED: ENDBRANCH  21  23
DOCKED: ENDBRANCH   5  21
DOCKED: BRANCH   3  38
DOCKED: ATOM     38  O   UNL     1     146.186  71.595 219.817 -0.34 -0.27    -0.391 OA 
DOCKED: ATOM     39  H   UNL     1     145.693  71.601 220.679 -0.37 -0.05    +0.211 HD 
DOCKED: ENDBRANCH   3  38
DOCKED: TORSDOF 10
DOCKED: TER
DOCKED: ENDMDL
________________________________________________________________________________


    FINAL DOCKED STATE:
    ________________________


Run:   7 / 20
Time taken for this run:   0.069s

DOCKED: MODEL        7
DOCKED: USER    Run = 7
DOCKED: USER
DOCKED: USER    Estimated Free Energy of Binding    =  -5.71 kcal/mol  [=(1)+(2)+(3)-(4)]
DOCKED: USER
DOCKED: USER    (1) Final Intermolecular Energy     =  -8.69 kcal/mol
DOCKED: USER        vdW + Hbond + desolv Energy     =  -8.79 kcal/mol
DOCKED: USER        Electrostatic Energy            =  +0.10 kcal/mol
DOCKED: USER        Moving Ligand-Fixed Receptor    =  -8.69 kcal/mol
DOCKED: USER        Moving Ligand-Moving Receptor   =  +0.00 kcal/mol
DOCKED: USER    (2) Final Total Internal Energy     =  -5.84 kcal/mol
DOCKED: USER    (3) Torsional Free Energy           =  +2.98 kcal/mol
DOCKED: USER    (4) Unbound System's Energy         =  -5.84 kcal/mol
DOCKED: USER
DOCKED: USER
DOCKED: REMARK SMILES COc1ccc([C@H](C)NC(=O)[C@@H]2C[C@@H](O)CN2C(=O)C[N-]C(=O)c2ccc3cc(F)ccc3n2)c(Cl)c1
DOCKED: REMARK SMILES IDX 12 1 13 2 14 3 16 4 17 5 10 6 9 7 11 9 7 10 8 11 6 12 3 13
DOCKED: REMARK SMILES IDX 4 14 37 15 5 16 35 17 36 18 2 19 1 20 18 21 19 22 20 23
DOCKED: REMARK SMILES IDX 21 24 22 25 23 26 24 27 25 28 34 29 26 30 33 31 27 32 32 33
DOCKED: REMARK SMILES IDX 28 34 31 35 29 36 30 37 15 38
DOCKED: REMARK H PARENT 9 8 15 39
DOCKED: USER                              x       y       z     vdW  Elec       q    Type
DOCKED: USER                           _______ _______ _______ _____ _____    ______ ____
DOCKED: ROOT
DOCKED: ATOM      1  C   UNL     1     143.357  74.916 220.417 -0.20 -0.08    +0.177 C  
DOCKED: ATOM      2  C   UNL     1     144.816  74.545 220.146 -0.29 -0.03    +0.069 C  
DOCKED: ATOM      3  C   UNL     1     144.904  73.030 220.360 -0.41 -0.01    +0.136 C  
DOCKED: ATOM      4  C   UNL     1     143.477  72.508 220.176 -0.22 -0.02    +0.152 C  
DOCKED: ATOM      5  N   UNL     1     142.621  73.677 220.257 -0.11 +0.08    -0.329 N  
DOCKED: ENDROOT
DOCKED: BRANCH   1   6
DOCKED: ATOM      6  C   UNL     1     142.845  75.981 219.479 -0.24 -0.13    +0.243 C  
DOCKED: ATOM      7  N   UNL     1     141.453  76.345 219.498 -0.06 +0.15    -0.348 N  
DOCKED: ATOM      8  H   UNL     1     140.844  75.909 220.227 +0.05 -0.05    +0.164 HD 
DOCKED: ATOM      9  O   UNL     1     143.627  76.498 218.635 -0.26 +0.18    -0.273 OA 
DOCKED: BRANCH   7  10
DOCKED: ATOM     10  C   UNL     1     140.858  77.229 218.488 -0.08 -0.05    +0.111 C  
DOCKED: ATOM     11  C   UNL     1     139.623  76.569 217.870 -0.02 -0.01    +0.036 C  
DOCKED: BRANCH  10  12
DOCKED: ATOM     12  C   UNL     1     140.494  78.575 219.097 -0.12 +0.00    -0.007 A  
DOCKED: ATOM     13  C   UNL     1     139.726  81.044 220.244 -0.10 -0.03    +0.120 A  
DOCKED: ATOM     14  C   UNL     1     138.876  79.939 220.317 -0.07 -0.01    +0.047 A  
DOCKED: ATOM     15  C   UNL     1     140.970  80.915 219.596 -0.20 -0.02    +0.067 A  
DOCKED: ATOM     16  C   UNL     1     139.252  78.723 219.751 -0.07 -0.00    +0.011 A  
DOCKED: ATOM     17  C   UNL     1     141.354  79.698 219.021 -0.21 -0.03    +0.049 A  
DOCKED: ATOM     18  Cl  UNL     1     142.922  79.638 218.221 -0.16 +0.09    -0.084 Cl 
DOCKED: BRANCH  13  19
DOCKED: ATOM     19  O   UNL     1     139.299  82.247 220.825 -0.03 +0.09    -0.497 OA 
DOCKED: ATOM     20  C   UNL     1     140.167  83.302 221.228 -0.16 -0.04    +0.278 C  
DOCKED: ENDBRANCH  13  19
DOCKED: ENDBRANCH  10  12
DOCKED: ENDBRANCH   7  10
DOCKED: ENDBRANCH   1   6
DOCKED: BRANCH   5  21
DOCKED: ATOM     21  C   UNL     1     141.193  73.590 220.354 -0.13 -0.04    +0.205 C  
DOCKED: ATOM     22  O   UNL     1     140.483  73.885 219.358 -0.02 +0.06    -0.277 OA 
DOCKED: BRANCH  21  23
DOCKED: ATOM     23  C   UNL     1     140.540  73.137 221.622 -0.29 +0.00    -0.015 C  
DOCKED: BRANCH  23  24
DOCKED: ATOM     24  N   UNL     1     140.000  74.286 222.340 -0.57 +0.01    -0.640 NA 
DOCKED: BRANCH  24  25
DOCKED: ATOM     25  C   UNL     1     139.470  75.441 221.681 -0.26 -0.02    +0.101 C  
DOCKED: ATOM     26  O   UNL     1     138.749  75.305 220.654 -0.05 +0.07    -0.313 OA 
DOCKED: BRANCH  25  27
DOCKED: ATOM     27  C   UNL     1     139.753  76.784 222.215 -0.32 -0.02    +0.088 A  
DOCKED: ATOM     28  C   UNL     1     138.776  77.512 222.912 -0.20 -0.00    +0.031 A  
DOCKED: ATOM     29  N   UNL     1     140.999  77.309 222.064 -0.24 +0.10    -0.246 NA 
DOCKED: ATOM     30  C   UNL     1     139.095  78.760 223.453 -0.27 -0.00    +0.013 A  
DOCKED: ATOM     31  C   UNL     1     141.341  78.521 222.581 -0.44 -0.03    +0.071 A  
DOCKED: ATOM     32  C   UNL     1     140.385  79.279 223.294 -0.46 -0.00    +0.003 A  
DOCKED: ATOM     33  C   UNL     1     142.642  79.013 222.421 -0.32 -0.02    +0.032 A  
DOCKED: ATOM     34  C   UNL     1     140.741  80.525 223.833 -0.41 -0.01    +0.049 A  
DOCKED: ATOM     35  C   UNL     1     142.993  80.255 222.969 -0.62 -0.01    +0.041 A  
DOCKED: ATOM     36  C   UNL     1     142.043  81.010 223.667 -0.52 -0.02    +0.123 A  
DOCKED: ATOM     37  F   UNL     1     142.385  82.222 224.179 -0.08 +0.01    -0.207 F  
DOCKED: ENDBRANCH  25  27
DOCKED: ENDBRANCH  24  25
DOCKED: ENDBRANCH  23  24
DOCKED: ENDBRANCH  21  23
DOCKED: ENDBRANCH   5  21
DOCKED: BRANCH   3  38
DOCKED: ATOM     38  O   UNL     1     145.360  72.767 221.662 -0.22 +0.12    -0.391 OA 
DOCKED: ATOM     39  H   UNL     1     145.012  71.868 221.905 -0.40 -0.15    +0.211 HD 
DOCKED: ENDBRANCH   3  38
DOCKED: TORSDOF 10
DOCKED: TER
DOCKED: ENDMDL
________________________________________________________________________________


    FINAL DOCKED STATE:
    ________________________


Run:   8 / 20
Time taken for this run:   0.069s

DOCKED: MODEL        8
DOCKED: USER    Run = 8
DOCKED: USER
DOCKED: USER    Estimated Free Energy of Binding    =  -5.79 kcal/mol  [=(1)+(2)+(3)-(4)]
DOCKED: USER
DOCKED: USER    (1) Final Intermolecular Energy     =  -8.78 kcal/mol
DOCKED: USER        vdW + Hbond + desolv Energy     =  -8.86 kcal/mol
DOCKED: USER        Electrostatic Energy            =  +0.09 kcal/mol
DOCKED: USER        Moving Ligand-Fixed Receptor    =  -8.78 kcal/mol
DOCKED: USER        Moving Ligand-Moving Receptor   =  +0.00 kcal/mol
DOCKED: USER    (2) Final Total Internal Energy     =  -5.75 kcal/mol
DOCKED: USER    (3) Torsional Free Energy           =  +2.98 kcal/mol
DOCKED: USER    (4) Unbound System's Energy         =  -5.75 kcal/mol
DOCKED: USER
DOCKED: USER
DOCKED: REMARK SMILES COc1ccc([C@H](C)NC(=O)[C@@H]2C[C@@H](O)CN2C(=O)C[N-]C(=O)c2ccc3cc(F)ccc3n2)c(Cl)c1
DOCKED: REMARK SMILES IDX 12 1 13 2 14 3 16 4 17 5 10 6 9 7 11 9 7 10 8 11 6 12 3 13
DOCKED: REMARK SMILES IDX 4 14 37 15 5 16 35 17 36 18 2 19 1 20 18 21 19 22 20 23
DOCKED: REMARK SMILES IDX 21 24 22 25 23 26 24 27 25 28 34 29 26 30 33 31 27 32 32 33
DOCKED: REMARK SMILES IDX 28 34 31 35 29 36 30 37 15 38
DOCKED: REMARK H PARENT 9 8 15 39
DOCKED: USER                              x       y       z     vdW  Elec       q    Type
DOCKED: USER                           _______ _______ _______ _____ _____    ______ ____
DOCKED: ROOT
DOCKED: ATOM      1  C   UNL     1     143.115  75.050 220.414 -0.16 -0.09    +0.177 C  
DOCKED: ATOM      2  C   UNL     1     144.588  74.738 220.142 -0.27 -0.03    +0.069 C  
DOCKED: ATOM      3  C   UNL     1     144.723  73.219 220.289 -0.39 -0.02    +0.136 C  
DOCKED: ATOM      4  C   UNL     1     143.316  72.661 220.067 -0.21 -0.02    +0.152 C  
DOCKED: ATOM      5  N   UNL     1     142.421  73.797 220.190 -0.10 +0.08    -0.329 N  
DOCKED: ENDROOT
DOCKED: BRANCH   1   6
DOCKED: ATOM      6  C   UNL     1     142.578  76.139 219.518 -0.23 -0.13    +0.243 C  
DOCKED: ATOM      7  N   UNL     1     141.165  76.414 219.491 -0.04 +0.14    -0.348 N  
DOCKED: ATOM      8  H   UNL     1     140.554  75.896 220.160 +0.05 -0.05    +0.164 HD 
DOCKED: ATOM      9  O   UNL     1     143.362  76.757 218.747 -0.28 +0.19    -0.273 OA 
DOCKED: BRANCH   7  10
DOCKED: ATOM     10  C   UNL     1     140.561  77.322 218.508 -0.07 -0.04    +0.111 C  
DOCKED: ATOM     11  C   UNL     1     139.282  76.706 217.936 -0.02 -0.01    +0.036 C  
DOCKED: BRANCH  10  12
DOCKED: ATOM     12  C   UNL     1     140.265  78.676 219.137 -0.10 +0.00    -0.007 A  
DOCKED: ATOM     13  C   UNL     1     139.622  81.163 220.322 -0.10 -0.03    +0.120 A  
DOCKED: ATOM     14  C   UNL     1     138.734  80.089 220.412 -0.07 -0.01    +0.047 A  
DOCKED: ATOM     15  C   UNL     1     140.841  80.993 219.637 -0.19 -0.02    +0.067 A  
DOCKED: ATOM     16  C   UNL     1     139.048  78.865 219.826 -0.07 -0.00    +0.011 A  
DOCKED: ATOM     17  C   UNL     1     141.163  79.767 219.043 -0.19 -0.02    +0.049 A  
DOCKED: ATOM     18  Cl  UNL     1     142.705  79.656 218.198 -0.31 +0.08    -0.084 Cl 
DOCKED: BRANCH  13  19
DOCKED: ATOM     19  O   UNL     1     139.257  82.376 220.922 -0.03 +0.09    -0.497 OA 
DOCKED: ATOM     20  C   UNL     1     140.162  83.436 221.218 -0.16 -0.04    +0.278 C  
DOCKED: ENDBRANCH  13  19
DOCKED: ENDBRANCH  10  12
DOCKED: ENDBRANCH   7  10
DOCKED: ENDBRANCH   1   6
DOCKED: BRANCH   5  21
DOCKED: ATOM     21  C   UNL     1     140.997  73.661 220.268 -0.12 -0.04    +0.205 C  
DOCKED: ATOM     22  O   UNL     1     140.293  73.891 219.250 -0.02 +0.06    -0.277 OA 
DOCKED: BRANCH  21  23
DOCKED: ATOM     23  C   UNL     1     140.339  73.230 221.542 -0.28 +0.00    -0.015 C  
DOCKED: BRANCH  23  24
DOCKED: ATOM     24  N   UNL     1     139.961  74.401 222.325 -0.56 +0.02    -0.640 NA 
DOCKED: BRANCH  24  25
DOCKED: ATOM     25  C   UNL     1     139.336  75.556 221.754 -0.26 -0.02    +0.101 C  
DOCKED: ATOM     26  O   UNL     1     138.495  75.421 220.824 -0.05 +0.07    -0.313 OA 
DOCKED: BRANCH  25  27
DOCKED: ATOM     27  C   UNL     1     139.663  76.896 222.270 -0.32 -0.02    +0.088 A  
DOCKED: ATOM     28  C   UNL     1     138.705  77.671 222.942 -0.21 -0.00    +0.031 A  
DOCKED: ATOM     29  N   UNL     1     140.929  77.372 222.125 -0.24 +0.10    -0.246 NA 
DOCKED: ATOM     30  C   UNL     1     139.065  78.916 223.466 -0.31 -0.00    +0.013 A  
DOCKED: ATOM     31  C   UNL     1     141.311  78.579 222.625 -0.45 -0.03    +0.071 A  
DOCKED: ATOM     32  C   UNL     1     140.376  79.384 223.314 -0.46 -0.00    +0.003 A  
DOCKED: ATOM     33  C   UNL     1     142.630  79.019 222.473 -0.35 -0.02    +0.032 A  
DOCKED: ATOM     34  C   UNL     1     140.771  80.625 223.836 -0.41 -0.01    +0.049 A  
DOCKED: ATOM     35  C   UNL     1     143.022  80.256 223.005 -0.62 -0.01    +0.041 A  
DOCKED: ATOM     36  C   UNL     1     142.092  81.058 223.679 -0.53 -0.02    +0.123 A  
DOCKED: ATOM     37  F   UNL     1     142.473  82.265 224.174 -0.08 +0.01    -0.207 F  
DOCKED: ENDBRANCH  25  27
DOCKED: ENDBRANCH  24  25
DOCKED: ENDBRANCH  23  24
DOCKED: ENDBRANCH  21  23
DOCKED: ENDBRANCH   5  21
DOCKED: BRANCH   3  38
DOCKED: ATOM     38  O   UNL     1     145.175  72.913 221.584 -0.25 +0.11    -0.391 OA 
DOCKED: ATOM     39  H   UNL     1     145.471  71.965 221.561 -0.43 -0.15    +0.211 HD 
DOCKED: ENDBRANCH   3  38
DOCKED: TORSDOF 10
DOCKED: TER
DOCKED: ENDMDL
________________________________________________________________________________


    FINAL DOCKED STATE:
    ________________________


Run:   9 / 20
Time taken for this run:   0.069s

DOCKED: MODEL        9
DOCKED: USER    Run = 9
DOCKED: USER
DOCKED: USER    Estimated Free Energy of Binding    =  -5.01 kcal/mol  [=(1)+(2)+(3)-(4)]
DOCKED: USER
DOCKED: USER    (1) Final Intermolecular Energy     =  -7.99 kcal/mol
DOCKED: USER        vdW + Hbond + desolv Energy     =  -8.16 kcal/mol
DOCKED: USER        Electrostatic Energy            =  +0.17 kcal/mol
DOCKED: USER        Moving Ligand-Fixed Receptor    =  -7.99 kcal/mol
DOCKED: USER        Moving Ligand-Moving Receptor   =  +0.00 kcal/mol
DOCKED: USER    (2) Final Total Internal Energy     =  -6.03 kcal/mol
DOCKED: USER    (3) Torsional Free Energy           =  +2.98 kcal/mol
DOCKED: USER    (4) Unbound System's Energy         =  -6.03 kcal/mol
DOCKED: USER
DOCKED: USER
DOCKED: REMARK SMILES COc1ccc([C@H](C)NC(=O)[C@@H]2C[C@@H](O)CN2C(=O)C[N-]C(=O)c2ccc3cc(F)ccc3n2)c(Cl)c1
DOCKED: REMARK SMILES IDX 12 1 13 2 14 3 16 4 17 5 10 6 9 7 11 9 7 10 8 11 6 12 3 13
DOCKED: REMARK SMILES IDX 4 14 37 15 5 16 35 17 36 18 2 19 1 20 18 21 19 22 20 23
DOCKED: REMARK SMILES IDX 21 24 22 25 23 26 24 27 25 28 34 29 26 30 33 31 27 32 32 33
DOCKED: REMARK SMILES IDX 28 34 31 35 29 36 30 37 15 38
DOCKED: REMARK H PARENT 9 8 15 39
DOCKED: USER                              x       y       z     vdW  Elec       q    Type
DOCKED: USER                           _______ _______ _______ _____ _____    ______ ____
DOCKED: ROOT
DOCKED: ATOM      1  C   UNL     1     142.079  75.428 220.345 -0.22 -0.08    +0.177 C  
DOCKED: ATOM      2  C   UNL     1     143.246  74.443 220.442 -0.32 -0.02    +0.069 C  
DOCKED: ATOM      3  C   UNL     1     142.657  73.070 220.103 -0.18 -0.02    +0.136 C  
DOCKED: ATOM      4  C   UNL     1     141.391  73.358 219.292 -0.06 -0.03    +0.152 C  
DOCKED: ATOM      5  N   UNL     1     141.096  74.761 219.514 -0.02 +0.09    -0.329 N  
DOCKED: ENDROOT
DOCKED: BRANCH   1   6
DOCKED: ATOM      6  C   UNL     1     142.487  76.754 219.750 -0.23 -0.15    +0.243 C  
DOCKED: ATOM      7  N   UNL     1     141.537  77.833 219.685 -0.09 +0.18    -0.348 N  
DOCKED: ATOM      8  H   UNL     1     140.603  77.690 220.129 +0.06 -0.06    +0.164 HD 
DOCKED: ATOM      9  O   UNL     1     143.638  76.887 219.252 -0.28 +0.21    -0.273 OA 
DOCKED: BRANCH   7  10
DOCKED: ATOM     10  C   UNL     1     141.810  79.075 218.951 -0.24 -0.07    +0.111 C  
DOCKED: ATOM     11  C   UNL     1     141.389  78.927 217.487 -0.16 -0.02    +0.036 C  
DOCKED: BRANCH  10  12
DOCKED: ATOM     12  C   UNL     1     141.089  80.251 219.595 -0.23 +0.00    -0.007 A  
DOCKED: ATOM     13  C   UNL     1     139.837  82.475 220.816 -0.17 -0.02    +0.120 A  
DOCKED: ATOM     14  C   UNL     1     141.216  82.477 220.592 -0.27 -0.01    +0.047 A  
DOCKED: ATOM     15  C   UNL     1     139.079  81.354 220.425 -0.09 -0.01    +0.067 A  
DOCKED: ATOM     16  C   UNL     1     141.834  81.382 219.994 -0.23 -0.00    +0.011 A  
DOCKED: ATOM     17  C   UNL     1     139.692  80.248 219.826 -0.09 -0.01    +0.049 A  
DOCKED: ATOM     18  Cl  UNL     1     138.661  78.889 219.385 -0.04 +0.02    -0.084 Cl 
DOCKED: BRANCH  13  19
DOCKED: ATOM     19  O   UNL     1     139.264  83.599 221.427 -0.06 +0.07    -0.497 OA 
DOCKED: ATOM     20  C   UNL     1     139.609  84.947 221.124 -0.14 -0.04    +0.278 C  
DOCKED: ENDBRANCH  13  19
DOCKED: ENDBRANCH  10  12
DOCKED: ENDBRANCH   7  10
DOCKED: ENDBRANCH   1   6
DOCKED: BRANCH   5  21
DOCKED: ATOM     21  C   UNL     1     139.864  75.371 219.108 -0.03 -0.05    +0.205 C  
DOCKED: ATOM     22  O   UNL     1     139.887  76.367 218.340 -0.01 +0.08    -0.277 OA 
DOCKED: BRANCH  21  23
DOCKED: ATOM     23  C   UNL     1     138.551  74.823 219.573 -0.05 +0.00    -0.015 C  
DOCKED: BRANCH  23  24
DOCKED: ATOM     24  N   UNL     1     138.308  75.224 220.955 +0.02 +0.14    -0.640 NA 
DOCKED: BRANCH  24  25
DOCKED: ATOM     25  C   UNL     1     139.360  75.477 221.892 -0.27 -0.02    +0.101 C  
DOCKED: ATOM     26  O   UNL     1     140.065  74.522 222.320 -0.77 +0.00    -0.313 OA 
DOCKED: BRANCH  25  27
DOCKED: ATOM     27  C   UNL     1     139.627  76.854 222.339 -0.32 -0.02    +0.088 A  
DOCKED: ATOM     28  C   UNL     1     138.605  77.663 222.860 -0.24 -0.01    +0.031 A  
DOCKED: ATOM     29  N   UNL     1     140.898  77.337 222.281 -0.26 +0.09    -0.246 NA 
DOCKED: ATOM     30  C   UNL     1     138.904  78.946 223.325 -0.31 -0.00    +0.013 A  
DOCKED: ATOM     31  C   UNL     1     141.222  78.581 222.727 -0.45 -0.03    +0.071 A  
DOCKED: ATOM     32  C   UNL     1     140.219  79.420 223.264 -0.44 -0.00    +0.003 A  
DOCKED: ATOM     33  C   UNL     1     142.547  79.028 222.669 -0.45 -0.02    +0.032 A  
DOCKED: ATOM     34  C   UNL     1     140.555  80.700 223.731 -0.40 -0.01    +0.049 A  
DOCKED: ATOM     35  C   UNL     1     142.877  80.305 223.145 -0.63 -0.01    +0.041 A  
DOCKED: ATOM     36  C   UNL     1     141.882  81.140 223.668 -0.51 -0.02    +0.123 A  
DOCKED: ATOM     37  F   UNL     1     142.205  82.384 224.109 +0.04 -0.00    -0.207 F  
DOCKED: ENDBRANCH  25  27
DOCKED: ENDBRANCH  24  25
DOCKED: ENDBRANCH  23  24
DOCKED: ENDBRANCH  21  23
DOCKED: ENDBRANCH   5  21
DOCKED: BRANCH   3  38
DOCKED: ATOM     38  O   UNL     1     142.336  72.392 221.291 -0.10 +0.04    -0.391 OA 
DOCKED: ATOM     39  H   UNL     1     141.602  72.906 221.719 +0.08 -0.01    +0.211 HD 
DOCKED: ENDBRANCH   3  38
DOCKED: TORSDOF 10
DOCKED: TER
DOCKED: ENDMDL
________________________________________________________________________________


    FINAL DOCKED STATE:
    ________________________


Run:   10 / 20
Time taken for this run:   0.069s

DOCKED: MODEL        10
DOCKED: USER    Run = 10
DOCKED: USER
DOCKED: USER    Estimated Free Energy of Binding    =  -8.52 kcal/mol  [=(1)+(2)+(3)-(4)]
DOCKED: USER
DOCKED: USER    (1) Final Intermolecular Energy     = -11.50 kcal/mol
DOCKED: USER        vdW + Hbond + desolv Energy     = -11.51 kcal/mol
DOCKED: USER        Electrostatic Energy            =  +0.01 kcal/mol
DOCKED: USER        Moving Ligand-Fixed Receptor    = -11.50 kcal/mol
DOCKED: USER        Moving Ligand-Moving Receptor   =  +0.00 kcal/mol
DOCKED: USER    (2) Final Total Internal Energy     =  -3.25 kcal/mol
DOCKED: USER    (3) Torsional Free Energy           =  +2.98 kcal/mol
DOCKED: USER    (4) Unbound System's Energy         =  -3.25 kcal/mol
DOCKED: USER
DOCKED: USER
DOCKED: REMARK SMILES COc1ccc([C@H](C)NC(=O)[C@@H]2C[C@@H](O)CN2C(=O)C[N-]C(=O)c2ccc3cc(F)ccc3n2)c(Cl)c1
DOCKED: REMARK SMILES IDX 12 1 13 2 14 3 16 4 17 5 10 6 9 7 11 9 7 10 8 11 6 12 3 13
DOCKED: REMARK SMILES IDX 4 14 37 15 5 16 35 17 36 18 2 19 1 20 18 21 19 22 20 23
DOCKED: REMARK SMILES IDX 21 24 22 25 23 26 24 27 25 28 34 29 26 30 33 31 27 32 32 33
DOCKED: REMARK SMILES IDX 28 34 31 35 29 36 30 37 15 38
DOCKED: REMARK H PARENT 9 8 15 39
DOCKED: USER                              x       y       z     vdW  Elec       q    Type
DOCKED: USER                           _______ _______ _______ _____ _____    ______ ____
DOCKED: ROOT
DOCKED: ATOM      1  C   UNL     1     143.656  73.880 220.553 -0.26 -0.05    +0.177 C  
DOCKED: ATOM      2  C   UNL     1     145.083  74.149 220.072 -0.36 -0.02    +0.069 C  
DOCKED: ATOM      3  C   UNL     1     145.513  72.884 219.324 -0.31 +0.04    +0.136 C  
DOCKED: ATOM      4  C   UNL     1     144.212  72.197 218.902 -0.15 +0.00    +0.152 C  
DOCKED: ATOM      5  N   UNL     1     143.168  72.816 219.696 -0.06 +0.05    -0.329 N  
DOCKED: ENDROOT
DOCKED: BRANCH   1   6
DOCKED: ATOM      6  C   UNL     1     142.773  75.101 220.464 -0.15 -0.11    +0.243 C  
DOCKED: ATOM      7  N   UNL     1     141.380  75.006 220.813 -0.13 +0.10    -0.348 N  
DOCKED: ATOM      8  H   UNL     1     141.033  74.099 221.198 +0.05 -0.03    +0.164 HD 
DOCKED: ATOM      9  O   UNL     1     143.246  76.182 220.019 -0.29 +0.19    -0.273 OA 
DOCKED: BRANCH   7  10
DOCKED: ATOM     10  C   UNL     1     140.433  76.100 220.568 -0.18 -0.03    +0.111 C  
DOCKED: ATOM     11  C   UNL     1     139.073  75.772 221.190 -0.21 -0.01    +0.036 C  
DOCKED: BRANCH  10  12
DOCKED: ATOM     12  C   UNL     1     140.969  77.412 221.122 -0.31 +0.00    -0.007 A  
DOCKED: ATOM     13  C   UNL     1     141.937  79.823 222.241 -0.43 -0.05    +0.120 A  
DOCKED: ATOM     14  C   UNL     1     141.515  78.781 223.070 -0.53 -0.02    +0.047 A  
DOCKED: ATOM     15  C   UNL     1     141.877  79.659 220.844 -0.29 -0.03    +0.067 A  
DOCKED: ATOM     16  C   UNL     1     141.036  77.594 222.520 -0.45 -0.00    +0.011 A  
DOCKED: ATOM     17  C   UNL     1     141.394  78.471 220.283 -0.26 -0.03    +0.049 A  
DOCKED: ATOM     18  Cl  UNL     1     141.345  78.365 218.525 -0.24 +0.04    -0.084 Cl 
DOCKED: BRANCH  13  19
DOCKED: ATOM     19  O   UNL     1     142.405  80.999 222.844 -0.21 +0.11    -0.497 OA 
DOCKED: ATOM     20  C   UNL     1     142.614  81.162 224.244 -0.30 -0.04    +0.278 C  
DOCKED: ENDBRANCH  13  19
DOCKED: ENDBRANCH  10  12
DOCKED: ENDBRANCH   7  10
DOCKED: ENDBRANCH   1   6
DOCKED: BRANCH   5  21
DOCKED: ATOM     21  C   UNL     1     141.831  72.303 219.760 -0.08 -0.03    +0.205 C  
DOCKED: ATOM     22  O   UNL     1     140.890  72.953 219.237 -0.02 +0.05    -0.277 OA 
DOCKED: BRANCH  21  23
DOCKED: ATOM     23  C   UNL     1     141.547  70.994 220.428 -0.12 +0.00    -0.015 C  
DOCKED: BRANCH  23  24
DOCKED: ATOM     24  N   UNL     1     140.294  71.078 221.170 +0.02 +0.10    -0.640 NA 
DOCKED: BRANCH  24  25
DOCKED: ATOM     25  C   UNL     1     140.180  71.719 222.444 -0.27 -0.01    +0.101 C  
DOCKED: ATOM     26  O   UNL     1     140.224  72.977 222.523 -0.65 +0.02    -0.313 OA 
DOCKED: BRANCH  25  27
DOCKED: ATOM     27  C   UNL     1     139.994  70.906 223.658 -0.32 -0.01    +0.088 A  
DOCKED: ATOM     28  C   UNL     1     139.293  69.691 223.620 -0.26 -0.01    +0.031 A  
DOCKED: ATOM     29  N   UNL     1     140.547  71.324 224.828 -0.31 +0.04    -0.246 NA 
DOCKED: ATOM     30  C   UNL     1     139.182  68.917 224.779 -0.38 -0.00    +0.013 A  
DOCKED: ATOM     31  C   UNL     1     140.458  70.593 225.974 -0.51 -0.01    +0.071 A  
DOCKED: ATOM     32  C   UNL     1     139.766  69.361 225.972 -0.48 -0.00    +0.003 A  
DOCKED: ATOM     33  C   UNL     1     141.062  71.051 227.150 -0.67 -0.01    +0.032 A  
DOCKED: ATOM     34  C   UNL     1     139.680  68.605 227.150 -0.56 -0.01    +0.049 A  
DOCKED: ATOM     35  C   UNL     1     140.981  70.286 228.323 -0.53 -0.01    +0.041 A  
DOCKED: ATOM     36  C   UNL     1     140.286  69.070 228.323 -0.54 -0.02    +0.123 A  
DOCKED: ATOM     37  F   UNL     1     140.194  68.344 229.468 -0.02 +0.04    -0.207 F  
DOCKED: ENDBRANCH  25  27
DOCKED: ENDBRANCH  24  25
DOCKED: ENDBRANCH  23  24
DOCKED: ENDBRANCH  21  23
DOCKED: ENDBRANCH   5  21
DOCKED: BRANCH   3  38
DOCKED: ATOM     38  O   UNL     1     146.248  72.055 220.189 -0.34 -0.18    -0.391 OA 
DOCKED: ATOM     39  H   UNL     1     145.646  71.839 220.950 -0.41 -0.08    +0.211 HD 
DOCKED: ENDBRANCH   3  38
DOCKED: TORSDOF 10
DOCKED: TER
DOCKED: ENDMDL
________________________________________________________________________________


    FINAL DOCKED STATE:
    ________________________


Run:   11 / 20
Time taken for this run:   0.069s

DOCKED: MODEL        11
DOCKED: USER    Run = 11
DOCKED: USER
DOCKED: USER    Estimated Free Energy of Binding    =  -4.79 kcal/mol  [=(1)+(2)+(3)-(4)]
DOCKED: USER
DOCKED: USER    (1) Final Intermolecular Energy     =  -7.77 kcal/mol
DOCKED: USER        vdW + Hbond + desolv Energy     =  -7.93 kcal/mol
DOCKED: USER        Electrostatic Energy            =  +0.16 kcal/mol
DOCKED: USER        Moving Ligand-Fixed Receptor    =  -7.77 kcal/mol
DOCKED: USER        Moving Ligand-Moving Receptor   =  +0.00 kcal/mol
DOCKED: USER    (2) Final Total Internal Energy     =  -5.74 kcal/mol
DOCKED: USER    (3) Torsional Free Energy           =  +2.98 kcal/mol
DOCKED: USER    (4) Unbound System's Energy         =  -5.74 kcal/mol
DOCKED: USER
DOCKED: USER
DOCKED: REMARK SMILES COc1ccc([C@H](C)NC(=O)[C@@H]2C[C@@H](O)CN2C(=O)C[N-]C(=O)c2ccc3cc(F)ccc3n2)c(Cl)c1
DOCKED: REMARK SMILES IDX 12 1 13 2 14 3 16 4 17 5 10 6 9 7 11 9 7 10 8 11 6 12 3 13
DOCKED: REMARK SMILES IDX 4 14 37 15 5 16 35 17 36 18 2 19 1 20 18 21 19 22 20 23
DOCKED: REMARK SMILES IDX 21 24 22 25 23 26 24 27 25 28 34 29 26 30 33 31 27 32 32 33
DOCKED: REMARK SMILES IDX 28 34 31 35 29 36 30 37 15 38
DOCKED: REMARK H PARENT 9 8 15 39
DOCKED: USER                              x       y       z     vdW  Elec       q    Type
DOCKED: USER                           _______ _______ _______ _____ _____    ______ ____
DOCKED: ROOT
DOCKED: ATOM      1  C   UNL     1     143.118  74.909 220.142 -0.27 -0.08    +0.177 C  
DOCKED: ATOM      2  C   UNL     1     144.613  74.792 220.450 -0.29 -0.03    +0.069 C  
DOCKED: ATOM      3  C   UNL     1     144.945  73.302 220.324 -0.43 -0.02    +0.136 C  
DOCKED: ATOM      4  C   UNL     1     143.853  72.714 219.427 -0.18 -0.02    +0.152 C  
DOCKED: ATOM      5  N   UNL     1     142.795  73.707 219.398 -0.05 +0.08    -0.329 N  
DOCKED: ENDROOT
DOCKED: BRANCH   1   6
DOCKED: ATOM      6  C   UNL     1     142.784  76.149 219.349 -0.23 -0.13    +0.243 C  
DOCKED: ATOM      7  N   UNL     1     141.417  76.584 219.239 -0.05 +0.15    -0.348 N  
DOCKED: ATOM      8  H   UNL     1     140.693  76.064 219.786 +0.05 -0.05    +0.164 HD 
DOCKED: ATOM      9  O   UNL     1     143.698  76.759 218.729 -0.27 +0.20    -0.273 OA 
DOCKED: BRANCH   7  10
DOCKED: ATOM     10  C   UNL     1     141.006  77.663 218.332 -0.10 -0.05    +0.111 C  
DOCKED: ATOM     11  C   UNL     1     140.271  77.083 217.121 -0.03 -0.01    +0.036 C  
DOCKED: BRANCH  10  12
DOCKED: ATOM     12  C   UNL     1     140.126  78.670 219.057 -0.09 +0.00    -0.007 A  
DOCKED: ATOM     13  C   UNL     1     138.414  80.482 220.395 -0.05 -0.03    +0.120 A  
DOCKED: ATOM     14  C   UNL     1     137.988  79.181 220.122 -0.04 -0.01    +0.047 A  
DOCKED: ATOM     15  C   UNL     1     139.706  80.881 219.999 -0.10 -0.02    +0.067 A  
DOCKED: ATOM     16  C   UNL     1     138.829  78.288 219.461 -0.04 -0.00    +0.011 A  
DOCKED: ATOM     17  C   UNL     1     140.556  79.991 219.331 -0.14 -0.02    +0.049 A  
DOCKED: ATOM     18  Cl  UNL     1     142.147  80.587 218.864 -0.37 +0.05    -0.084 Cl 
DOCKED: BRANCH  13  19
DOCKED: ATOM     19  O   UNL     1     137.528  81.344 221.057 +0.00 +0.08    -0.497 OA 
DOCKED: ATOM     20  C   UNL     1     136.967  81.094 222.342 -0.07 -0.04    +0.278 C  
DOCKED: ENDBRANCH  13  19
DOCKED: ENDBRANCH  10  12
DOCKED: ENDBRANCH   7  10
DOCKED: ENDBRANCH   1   6
DOCKED: BRANCH   5  21
DOCKED: ATOM     21  C   UNL     1     141.498  73.447 218.847 -0.03 -0.04    +0.205 C  
DOCKED: ATOM     22  O   UNL     1     141.315  73.561 217.607 -0.00 +0.06    -0.277 OA 
DOCKED: BRANCH  21  23
DOCKED: ATOM     23  C   UNL     1     140.365  73.024 219.728 -0.08 +0.00    -0.015 C  
DOCKED: BRANCH  23  24
DOCKED: ATOM     24  N   UNL     1     139.708  74.200 220.289 +0.04 +0.13    -0.640 NA 
DOCKED: BRANCH  24  25
DOCKED: ATOM     25  C   UNL     1     139.785  74.555 221.673 -0.25 -0.02    +0.101 C  
DOCKED: ATOM     26  O   UNL     1     139.860  73.652 222.551 -0.74 +0.02    -0.313 OA 
DOCKED: BRANCH  25  27
DOCKED: ATOM     27  C   UNL     1     139.796  75.974 222.066 -0.31 -0.02    +0.088 A  
DOCKED: ATOM     28  C   UNL     1     138.680  76.570 222.674 -0.29 -0.01    +0.031 A  
DOCKED: ATOM     29  N   UNL     1     140.924  76.709 221.870 -0.24 +0.09    -0.246 NA 
DOCKED: ATOM     30  C   UNL     1     138.744  77.905 223.084 -0.21 -0.00    +0.013 A  
DOCKED: ATOM     31  C   UNL     1     141.018  78.010 222.259 -0.40 -0.03    +0.071 A  
DOCKED: ATOM     32  C   UNL     1     139.917  78.641 222.881 -0.38 -0.00    +0.003 A  
DOCKED: ATOM     33  C   UNL     1     142.206  78.721 222.058 -0.32 -0.02    +0.032 A  
DOCKED: ATOM     34  C   UNL     1     140.017  79.980 223.288 -0.40 -0.01    +0.049 A  
DOCKED: ATOM     35  C   UNL     1     142.302  80.057 222.475 -0.55 -0.02    +0.041 A  
DOCKED: ATOM     36  C   UNL     1     141.208  80.684 223.082 -0.42 -0.02    +0.123 A  
DOCKED: ATOM     37  F   UNL     1     141.301  81.985 223.466 -0.04 +0.01    -0.207 F  
DOCKED: ENDBRANCH  25  27
DOCKED: ENDBRANCH  24  25
DOCKED: ENDBRANCH  23  24
DOCKED: ENDBRANCH  21  23
DOCKED: ENDBRANCH   5  21
DOCKED: BRANCH   3  38
DOCKED: ATOM     38  O   UNL     1     144.911  72.706 221.596 -0.12 +0.11    -0.391 OA 
DOCKED: ATOM     39  H   UNL     1     145.596  71.986 221.587 -0.44 -0.15    +0.211 HD 
DOCKED: ENDBRANCH   3  38
DOCKED: TORSDOF 10
DOCKED: TER
DOCKED: ENDMDL
________________________________________________________________________________


    FINAL DOCKED STATE:
    ________________________


Run:   12 / 20
Time taken for this run:   0.069s

DOCKED: MODEL        12
DOCKED: USER    Run = 12
DOCKED: USER
DOCKED: USER    Estimated Free Energy of Binding    =  -8.36 kcal/mol  [=(1)+(2)+(3)-(4)]
DOCKED: USER
DOCKED: USER    (1) Final Intermolecular Energy     = -11.34 kcal/mol
DOCKED: USER        vdW + Hbond + desolv Energy     = -11.23 kcal/mol
DOCKED: USER        Electrostatic Energy            =  -0.11 kcal/mol
DOCKED: USER        Moving Ligand-Fixed Receptor    = -11.34 kcal/mol
DOCKED: USER        Moving Ligand-Moving Receptor   =  +0.00 kcal/mol
DOCKED: USER    (2) Final Total Internal Energy     =  -3.68 kcal/mol
DOCKED: USER    (3) Torsional Free Energy           =  +2.98 kcal/mol
DOCKED: USER    (4) Unbound System's Energy         =  -3.68 kcal/mol
DOCKED: USER
DOCKED: USER
DOCKED: REMARK SMILES COc1ccc([C@H](C)NC(=O)[C@@H]2C[C@@H](O)CN2C(=O)C[N-]C(=O)c2ccc3cc(F)ccc3n2)c(Cl)c1
DOCKED: REMARK SMILES IDX 12 1 13 2 14 3 16 4 17 5 10 6 9 7 11 9 7 10 8 11 6 12 3 13
DOCKED: REMARK SMILES IDX 4 14 37 15 5 16 35 17 36 18 2 19 1 20 18 21 19 22 20 23
DOCKED: REMARK SMILES IDX 21 24 22 25 23 26 24 27 25 28 34 29 26 30 33 31 27 32 32 33
DOCKED: REMARK SMILES IDX 28 34 31 35 29 36 30 37 15 38
DOCKED: REMARK H PARENT 9 8 15 39
DOCKED: USER                              x       y       z     vdW  Elec       q    Type
DOCKED: USER                           _______ _______ _______ _____ _____    ______ ____
DOCKED: ROOT
DOCKED: ATOM      1  C   UNL     1     139.639  76.856 222.350 -0.27 -0.04    +0.177 C  
DOCKED: ATOM      2  C   UNL     1     139.887  78.357 222.516 -0.33 -0.02    +0.069 C  
DOCKED: ATOM      3  C   UNL     1     141.121  78.668 221.664 -0.30 -0.06    +0.136 C  
DOCKED: ATOM      4  C   UNL     1     141.196  77.545 220.627 -0.22 -0.07    +0.152 C  
DOCKED: ATOM      5  N   UNL     1     140.321  76.499 221.121 -0.11 +0.10    -0.329 N  
DOCKED: ENDROOT
DOCKED: BRANCH   1   6
DOCKED: ATOM      6  C   UNL     1     138.171  76.515 222.278 -0.20 -0.05    +0.243 C  
DOCKED: ATOM      7  N   UNL     1     137.751  75.138 222.314 -0.10 +0.11    -0.348 N  
DOCKED: ATOM      8  H   UNL     1     138.483  74.409 222.469 -0.34 -0.06    +0.164 HD 
DOCKED: ATOM      9  O   UNL     1     137.322  77.435 222.120 -0.11 +0.05    -0.273 OA 
DOCKED: BRANCH   7  10
DOCKED: ATOM     10  C   UNL     1     136.364  74.733 222.058 -0.13 -0.03    +0.111 C  
DOCKED: ATOM     11  C   UNL     1     136.328  73.580 221.052 -0.06 -0.01    +0.036 C  
DOCKED: BRANCH  10  12
DOCKED: ATOM     12  C   UNL     1     135.671  74.333 223.352 -0.22 +0.00    -0.007 A  
DOCKED: ATOM     13  C   UNL     1     134.396  73.496 225.734 -0.22 +0.00    +0.120 A  
DOCKED: ATOM     14  C   UNL     1     135.051  72.568 224.922 -0.18 -0.00    +0.047 A  
DOCKED: ATOM     15  C   UNL     1     134.380  74.852 225.356 -0.33 -0.00    +0.067 A  
DOCKED: ATOM     16  C   UNL     1     135.677  72.978 223.747 -0.21 -0.00    +0.011 A  
DOCKED: ATOM     17  C   UNL     1     135.004  75.273 224.176 -0.26 -0.01    +0.049 A  
DOCKED: ATOM     18  Cl  UNL     1     134.918  76.987 223.780 -0.22 +0.01    -0.084 Cl 
DOCKED: BRANCH  13  19
DOCKED: ATOM     19  O   UNL     1     133.775  73.031 226.903 -0.57 -0.05    -0.497 OA 
DOCKED: ATOM     20  C   UNL     1     133.613  71.657 227.240 -0.30 -0.03    +0.278 C  
DOCKED: ENDBRANCH  13  19
DOCKED: ENDBRANCH  10  12
DOCKED: ENDBRANCH   7  10
DOCKED: ENDBRANCH   1   6
DOCKED: BRANCH   5  21
DOCKED: ATOM     21  C   UNL     1     140.281  75.184 220.552 -0.14 -0.05    +0.205 C  
DOCKED: ATOM     22  O   UNL     1     139.544  74.959 219.557 -0.02 +0.07    -0.277 OA 
DOCKED: BRANCH  21  23
DOCKED: ATOM     23  C   UNL     1     141.121  74.081 221.117 -0.28 +0.00    -0.015 C  
DOCKED: BRANCH  23  24
DOCKED: ATOM     24  N   UNL     1     140.518  73.581 222.347 -0.50 -0.02    -0.640 NA 
DOCKED: BRANCH  24  25
DOCKED: ATOM     25  C   UNL     1     139.574  72.505 222.375 -0.24 -0.02    +0.101 C  
DOCKED: ATOM     26  O   UNL     1     138.740  72.376 221.438 -0.07 +0.07    -0.313 OA 
DOCKED: BRANCH  25  27
DOCKED: ATOM     27  C   UNL     1     139.594  71.543 223.490 -0.32 -0.02    +0.088 A  
DOCKED: ATOM     28  C   UNL     1     139.003  70.276 223.368 -0.26 -0.01    +0.031 A  
DOCKED: ATOM     29  N   UNL     1     140.233  71.876 224.644 -0.24 +0.05    -0.246 NA 
DOCKED: ATOM     30  C   UNL     1     139.088  69.366 224.426 -0.34 -0.00    +0.013 A  
DOCKED: ATOM     31  C   UNL     1     140.334  71.013 225.691 -0.52 -0.01    +0.071 A  
DOCKED: ATOM     32  C   UNL     1     139.757  69.726 225.602 -0.45 -0.00    +0.003 A  
DOCKED: ATOM     33  C   UNL     1     141.020  71.390 226.851 -0.70 -0.01    +0.032 A  
DOCKED: ATOM     34  C   UNL     1     139.867  68.834 226.679 -0.54 -0.01    +0.049 A  
DOCKED: ATOM     35  C   UNL     1     141.135  70.490 227.921 -0.56 -0.01    +0.041 A  
DOCKED: ATOM     36  C   UNL     1     140.554  69.219 227.836 -0.52 -0.02    +0.123 A  
DOCKED: ATOM     37  F   UNL     1     140.652  68.359 228.884 -0.18 +0.05    -0.207 F  
DOCKED: ENDBRANCH  25  27
DOCKED: ENDBRANCH  24  25
DOCKED: ENDBRANCH  23  24
DOCKED: ENDBRANCH  21  23
DOCKED: ENDBRANCH   5  21
DOCKED: BRANCH   3  38
DOCKED: ATOM     38  O   UNL     1     142.266  78.662 222.480 -0.21 +0.24    -0.391 OA 
DOCKED: ATOM     39  H   UNL     1     142.982  78.215 221.955 -0.43 -0.24    +0.211 HD 
DOCKED: ENDBRANCH   3  38
DOCKED: TORSDOF 10
DOCKED: TER
DOCKED: ENDMDL
________________________________________________________________________________


    FINAL DOCKED STATE:
    ________________________


Run:   13 / 20
Time taken for this run:   0.069s

DOCKED: MODEL        13
DOCKED: USER    Run = 13
DOCKED: USER
DOCKED: USER    Estimated Free Energy of Binding    =  -8.20 kcal/mol  [=(1)+(2)+(3)-(4)]
DOCKED: USER
DOCKED: USER    (1) Final Intermolecular Energy     = -11.18 kcal/mol
DOCKED: USER        vdW + Hbond + desolv Energy     = -11.12 kcal/mol
DOCKED: USER        Electrostatic Energy            =  -0.06 kcal/mol
DOCKED: USER        Moving Ligand-Fixed Receptor    = -11.18 kcal/mol
DOCKED: USER        Moving Ligand-Moving Receptor   =  +0.00 kcal/mol
DOCKED: USER    (2) Final Total Internal Energy     =  -2.47 kcal/mol
DOCKED: USER    (3) Torsional Free Energy           =  +2.98 kcal/mol
DOCKED: USER    (4) Unbound System's Energy         =  -2.47 kcal/mol
DOCKED: USER
DOCKED: USER
DOCKED: REMARK SMILES COc1ccc([C@H](C)NC(=O)[C@@H]2C[C@@H](O)CN2C(=O)C[N-]C(=O)c2ccc3cc(F)ccc3n2)c(Cl)c1
DOCKED: REMARK SMILES IDX 12 1 13 2 14 3 16 4 17 5 10 6 9 7 11 9 7 10 8 11 6 12 3 13
DOCKED: REMARK SMILES IDX 4 14 37 15 5 16 35 17 36 18 2 19 1 20 18 21 19 22 20 23
DOCKED: REMARK SMILES IDX 21 24 22 25 23 26 24 27 25 28 34 29 26 30 33 31 27 32 32 33
DOCKED: REMARK SMILES IDX 28 34 31 35 29 36 30 37 15 38
DOCKED: REMARK H PARENT 9 8 15 39
DOCKED: USER                              x       y       z     vdW  Elec       q    Type
DOCKED: USER                           _______ _______ _______ _____ _____    ______ ____
DOCKED: ROOT
DOCKED: ATOM      1  C   UNL     1     145.050  70.925 219.526 -0.11 +0.04    +0.177 C  
DOCKED: ATOM      2  C   UNL     1     146.113  69.958 219.001 -0.29 +0.05    +0.069 C  
DOCKED: ATOM      3  C   UNL     1     145.507  68.559 219.148 -0.34 +0.02    +0.136 C  
DOCKED: ATOM      4  C   UNL     1     143.992  68.771 219.191 -0.21 -0.01    +0.152 C  
DOCKED: ATOM      5  N   UNL     1     143.804  70.186 219.452 -0.08 -0.00    -0.329 N  
DOCKED: ENDROOT
DOCKED: BRANCH   1   6
DOCKED: ATOM      6  C   UNL     1     144.977  72.200 218.722 -0.15 +0.07    +0.243 C  
DOCKED: ATOM      7  N   UNL     1     143.809  72.482 217.929 +0.00 +0.02    -0.348 N  
DOCKED: ATOM      8  H   UNL     1     143.002  71.823 217.996 +0.04 -0.02    +0.164 HD 
DOCKED: ATOM      9  O   UNL     1     145.968  72.979 218.695 -0.80 -0.21    -0.273 OA 
DOCKED: BRANCH   7  10
DOCKED: ATOM     10  C   UNL     1     143.756  73.602 216.981 -0.07 -0.02    +0.111 C  
DOCKED: ATOM     11  C   UNL     1     142.792  73.280 215.836 -0.01 -0.01    +0.036 C  
DOCKED: BRANCH  10  12
DOCKED: ATOM     12  C   UNL     1     143.336  74.884 217.686 -0.17 +0.00    -0.007 A  
DOCKED: ATOM     13  C   UNL     1     142.517  77.213 219.068 -0.28 -0.08    +0.120 A  
DOCKED: ATOM     14  C   UNL     1     142.450  75.964 219.689 -0.30 -0.02    +0.047 A  
DOCKED: ATOM     15  C   UNL     1     142.999  77.299 217.747 -0.27 -0.05    +0.067 A  
DOCKED: ATOM     16  C   UNL     1     142.850  74.816 219.009 -0.23 -0.00    +0.011 A  
DOCKED: ATOM     17  C   UNL     1     143.401  76.151 217.056 -0.22 -0.03    +0.049 A  
DOCKED: ATOM     18  Cl  UNL     1     143.976  76.359 215.403 -0.25 +0.06    -0.084 Cl 
DOCKED: BRANCH  13  19
DOCKED: ATOM     19  O   UNL     1     142.096  78.337 219.793 -0.09 +0.34    -0.497 OA 
DOCKED: ATOM     20  C   UNL     1     141.832  79.614 219.221 -0.18 -0.16    +0.278 C  
DOCKED: ENDBRANCH  13  19
DOCKED: ENDBRANCH  10  12
DOCKED: ENDBRANCH   7  10
DOCKED: ENDBRANCH   1   6
DOCKED: BRANCH   5  21
DOCKED: ATOM     21  C   UNL     1     142.531  70.754 219.786 -0.10 -0.02    +0.205 C  
DOCKED: ATOM     22  O   UNL     1     141.547  70.564 219.025 -0.04 +0.04    -0.277 OA 
DOCKED: BRANCH  21  23
DOCKED: ATOM     23  C   UNL     1     142.357  71.554 221.039 -0.12 +0.00    -0.015 C  
DOCKED: BRANCH  23  24
DOCKED: ATOM     24  N   UNL     1     141.036  72.174 221.050 +0.01 +0.08    -0.640 NA 
DOCKED: BRANCH  24  25
DOCKED: ATOM     25  C   UNL     1     140.374  72.583 222.252 -0.28 -0.01    +0.101 C  
DOCKED: ATOM     26  O   UNL     1     139.933  73.760 222.357 -0.82 +0.02    -0.313 OA 
DOCKED: BRANCH  25  27
DOCKED: ATOM     27  C   UNL     1     140.194  71.621 223.352 -0.33 -0.01    +0.088 A  
DOCKED: ATOM     28  C   UNL     1     139.602  70.367 223.134 -0.25 -0.01    +0.031 A  
DOCKED: ATOM     29  N   UNL     1     140.646  71.942 224.594 -0.21 +0.03    -0.246 NA 
DOCKED: ATOM     30  C   UNL     1     139.496  69.457 224.190 -0.30 -0.00    +0.013 A  
DOCKED: ATOM     31  C   UNL     1     140.558  71.077 225.642 -0.53 -0.01    +0.071 A  
DOCKED: ATOM     32  C   UNL     1     139.976  69.803 225.458 -0.45 -0.00    +0.003 A  
DOCKED: ATOM     33  C   UNL     1     141.057  71.440 226.899 -0.71 -0.01    +0.032 A  
DOCKED: ATOM     34  C   UNL     1     139.892  68.910 226.537 -0.52 -0.01    +0.049 A  
DOCKED: ATOM     35  C   UNL     1     140.980  70.539 227.970 -0.62 -0.01    +0.041 A  
DOCKED: ATOM     36  C   UNL     1     140.393  69.281 227.790 -0.52 -0.02    +0.123 A  
DOCKED: ATOM     37  F   UNL     1     140.302  68.420 228.838 -0.18 +0.04    -0.207 F  
DOCKED: ENDBRANCH  25  27
DOCKED: ENDBRANCH  24  25
DOCKED: ENDBRANCH  23  24
DOCKED: ENDBRANCH  21  23
DOCKED: ENDBRANCH   5  21
DOCKED: BRANCH   3  38
DOCKED: ATOM     38  O   UNL     1     145.957  67.978 220.346 -0.83 -0.14    -0.391 OA 
DOCKED: ATOM     39  H   UNL     1     146.314  67.082 220.107 -0.32 -0.03    +0.211 HD 
DOCKED: ENDBRANCH   3  38
DOCKED: TORSDOF 10
DOCKED: TER
DOCKED: ENDMDL
________________________________________________________________________________


    FINAL DOCKED STATE:
    ________________________


Run:   14 / 20
Time taken for this run:   0.069s

DOCKED: MODEL        14
DOCKED: USER    Run = 14
DOCKED: USER
DOCKED: USER    Estimated Free Energy of Binding    =  -8.58 kcal/mol  [=(1)+(2)+(3)-(4)]
DOCKED: USER
DOCKED: USER    (1) Final Intermolecular Energy     = -11.56 kcal/mol
DOCKED: USER        vdW + Hbond + desolv Energy     = -11.55 kcal/mol
DOCKED: USER        Electrostatic Energy            =  -0.01 kcal/mol
DOCKED: USER        Moving Ligand-Fixed Receptor    = -11.56 kcal/mol
DOCKED: USER        Moving Ligand-Moving Receptor   =  +0.00 kcal/mol
DOCKED: USER    (2) Final Total Internal Energy     =  -3.66 kcal/mol
DOCKED: USER    (3) Torsional Free Energy           =  +2.98 kcal/mol
DOCKED: USER    (4) Unbound System's Energy         =  -3.66 kcal/mol
DOCKED: USER
DOCKED: USER
DOCKED: REMARK SMILES COc1ccc([C@H](C)NC(=O)[C@@H]2C[C@@H](O)CN2C(=O)C[N-]C(=O)c2ccc3cc(F)ccc3n2)c(Cl)c1
DOCKED: REMARK SMILES IDX 12 1 13 2 14 3 16 4 17 5 10 6 9 7 11 9 7 10 8 11 6 12 3 13
DOCKED: REMARK SMILES IDX 4 14 37 15 5 16 35 17 36 18 2 19 1 20 18 21 19 22 20 23
DOCKED: REMARK SMILES IDX 21 24 22 25 23 26 24 27 25 28 34 29 26 30 33 31 27 32 32 33
DOCKED: REMARK SMILES IDX 28 34 31 35 29 36 30 37 15 38
DOCKED: REMARK H PARENT 9 8 15 39
DOCKED: USER                              x       y       z     vdW  Elec       q    Type
DOCKED: USER                           _______ _______ _______ _____ _____    ______ ____
DOCKED: ROOT
DOCKED: ATOM      1  C   UNL     1     143.740  73.760 220.297 -0.28 -0.05    +0.177 C  
DOCKED: ATOM      2  C   UNL     1     145.218  74.022 220.003 -0.33 -0.02    +0.069 C  
DOCKED: ATOM      3  C   UNL     1     145.708  72.794 219.229 -0.24 +0.07    +0.136 C  
DOCKED: ATOM      4  C   UNL     1     144.453  72.169 218.616 -0.15 +0.02    +0.152 C  
DOCKED: ATOM      5  N   UNL     1     143.336  72.765 219.323 -0.04 +0.05    -0.329 N  
DOCKED: ENDROOT
DOCKED: BRANCH   1   6
DOCKED: ATOM      6  C   UNL     1     142.897  75.007 220.186 -0.21 -0.11    +0.243 C  
DOCKED: ATOM      7  N   UNL     1     141.468  74.923 220.337 -0.09 +0.10    -0.348 N  
DOCKED: ATOM      8  H   UNL     1     141.058  73.999 220.600 +0.05 -0.03    +0.164 HD 
DOCKED: ATOM      9  O   UNL     1     143.443  76.106 219.895 -0.32 +0.19    -0.273 OA 
DOCKED: BRANCH   7  10
DOCKED: ATOM     10  C   UNL     1     140.580  76.057 220.053 -0.14 -0.04    +0.111 C  
DOCKED: ATOM     11  C   UNL     1     139.121  75.659 220.291 -0.10 -0.01    +0.036 C  
DOCKED: BRANCH  10  12
DOCKED: ATOM     12  C   UNL     1     140.951  77.259 220.909 -0.28 +0.00    -0.007 A  
DOCKED: ATOM     13  C   UNL     1     141.594  79.452 222.577 -0.43 -0.04    +0.120 A  
DOCKED: ATOM     14  C   UNL     1     141.056  78.285 223.123 -0.48 -0.01    +0.047 A  
DOCKED: ATOM     15  C   UNL     1     141.815  79.523 221.188 -0.35 -0.03    +0.067 A  
DOCKED: ATOM     16  C   UNL     1     140.736  77.205 222.303 -0.43 -0.00    +0.011 A  
DOCKED: ATOM     17  C   UNL     1     141.493  78.445 220.356 -0.27 -0.03    +0.049 A  
DOCKED: ATOM     18  Cl  UNL     1     141.793  78.634 218.630 -0.32 +0.05    -0.084 Cl 
DOCKED: BRANCH  13  19
DOCKED: ATOM     19  O   UNL     1     141.893  80.513 223.444 -0.20 +0.11    -0.497 OA 
DOCKED: ATOM     20  C   UNL     1     143.210  80.894 223.829 -0.30 -0.05    +0.278 C  
DOCKED: ENDBRANCH  13  19
DOCKED: ENDBRANCH  10  12
DOCKED: ENDBRANCH   7  10
DOCKED: ENDBRANCH   1   6
DOCKED: BRANCH   5  21
DOCKED: ATOM     21  C   UNL     1     141.991  72.285 219.200 -0.05 -0.03    +0.205 C  
DOCKED: ATOM     22  O   UNL     1     141.295  72.630 218.210 -0.01 +0.05    -0.277 OA 
DOCKED: BRANCH  21  23
DOCKED: ATOM     23  C   UNL     1     141.413  71.362 220.227 -0.14 +0.00    -0.015 C  
DOCKED: BRANCH  23  24
DOCKED: ATOM     24  N   UNL     1     140.228  71.968 220.826 +0.02 +0.10    -0.640 NA 
DOCKED: BRANCH  24  25
DOCKED: ATOM     25  C   UNL     1     140.204  72.486 222.160 -0.27 -0.01    +0.101 C  
DOCKED: ATOM     26  O   UNL     1     140.273  73.731 222.353 -0.80 -0.00    -0.313 OA 
DOCKED: BRANCH  25  27
DOCKED: ATOM     27  C   UNL     1     140.081  71.564 223.302 -0.33 -0.01    +0.088 A  
DOCKED: ATOM     28  C   UNL     1     139.526  70.284 223.147 -0.25 -0.01    +0.031 A  
DOCKED: ATOM     29  N   UNL     1     140.550  71.948 224.519 -0.21 +0.03    -0.246 NA 
DOCKED: ATOM     30  C   UNL     1     139.473  69.414 224.240 -0.31 -0.00    +0.013 A  
DOCKED: ATOM     31  C   UNL     1     140.514  71.124 225.602 -0.53 -0.01    +0.071 A  
DOCKED: ATOM     32  C   UNL     1     139.970  69.825 225.482 -0.45 -0.00    +0.003 A  
DOCKED: ATOM     33  C   UNL     1     141.029  71.553 226.831 -0.72 -0.01    +0.032 A  
DOCKED: ATOM     34  C   UNL     1     139.940  68.974 226.597 -0.52 -0.01    +0.049 A  
DOCKED: ATOM     35  C   UNL     1     141.005  70.693 227.939 -0.64 -0.01    +0.041 A  
DOCKED: ATOM     36  C   UNL     1     140.456  69.410 227.822 -0.52 -0.02    +0.123 A  
DOCKED: ATOM     37  F   UNL     1     140.417  68.590 228.905 -0.17 +0.04    -0.207 F  
DOCKED: ENDBRANCH  25  27
DOCKED: ENDBRANCH  24  25
DOCKED: ENDBRANCH  23  24
DOCKED: ENDBRANCH  21  23
DOCKED: ENDBRANCH   5  21
DOCKED: BRANCH   3  38
DOCKED: ATOM     38  O   UNL     1     146.322  71.894 220.118 -0.36 -0.22    -0.391 OA 
DOCKED: ATOM     39  H   UNL     1     145.782  71.912 220.952 -0.42 -0.07    +0.211 HD 
DOCKED: ENDBRANCH   3  38
DOCKED: TORSDOF 10
DOCKED: TER
DOCKED: ENDMDL
________________________________________________________________________________


    FINAL DOCKED STATE:
    ________________________


Run:   15 / 20
Time taken for this run:   0.069s

DOCKED: MODEL        15
DOCKED: USER    Run = 15
DOCKED: USER
DOCKED: USER    Estimated Free Energy of Binding    =  -7.55 kcal/mol  [=(1)+(2)+(3)-(4)]
DOCKED: USER
DOCKED: USER    (1) Final Intermolecular Energy     = -10.53 kcal/mol
DOCKED: USER        vdW + Hbond + desolv Energy     = -10.65 kcal/mol
DOCKED: USER        Electrostatic Energy            =  +0.11 kcal/mol
DOCKED: USER        Moving Ligand-Fixed Receptor    = -10.53 kcal/mol
DOCKED: USER        Moving Ligand-Moving Receptor   =  +0.00 kcal/mol
DOCKED: USER    (2) Final Total Internal Energy     =  -3.48 kcal/mol
DOCKED: USER    (3) Torsional Free Energy           =  +2.98 kcal/mol
DOCKED: USER    (4) Unbound System's Energy         =  -3.48 kcal/mol
DOCKED: USER
DOCKED: USER
DOCKED: REMARK SMILES COc1ccc([C@H](C)NC(=O)[C@@H]2C[C@@H](O)CN2C(=O)C[N-]C(=O)c2ccc3cc(F)ccc3n2)c(Cl)c1
DOCKED: REMARK SMILES IDX 12 1 13 2 14 3 16 4 17 5 10 6 9 7 11 9 7 10 8 11 6 12 3 13
DOCKED: REMARK SMILES IDX 4 14 37 15 5 16 35 17 36 18 2 19 1 20 18 21 19 22 20 23
DOCKED: REMARK SMILES IDX 21 24 22 25 23 26 24 27 25 28 34 29 26 30 33 31 27 32 32 33
DOCKED: REMARK SMILES IDX 28 34 31 35 29 36 30 37 15 38
DOCKED: REMARK H PARENT 9 8 15 39
DOCKED: USER                              x       y       z     vdW  Elec       q    Type
DOCKED: USER                           _______ _______ _______ _____ _____    ______ ____
DOCKED: ROOT
DOCKED: ATOM      1  C   UNL     1     142.237  74.808 219.967 -0.20 -0.06    +0.177 C  
DOCKED: ATOM      2  C   UNL     1     143.020  74.117 218.849 -0.17 -0.02    +0.069 C  
DOCKED: ATOM      3  C   UNL     1     142.053  73.100 218.236 -0.03 -0.03    +0.136 C  
DOCKED: ATOM      4  C   UNL     1     140.652  73.605 218.587 -0.02 -0.03    +0.152 C  
DOCKED: ATOM      5  N   UNL     1     140.843  74.584 219.640 -0.02 +0.08    -0.329 N  
DOCKED: ENDROOT
DOCKED: BRANCH   1   6
DOCKED: ATOM      6  C   UNL     1     142.546  76.282 220.066 -0.18 -0.15    +0.243 C  
DOCKED: ATOM      7  N   UNL     1     141.702  77.140 220.857 -0.11 +0.20    -0.348 N  
DOCKED: ATOM      8  H   UNL     1     140.935  76.696 221.410 +0.03 -0.06    +0.164 HD 
DOCKED: ATOM      9  O   UNL     1     143.502  76.766 219.401 -0.32 +0.21    -0.273 OA 
DOCKED: BRANCH   7  10
DOCKED: ATOM     10  C   UNL     1     141.834  78.602 220.840 -0.26 -0.07    +0.111 C  
DOCKED: ATOM     11  C   UNL     1     141.509  79.145 219.446 -0.25 -0.02    +0.036 C  
DOCKED: BRANCH  10  12
DOCKED: ATOM     12  C   UNL     1     140.927  79.236 221.884 -0.35 +0.00    -0.007 A  
DOCKED: ATOM     13  C   UNL     1     139.163  80.387 223.773 -0.35 -0.01    +0.120 A  
DOCKED: ATOM     14  C   UNL     1     138.671  79.558 222.762 -0.27 -0.01    +0.047 A  
DOCKED: ATOM     15  C   UNL     1     140.547  80.640 223.842 -0.37 -0.01    +0.067 A  
DOCKED: ATOM     16  C   UNL     1     139.538  78.993 221.830 -0.23 -0.00    +0.011 A  
DOCKED: ATOM     17  C   UNL     1     141.424  80.079 222.908 -0.49 -0.01    +0.049 A  
DOCKED: ATOM     18  Cl  UNL     1     143.136  80.466 223.068 -0.71 +0.02    -0.084 Cl 
DOCKED: BRANCH  13  19
DOCKED: ATOM     19  O   UNL     1     138.249  80.936 224.683 -0.17 +0.04    -0.497 OA 
DOCKED: ATOM     20  C   UNL     1     136.834  80.919 224.516 -0.20 -0.03    +0.278 C  
DOCKED: ENDBRANCH  13  19
DOCKED: ENDBRANCH  10  12
DOCKED: ENDBRANCH   7  10
DOCKED: ENDBRANCH   1   6
DOCKED: BRANCH   5  21
DOCKED: ATOM     21  C   UNL     1     139.758  75.132 220.400 -0.10 -0.05    +0.205 C  
DOCKED: ATOM     22  O   UNL     1     139.262  76.240 220.068 -0.03 +0.07    -0.277 OA 
DOCKED: BRANCH  21  23
DOCKED: ATOM     23  C   UNL     1     139.196  74.390 221.573 -0.25 +0.00    -0.015 C  
DOCKED: BRANCH  23  24
DOCKED: ATOM     24  N   UNL     1     140.277  73.754 222.319 -0.58 -0.01    -0.640 NA 
DOCKED: BRANCH  24  25
DOCKED: ATOM     25  C   UNL     1     140.557  72.352 222.247 -0.27 -0.01    +0.101 C  
DOCKED: ATOM     26  O   UNL     1     141.054  71.862 221.196 -0.12 +0.04    -0.313 OA 
DOCKED: BRANCH  25  27
DOCKED: ATOM     27  C   UNL     1     140.281  71.490 223.409 -0.34 -0.01    +0.088 A  
DOCKED: ATOM     28  C   UNL     1     139.597  70.273 223.266 -0.25 -0.01    +0.031 A  
DOCKED: ATOM     29  N   UNL     1     140.733  71.865 224.636 -0.25 +0.03    -0.246 NA 
DOCKED: ATOM     30  C   UNL     1     139.399  69.453 224.381 -0.33 -0.00    +0.013 A  
DOCKED: ATOM     31  C   UNL     1     140.558  71.088 225.740 -0.54 -0.01    +0.071 A  
DOCKED: ATOM     32  C   UNL     1     139.880  69.853 225.633 -0.46 -0.00    +0.003 A  
DOCKED: ATOM     33  C   UNL     1     141.060  71.503 226.979 -0.72 -0.01    +0.032 A  
DOCKED: ATOM     34  C   UNL     1     139.706  69.050 226.771 -0.52 -0.01    +0.049 A  
DOCKED: ATOM     35  C   UNL     1     140.891  70.691 228.110 -0.61 -0.01    +0.041 A  
DOCKED: ATOM     36  C   UNL     1     140.210  69.471 228.006 -0.52 -0.02    +0.123 A  
DOCKED: ATOM     37  F   UNL     1     140.032  68.699 229.110 -0.13 +0.04    -0.207 F  
DOCKED: ENDBRANCH  25  27
DOCKED: ENDBRANCH  24  25
DOCKED: ENDBRANCH  23  24
DOCKED: ENDBRANCH  21  23
DOCKED: ENDBRANCH   5  21
DOCKED: BRANCH   3  38
DOCKED: ATOM     38  O   UNL     1     142.278  71.836 218.807 -0.00 +0.06    -0.391 OA 
DOCKED: ATOM     39  H   UNL     1     141.803  71.834 219.680 +0.06 -0.03    +0.211 HD 
DOCKED: ENDBRANCH   3  38
DOCKED: TORSDOF 10
DOCKED: TER
DOCKED: ENDMDL
________________________________________________________________________________


    FINAL DOCKED STATE:
    ________________________


Run:   16 / 20
Time taken for this run:   0.069s

DOCKED: MODEL        16
DOCKED: USER    Run = 16
DOCKED: USER
DOCKED: USER    Estimated Free Energy of Binding    =  -7.37 kcal/mol  [=(1)+(2)+(3)-(4)]
DOCKED: USER
DOCKED: USER    (1) Final Intermolecular Energy     = -10.36 kcal/mol
DOCKED: USER        vdW + Hbond + desolv Energy     = -10.34 kcal/mol
DOCKED: USER        Electrostatic Energy            =  -0.01 kcal/mol
DOCKED: USER        Moving Ligand-Fixed Receptor    = -10.36 kcal/mol
DOCKED: USER        Moving Ligand-Moving Receptor   =  +0.00 kcal/mol
DOCKED: USER    (2) Final Total Internal Energy     =  -3.80 kcal/mol
DOCKED: USER    (3) Torsional Free Energy           =  +2.98 kcal/mol
DOCKED: USER    (4) Unbound System's Energy         =  -3.80 kcal/mol
DOCKED: USER
DOCKED: USER
DOCKED: REMARK SMILES COc1ccc([C@H](C)NC(=O)[C@@H]2C[C@@H](O)CN2C(=O)C[N-]C(=O)c2ccc3cc(F)ccc3n2)c(Cl)c1
DOCKED: REMARK SMILES IDX 12 1 13 2 14 3 16 4 17 5 10 6 9 7 11 9 7 10 8 11 6 12 3 13
DOCKED: REMARK SMILES IDX 4 14 37 15 5 16 35 17 36 18 2 19 1 20 18 21 19 22 20 23
DOCKED: REMARK SMILES IDX 21 24 22 25 23 26 24 27 25 28 34 29 26 30 33 31 27 32 32 33
DOCKED: REMARK SMILES IDX 28 34 31 35 29 36 30 37 15 38
DOCKED: REMARK H PARENT 9 8 15 39
DOCKED: USER                              x       y       z     vdW  Elec       q    Type
DOCKED: USER                           _______ _______ _______ _____ _____    ______ ____
DOCKED: ROOT
DOCKED: ATOM      1  C   UNL     1     143.743  73.675 220.190 -0.27 -0.04    +0.177 C  
DOCKED: ATOM      2  C   UNL     1     145.222  73.780 219.814 -0.38 -0.01    +0.069 C  
DOCKED: ATOM      3  C   UNL     1     145.550  72.487 219.061 -0.23 +0.07    +0.136 C  
DOCKED: ATOM      4  C   UNL     1     144.210  71.971 218.532 -0.12 +0.01    +0.152 C  
DOCKED: ATOM      5  N   UNL     1     143.193  72.696 219.272 -0.03 +0.05    -0.329 N  
DOCKED: ENDROOT
DOCKED: BRANCH   1   6
DOCKED: ATOM      6  C   UNL     1     143.020  74.995 220.077 -0.23 -0.11    +0.243 C  
DOCKED: ATOM      7  N   UNL     1     141.670  75.117 220.561 -0.12 +0.12    -0.348 N  
DOCKED: ATOM      8  H   UNL     1     141.251  74.297 221.054 +0.05 -0.03    +0.164 HD 
DOCKED: ATOM      9  O   UNL     1     143.579  75.965 219.497 -0.31 +0.17    -0.273 OA 
DOCKED: BRANCH   7  10
DOCKED: ATOM     10  C   UNL     1     140.851  76.309 220.309 -0.18 -0.04    +0.111 C  
DOCKED: ATOM     11  C   UNL     1     140.455  76.376 218.832 -0.08 -0.01    +0.036 C  
DOCKED: BRANCH  10  12
DOCKED: ATOM     12  C   UNL     1     139.612  76.308 221.193 -0.23 +0.00    -0.007 A  
DOCKED: ATOM     13  C   UNL     1     137.263  76.249 222.769 -0.23 -0.03    +0.120 A  
DOCKED: ATOM     14  C   UNL     1     137.388  75.410 221.659 -0.16 -0.01    +0.047 A  
DOCKED: ATOM     15  C   UNL     1     138.320  77.121 223.095 -0.12 -0.01    +0.067 A  
DOCKED: ATOM     16  C   UNL     1     138.543  75.440 220.880 -0.13 -0.00    +0.011 A  
DOCKED: ATOM     17  C   UNL     1     139.482  77.159 222.317 -0.32 -0.01    +0.049 A  
DOCKED: ATOM     18  Cl  UNL     1     140.742  78.293 222.797 -0.56 +0.02    -0.084 Cl 
DOCKED: BRANCH  13  19
DOCKED: ATOM     19  O   UNL     1     136.078  76.185 223.516 -0.12 +0.10    -0.497 OA 
DOCKED: ATOM     20  C   UNL     1     135.051  77.171 223.486 -0.10 -0.04    +0.278 C  
DOCKED: ENDBRANCH  13  19
DOCKED: ENDBRANCH  10  12
DOCKED: ENDBRANCH   7  10
DOCKED: ENDBRANCH   1   6
DOCKED: BRANCH   5  21
DOCKED: ATOM     21  C   UNL     1     141.804  72.346 219.232 -0.05 -0.03    +0.205 C  
DOCKED: ATOM     22  O   UNL     1     141.128  72.603 218.202 -0.00 +0.05    -0.277 OA 
DOCKED: BRANCH  21  23
DOCKED: ATOM     23  C   UNL     1     141.154  71.663 220.395 -0.15 +0.00    -0.015 C  
DOCKED: BRANCH  23  24
DOCKED: ATOM     24  N   UNL     1     141.504  72.353 221.632 +0.02 +0.05    -0.640 NA 
DOCKED: BRANCH  24  25
DOCKED: ATOM     25  C   UNL     1     140.556  72.631 222.668 -0.19 -0.00    +0.101 C  
DOCKED: ATOM     26  O   UNL     1     139.920  73.720 222.663 -0.72 +0.00    -0.313 OA 
DOCKED: BRANCH  25  27
DOCKED: ATOM     27  C   UNL     1     140.314  71.635 223.725 -0.36 -0.01    +0.088 A  
DOCKED: ATOM     28  C   UNL     1     139.708  70.402 223.439 -0.27 -0.01    +0.031 A  
DOCKED: ATOM     29  N   UNL     1     140.721  71.903 224.995 -0.26 +0.03    -0.246 NA 
DOCKED: ATOM     30  C   UNL     1     139.543  69.458 224.456 -0.34 -0.00    +0.013 A  
DOCKED: ATOM     31  C   UNL     1     140.576  71.005 226.007 -0.55 -0.01    +0.071 A  
DOCKED: ATOM     32  C   UNL     1     139.977  69.749 225.755 -0.47 -0.00    +0.003 A  
DOCKED: ATOM     33  C   UNL     1     141.030  71.313 227.294 -0.72 -0.01    +0.032 A  
DOCKED: ATOM     34  C   UNL     1     139.834  68.821 226.797 -0.54 -0.01    +0.049 A  
DOCKED: ATOM     35  C   UNL     1     140.893  70.377 228.329 -0.53 -0.01    +0.041 A  
DOCKED: ATOM     36  C   UNL     1     140.291  69.138 228.081 -0.53 -0.02    +0.123 A  
DOCKED: ATOM     37  F   UNL     1     140.142  68.243 229.093 -0.14 +0.04    -0.207 F  
DOCKED: ENDBRANCH  25  27
DOCKED: ENDBRANCH  24  25
DOCKED: ENDBRANCH  23  24
DOCKED: ENDBRANCH  21  23
DOCKED: ENDBRANCH   5  21
DOCKED: BRANCH   3  38
DOCKED: ATOM     38  O   UNL     1     146.119  71.559 219.949 -0.25 -0.21    -0.391 OA 
DOCKED: ATOM     39  H   UNL     1     145.654  71.681 220.818 -0.39 -0.07    +0.211 HD 
DOCKED: ENDBRANCH   3  38
DOCKED: TORSDOF 10
DOCKED: TER
DOCKED: ENDMDL
________________________________________________________________________________


    FINAL DOCKED STATE:
    ________________________


Run:   17 / 20
Time taken for this run:   0.069s

DOCKED: MODEL        17
DOCKED: USER    Run = 17
DOCKED: USER
DOCKED: USER    Estimated Free Energy of Binding    =  -7.17 kcal/mol  [=(1)+(2)+(3)-(4)]
DOCKED: USER
DOCKED: USER    (1) Final Intermolecular Energy     = -10.15 kcal/mol
DOCKED: USER        vdW + Hbond + desolv Energy     = -10.26 kcal/mol
DOCKED: USER        Electrostatic Energy            =  +0.11 kcal/mol
DOCKED: USER        Moving Ligand-Fixed Receptor    = -10.15 kcal/mol
DOCKED: USER        Moving Ligand-Moving Receptor   =  +0.00 kcal/mol
DOCKED: USER    (2) Final Total Internal Energy     =  -2.73 kcal/mol
DOCKED: USER    (3) Torsional Free Energy           =  +2.98 kcal/mol
DOCKED: USER    (4) Unbound System's Energy         =  -2.73 kcal/mol
DOCKED: USER
DOCKED: USER
DOCKED: REMARK SMILES COc1ccc([C@H](C)NC(=O)[C@@H]2C[C@@H](O)CN2C(=O)C[N-]C(=O)c2ccc3cc(F)ccc3n2)c(Cl)c1
DOCKED: REMARK SMILES IDX 12 1 13 2 14 3 16 4 17 5 10 6 9 7 11 9 7 10 8 11 6 12 3 13
DOCKED: REMARK SMILES IDX 4 14 37 15 5 16 35 17 36 18 2 19 1 20 18 21 19 22 20 23
DOCKED: REMARK SMILES IDX 21 24 22 25 23 26 24 27 25 28 34 29 26 30 33 31 27 32 32 33
DOCKED: REMARK SMILES IDX 28 34 31 35 29 36 30 37 15 38
DOCKED: REMARK H PARENT 9 8 15 39
DOCKED: USER                              x       y       z     vdW  Elec       q    Type
DOCKED: USER                           _______ _______ _______ _____ _____    ______ ____
DOCKED: ROOT
DOCKED: ATOM      1  C   UNL     1     140.488  74.475 219.495 -0.06 -0.04    +0.177 C  
DOCKED: ATOM      2  C   UNL     1     140.727  74.411 217.985 -0.03 -0.02    +0.069 C  
DOCKED: ATOM      3  C   UNL     1     139.361  74.104 217.363 -0.00 -0.03    +0.136 C  
DOCKED: ATOM      4  C   UNL     1     138.329  74.557 218.398 -0.01 -0.03    +0.152 C  
DOCKED: ATOM      5  N   UNL     1     139.066  74.722 219.637 -0.00 +0.07    -0.329 N  
DOCKED: ENDROOT
DOCKED: BRANCH   1   6
DOCKED: ATOM      6  C   UNL     1     141.300  75.555 220.166 -0.14 -0.08    +0.243 C  
DOCKED: ATOM      7  N   UNL     1     140.651  76.750 220.640 -0.07 +0.13    -0.348 N  
DOCKED: ATOM      8  H   UNL     1     139.610  76.799 220.575 +0.05 -0.04    +0.164 HD 
DOCKED: ATOM      9  O   UNL     1     142.553  75.436 220.246 -0.22 +0.13    -0.273 OA 
DOCKED: BRANCH   7  10
DOCKED: ATOM     10  C   UNL     1     141.405  77.912 221.125 -0.29 -0.06    +0.111 C  
DOCKED: ATOM     11  C   UNL     1     141.822  78.800 219.949 -0.27 -0.02    +0.036 C  
DOCKED: BRANCH  10  12
DOCKED: ATOM     12  C   UNL     1     140.583  78.708 222.128 -0.35 +0.00    -0.007 A  
DOCKED: ATOM     13  C   UNL     1     138.971  80.149 223.953 -0.34 -0.01    +0.120 A  
DOCKED: ATOM     14  C   UNL     1     138.410  79.152 223.152 -0.28 -0.01    +0.047 A  
DOCKED: ATOM     15  C   UNL     1     140.348  80.426 223.843 -0.37 -0.01    +0.067 A  
DOCKED: ATOM     16  C   UNL     1     139.202  78.443 222.251 -0.27 -0.00    +0.011 A  
DOCKED: ATOM     17  C   UNL     1     141.150  79.721 222.938 -0.46 -0.01    +0.049 A  
DOCKED: ATOM     18  Cl  UNL     1     142.857  80.150 222.864 -0.77 +0.03    -0.084 Cl 
DOCKED: BRANCH  13  19
DOCKED: ATOM     19  O   UNL     1     138.131  80.837 224.840 -0.18 +0.04    -0.497 OA 
DOCKED: ATOM     20  C   UNL     1     136.723  80.977 224.674 -0.20 -0.03    +0.278 C  
DOCKED: ENDBRANCH  13  19
DOCKED: ENDBRANCH  10  12
DOCKED: ENDBRANCH   7  10
DOCKED: ENDBRANCH   1   6
DOCKED: BRANCH   5  21
DOCKED: ATOM     21  C   UNL     1     138.425  74.925 220.903 -0.10 -0.05    +0.205 C  
DOCKED: ATOM     22  O   UNL     1     137.746  75.967 221.096 -0.06 +0.06    -0.277 OA 
DOCKED: BRANCH  21  23
DOCKED: ATOM     23  C   UNL     1     138.539  73.901 221.989 -0.14 +0.00    -0.015 C  
DOCKED: BRANCH  23  24
DOCKED: ATOM     24  N   UNL     1     139.937  73.740 222.373 -0.60 +0.04    -0.640 NA 
DOCKED: BRANCH  24  25
DOCKED: ATOM     25  C   UNL     1     140.585  72.467 222.452 -0.25 -0.01    +0.101 C  
DOCKED: ATOM     26  O   UNL     1     141.420  72.129 221.568 -0.17 +0.03    -0.313 OA 
DOCKED: BRANCH  25  27
DOCKED: ATOM     27  C   UNL     1     140.289  71.563 223.576 -0.35 -0.01    +0.088 A  
DOCKED: ATOM     28  C   UNL     1     139.591  70.362 223.380 -0.28 -0.01    +0.031 A  
DOCKED: ATOM     29  N   UNL     1     140.736  71.883 224.821 -0.26 +0.03    -0.246 NA 
DOCKED: ATOM     30  C   UNL     1     139.374  69.501 224.460 -0.34 -0.00    +0.013 A  
DOCKED: ATOM     31  C   UNL     1     140.542  71.066 225.892 -0.54 -0.01    +0.071 A  
DOCKED: ATOM     32  C   UNL     1     139.850  69.845 225.731 -0.47 -0.00    +0.003 A  
DOCKED: ATOM     33  C   UNL     1     141.040  71.424 227.150 -0.72 -0.01    +0.032 A  
DOCKED: ATOM     34  C   UNL     1     139.657  69.000 226.834 -0.52 -0.01    +0.049 A  
DOCKED: ATOM     35  C   UNL     1     140.851  70.571 228.247 -0.57 -0.01    +0.041 A  
DOCKED: ATOM     36  C   UNL     1     140.156  69.366 228.089 -0.52 -0.02    +0.123 A  
DOCKED: ATOM     37  F   UNL     1     139.959  68.553 229.161 -0.12 +0.04    -0.207 F  
DOCKED: ENDBRANCH  25  27
DOCKED: ENDBRANCH  24  25
DOCKED: ENDBRANCH  23  24
DOCKED: ENDBRANCH  21  23
DOCKED: ENDBRANCH   5  21
DOCKED: BRANCH   3  38
DOCKED: ATOM     38  O   UNL     1     139.252  72.722 217.132 +0.00 +0.08    -0.391 OA 
DOCKED: ATOM     39  H   UNL     1     139.067  72.304 218.015 +0.01 -0.04    +0.211 HD 
DOCKED: ENDBRANCH   3  38
DOCKED: TORSDOF 10
DOCKED: TER
DOCKED: ENDMDL
________________________________________________________________________________


    FINAL DOCKED STATE:
    ________________________


Run:   18 / 20
Time taken for this run:   0.069s

DOCKED: MODEL        18
DOCKED: USER    Run = 18
DOCKED: USER
DOCKED: USER    Estimated Free Energy of Binding    =  -8.93 kcal/mol  [=(1)+(2)+(3)-(4)]
DOCKED: USER
DOCKED: USER    (1) Final Intermolecular Energy     = -11.91 kcal/mol
DOCKED: USER        vdW + Hbond + desolv Energy     = -11.74 kcal/mol
DOCKED: USER        Electrostatic Energy            =  -0.17 kcal/mol
DOCKED: USER        Moving Ligand-Fixed Receptor    = -11.91 kcal/mol
DOCKED: USER        Moving Ligand-Moving Receptor   =  +0.00 kcal/mol
DOCKED: USER    (2) Final Total Internal Energy     =  -3.28 kcal/mol
DOCKED: USER    (3) Torsional Free Energy           =  +2.98 kcal/mol
DOCKED: USER    (4) Unbound System's Energy         =  -3.28 kcal/mol
DOCKED: USER
DOCKED: USER
DOCKED: REMARK SMILES COc1ccc([C@H](C)NC(=O)[C@@H]2C[C@@H](O)CN2C(=O)C[N-]C(=O)c2ccc3cc(F)ccc3n2)c(Cl)c1
DOCKED: REMARK SMILES IDX 12 1 13 2 14 3 16 4 17 5 10 6 9 7 11 9 7 10 8 11 6 12 3 13
DOCKED: REMARK SMILES IDX 4 14 37 15 5 16 35 17 36 18 2 19 1 20 18 21 19 22 20 23
DOCKED: REMARK SMILES IDX 21 24 22 25 23 26 24 27 25 28 34 29 26 30 33 31 27 32 32 33
DOCKED: REMARK SMILES IDX 28 34 31 35 29 36 30 37 15 38
DOCKED: REMARK H PARENT 9 8 15 39
DOCKED: USER                              x       y       z     vdW  Elec       q    Type
DOCKED: USER                           _______ _______ _______ _____ _____    ______ ____
DOCKED: ROOT
DOCKED: ATOM      1  C   UNL     1     139.897  77.046 222.368 -0.28 -0.04    +0.177 C  
DOCKED: ATOM      2  C   UNL     1     140.138  78.544 222.564 -0.35 -0.02    +0.069 C  
DOCKED: ATOM      3  C   UNL     1     141.426  78.859 221.797 -0.34 -0.06    +0.136 C  
DOCKED: ATOM      4  C   UNL     1     141.564  77.746 220.756 -0.24 -0.08    +0.152 C  
DOCKED: ATOM      5  N   UNL     1     140.656  76.698 221.182 -0.13 +0.12    -0.329 N  
DOCKED: ENDROOT
DOCKED: BRANCH   1   6
DOCKED: ATOM      6  C   UNL     1     138.436  76.710 222.199 -0.20 -0.05    +0.243 C  
DOCKED: ATOM      7  N   UNL     1     137.983  75.358 222.395 -0.11 +0.10    -0.348 N  
DOCKED: ATOM      8  H   UNL     1     138.678  74.653 222.729 -0.52 -0.07    +0.164 HD 
DOCKED: ATOM      9  O   UNL     1     137.629  77.603 221.821 -0.09 +0.05    -0.273 OA 
DOCKED: BRANCH   7  10
DOCKED: ATOM     10  C   UNL     1     136.618  74.931 222.061 -0.14 -0.03    +0.111 C  
DOCKED: ATOM     11  C   UNL     1     136.657  73.681 221.179 -0.08 -0.01    +0.036 C  
DOCKED: BRANCH  10  12
DOCKED: ATOM     12  C   UNL     1     135.813  74.667 223.325 -0.23 +0.00    -0.007 A  
DOCKED: ATOM     13  C   UNL     1     134.324  74.079 225.658 -0.29 +0.00    +0.120 A  
DOCKED: ATOM     14  C   UNL     1     134.993  73.062 224.973 -0.21 -0.00    +0.047 A  
DOCKED: ATOM     15  C   UNL     1     134.402  75.400 225.174 -0.31 -0.01    +0.067 A  
DOCKED: ATOM     16  C   UNL     1     135.724  73.349 223.823 -0.20 -0.00    +0.011 A  
DOCKED: ATOM     17  C   UNL     1     135.131  75.697 224.018 -0.25 -0.01    +0.049 A  
DOCKED: ATOM     18  Cl  UNL     1     135.158  77.376 223.484 -0.20 +0.01    -0.084 Cl 
DOCKED: BRANCH  13  19
DOCKED: ATOM     19  O   UNL     1     133.597  73.737 226.807 -0.73 -0.08    -0.497 OA 
DOCKED: ATOM     20  C   UNL     1     132.282  74.201 227.098 -0.26 -0.01    +0.278 C  
DOCKED: ENDBRANCH  13  19
DOCKED: ENDBRANCH  10  12
DOCKED: ENDBRANCH   7  10
DOCKED: ENDBRANCH   1   6
DOCKED: BRANCH   5  21
DOCKED: ATOM     21  C   UNL     1     140.649  75.389 220.598 -0.16 -0.06    +0.205 C  
DOCKED: ATOM     22  O   UNL     1     140.038  75.194 219.516 -0.03 +0.07    -0.277 OA 
DOCKED: BRANCH  21  23
DOCKED: ATOM     23  C   UNL     1     141.377  74.257 221.254 -0.27 +0.00    -0.015 C  
DOCKED: BRANCH  23  24
DOCKED: ATOM     24  N   UNL     1     140.567  73.708 222.336 -0.49 -0.04    -0.640 NA 
DOCKED: BRANCH  24  25
DOCKED: ATOM     25  C   UNL     1     139.856  72.470 222.231 -0.26 -0.02    +0.101 C  
DOCKED: ATOM     26  O   UNL     1     139.346  72.129 221.129 -0.06 +0.06    -0.313 OA 
DOCKED: BRANCH  25  27
DOCKED: ATOM     27  C   UNL     1     139.741  71.591 223.406 -0.32 -0.02    +0.088 A  
DOCKED: ATOM     28  C   UNL     1     139.012  70.392 223.350 -0.26 -0.01    +0.031 A  
DOCKED: ATOM     29  N   UNL     1     140.385  71.930 224.555 -0.23 +0.04    -0.246 NA 
DOCKED: ATOM     30  C   UNL     1     138.968  69.554 224.468 -0.34 -0.00    +0.013 A  
DOCKED: ATOM     31  C   UNL     1     140.362  71.135 225.660 -0.52 -0.01    +0.071 A  
DOCKED: ATOM     32  C   UNL     1     139.646  69.917 225.638 -0.45 -0.00    +0.003 A  
DOCKED: ATOM     33  C   UNL     1     141.059  71.512 226.814 -0.71 -0.01    +0.032 A  
DOCKED: ATOM     34  C   UNL     1     139.629  69.095 226.774 -0.51 -0.01    +0.049 A  
DOCKED: ATOM     35  C   UNL     1     141.046  70.681 227.943 -0.63 -0.01    +0.041 A  
DOCKED: ATOM     36  C   UNL     1     140.327  69.480 227.924 -0.52 -0.02    +0.123 A  
DOCKED: ATOM     37  F   UNL     1     140.301  68.689 229.029 -0.15 +0.04    -0.207 F  
DOCKED: ENDBRANCH  25  27
DOCKED: ENDBRANCH  24  25
DOCKED: ENDBRANCH  23  24
DOCKED: ENDBRANCH  21  23
DOCKED: ENDBRANCH   5  21
DOCKED: BRANCH   3  38
DOCKED: ATOM     38  O   UNL     1     142.516  78.842 222.684 -0.21 +0.23    -0.391 OA 
DOCKED: ATOM     39  H   UNL     1     143.211  78.269 222.263 -0.42 -0.25    +0.211 HD 
DOCKED: ENDBRANCH   3  38
DOCKED: TORSDOF 10
DOCKED: TER
DOCKED: ENDMDL
________________________________________________________________________________


    FINAL DOCKED STATE:
    ________________________


Run:   19 / 20
Time taken for this run:   0.069s

DOCKED: MODEL        19
DOCKED: USER    Run = 19
DOCKED: USER
DOCKED: USER    Estimated Free Energy of Binding    =  -5.81 kcal/mol  [=(1)+(2)+(3)-(4)]
DOCKED: USER
DOCKED: USER    (1) Final Intermolecular Energy     =  -8.79 kcal/mol
DOCKED: USER        vdW + Hbond + desolv Energy     =  -8.85 kcal/mol
DOCKED: USER        Electrostatic Energy            =  +0.06 kcal/mol
DOCKED: USER        Moving Ligand-Fixed Receptor    =  -8.79 kcal/mol
DOCKED: USER        Moving Ligand-Moving Receptor   =  +0.00 kcal/mol
DOCKED: USER    (2) Final Total Internal Energy     =  -5.54 kcal/mol
DOCKED: USER    (3) Torsional Free Energy           =  +2.98 kcal/mol
DOCKED: USER    (4) Unbound System's Energy         =  -5.54 kcal/mol
DOCKED: USER
DOCKED: USER
DOCKED: REMARK SMILES COc1ccc([C@H](C)NC(=O)[C@@H]2C[C@@H](O)CN2C(=O)C[N-]C(=O)c2ccc3cc(F)ccc3n2)c(Cl)c1
DOCKED: REMARK SMILES IDX 12 1 13 2 14 3 16 4 17 5 10 6 9 7 11 9 7 10 8 11 6 12 3 13
DOCKED: REMARK SMILES IDX 4 14 37 15 5 16 35 17 36 18 2 19 1 20 18 21 19 22 20 23
DOCKED: REMARK SMILES IDX 21 24 22 25 23 26 24 27 25 28 34 29 26 30 33 31 27 32 32 33
DOCKED: REMARK SMILES IDX 28 34 31 35 29 36 30 37 15 38
DOCKED: REMARK H PARENT 9 8 15 39
DOCKED: USER                              x       y       z     vdW  Elec       q    Type
DOCKED: USER                           _______ _______ _______ _____ _____    ______ ____
DOCKED: ROOT
DOCKED: ATOM      1  C   UNL     1     143.331  74.683 220.448 -0.24 -0.07    +0.177 C  
DOCKED: ATOM      2  C   UNL     1     144.857  74.632 220.350 -0.28 -0.03    +0.069 C  
DOCKED: ATOM      3  C   UNL     1     145.239  73.170 220.607 -0.48 -0.02    +0.136 C  
DOCKED: ATOM      4  C   UNL     1     143.985  72.357 220.277 -0.26 -0.02    +0.152 C  
DOCKED: ATOM      5  N   UNL     1     142.897  73.316 220.235 -0.10 +0.07    -0.329 N  
DOCKED: ENDROOT
DOCKED: BRANCH   1   6
DOCKED: ATOM      6  C   UNL     1     142.715  75.615 219.434 -0.21 -0.12    +0.243 C  
DOCKED: ATOM      7  N   UNL     1     141.386  76.127 219.644 -0.06 +0.14    -0.348 N  
DOCKED: ATOM      8  H   UNL     1     140.910  75.895 220.545 +0.05 -0.06    +0.164 HD 
DOCKED: ATOM      9  O   UNL     1     143.342  75.888 218.374 -0.19 +0.15    -0.273 OA 
DOCKED: BRANCH   7  10
DOCKED: ATOM     10  C   UNL     1     140.662  76.879 218.612 -0.07 -0.04    +0.111 C  
DOCKED: ATOM     11  C   UNL     1     139.307  76.223 218.333 -0.02 -0.01    +0.036 C  
DOCKED: BRANCH  10  12
DOCKED: ATOM     12  C   UNL     1     140.475  78.329 219.033 -0.11 +0.00    -0.007 A  
DOCKED: ATOM     13  C   UNL     1     140.035  81.005 219.839 -0.10 -0.03    +0.120 A  
DOCKED: ATOM     14  C   UNL     1     139.080  80.022 220.107 -0.07 -0.01    +0.047 A  
DOCKED: ATOM     15  C   UNL     1     141.219  80.648 219.166 -0.21 -0.03    +0.067 A  
DOCKED: ATOM     16  C   UNL     1     139.294  78.704 219.708 -0.07 -0.00    +0.011 A  
DOCKED: ATOM     17  C   UNL     1     141.441  79.328 218.759 -0.21 -0.03    +0.049 A  
DOCKED: ATOM     18  Cl  UNL     1     142.947  78.982 217.911 -0.22 +0.09    -0.084 Cl 
DOCKED: BRANCH  13  19
DOCKED: ATOM     19  O   UNL     1     139.769  82.317 220.255 -0.03 +0.11    -0.497 OA 
DOCKED: ATOM     20  C   UNL     1     140.745  83.210 220.785 -0.17 -0.05    +0.278 C  
DOCKED: ENDBRANCH  13  19
DOCKED: ENDBRANCH  10  12
DOCKED: ENDBRANCH   7  10
DOCKED: ENDBRANCH   1   6
DOCKED: BRANCH   5  21
DOCKED: ATOM     21  C   UNL     1     141.519  72.927 220.174 -0.11 -0.04    +0.205 C  
DOCKED: ATOM     22  O   UNL     1     141.033  72.526 219.085 -0.02 +0.05    -0.277 OA 
DOCKED: BRANCH  21  23
DOCKED: ATOM     23  C   UNL     1     140.657  72.976 221.397 -0.27 +0.00    -0.015 C  
DOCKED: BRANCH  23  24
DOCKED: ATOM     24  N   UNL     1     140.708  74.311 221.984 -0.51 +0.02    -0.640 NA 
DOCKED: BRANCH  24  25
DOCKED: ATOM     25  C   UNL     1     139.583  75.195 222.016 -0.25 -0.02    +0.101 C  
DOCKED: ATOM     26  O   UNL     1     138.427  74.753 221.767 -0.16 +0.08    -0.313 OA 
DOCKED: BRANCH  25  27
DOCKED: ATOM     27  C   UNL     1     139.777  76.615 222.356 -0.33 -0.02    +0.088 A  
DOCKED: ATOM     28  C   UNL     1     138.714  77.403 222.824 -0.23 -0.01    +0.031 A  
DOCKED: ATOM     29  N   UNL     1     141.019  77.159 222.251 -0.26 +0.10    -0.246 NA 
DOCKED: ATOM     30  C   UNL     1     138.945  78.732 223.190 -0.30 -0.00    +0.013 A  
DOCKED: ATOM     31  C   UNL     1     141.276  78.449 222.600 -0.44 -0.03    +0.071 A  
DOCKED: ATOM     32  C   UNL     1     140.233  79.271 223.083 -0.43 -0.00    +0.003 A  
DOCKED: ATOM     33  C   UNL     1     142.575  78.961 222.498 -0.31 -0.02    +0.032 A  
DOCKED: ATOM     34  C   UNL     1     140.500  80.598 223.450 -0.43 -0.01    +0.049 A  
DOCKED: ATOM     35  C   UNL     1     142.838  80.286 222.875 -0.61 -0.01    +0.041 A  
DOCKED: ATOM     36  C   UNL     1     141.801  81.102 223.343 -0.49 -0.02    +0.123 A  
DOCKED: ATOM     37  F   UNL     1     142.058  82.392 223.687 +0.09 +0.00    -0.207 F  
DOCKED: ENDBRANCH  25  27
DOCKED: ENDBRANCH  24  25
DOCKED: ENDBRANCH  23  24
DOCKED: ENDBRANCH  21  23
DOCKED: ENDBRANCH   5  21
DOCKED: BRANCH   3  38
DOCKED: ATOM     38  O   UNL     1     145.589  73.008 221.958 -0.30 +0.12    -0.391 OA 
DOCKED: ATOM     39  H   UNL     1     145.625  72.029 222.123 -0.42 -0.18    +0.211 HD 
DOCKED: ENDBRANCH   3  38
DOCKED: TORSDOF 10
DOCKED: TER
DOCKED: ENDMDL
________________________________________________________________________________


    FINAL DOCKED STATE:
    ________________________


Run:   20 / 20
Time taken for this run:   0.069s

DOCKED: MODEL        20
DOCKED: USER    Run = 20
DOCKED: USER
DOCKED: USER    Estimated Free Energy of Binding    =  -8.93 kcal/mol  [=(1)+(2)+(3)-(4)]
DOCKED: USER
DOCKED: USER    (1) Final Intermolecular Energy     = -11.91 kcal/mol
DOCKED: USER        vdW + Hbond + desolv Energy     = -11.76 kcal/mol
DOCKED: USER        Electrostatic Energy            =  -0.16 kcal/mol
DOCKED: USER        Moving Ligand-Fixed Receptor    = -11.91 kcal/mol
DOCKED: USER        Moving Ligand-Moving Receptor   =  +0.00 kcal/mol
DOCKED: USER    (2) Final Total Internal Energy     =  -3.30 kcal/mol
DOCKED: USER    (3) Torsional Free Energy           =  +2.98 kcal/mol
DOCKED: USER    (4) Unbound System's Energy         =  -3.30 kcal/mol
DOCKED: USER
DOCKED: USER
DOCKED: REMARK SMILES COc1ccc([C@H](C)NC(=O)[C@@H]2C[C@@H](O)CN2C(=O)C[N-]C(=O)c2ccc3cc(F)ccc3n2)c(Cl)c1
DOCKED: REMARK SMILES IDX 12 1 13 2 14 3 16 4 17 5 10 6 9 7 11 9 7 10 8 11 6 12 3 13
DOCKED: REMARK SMILES IDX 4 14 37 15 5 16 35 17 36 18 2 19 1 20 18 21 19 22 20 23
DOCKED: REMARK SMILES IDX 21 24 22 25 23 26 24 27 25 28 34 29 26 30 33 31 27 32 32 33
DOCKED: REMARK SMILES IDX 28 34 31 35 29 36 30 37 15 38
DOCKED: REMARK H PARENT 9 8 15 39
DOCKED: USER                              x       y       z     vdW  Elec       q    Type
DOCKED: USER                           _______ _______ _______ _____ _____    ______ ____
DOCKED: ROOT
DOCKED: ATOM      1  C   UNL     1     139.874  77.016 222.423 -0.25 -0.04    +0.177 C  
DOCKED: ATOM      2  C   UNL     1     140.107  78.512 222.643 -0.36 -0.02    +0.069 C  
DOCKED: ATOM      3  C   UNL     1     141.394  78.846 221.883 -0.35 -0.06    +0.136 C  
DOCKED: ATOM      4  C   UNL     1     141.540  77.750 220.825 -0.25 -0.08    +0.152 C  
DOCKED: ATOM      5  N   UNL     1     140.637  76.691 221.233 -0.13 +0.11    -0.329 N  
DOCKED: ENDROOT
DOCKED: BRANCH   1   6
DOCKED: ATOM      6  C   UNL     1     138.415  76.675 222.246 -0.20 -0.05    +0.243 C  
DOCKED: ATOM      7  N   UNL     1     137.966  75.320 222.436 -0.09 +0.11    -0.348 N  
DOCKED: ATOM      8  H   UNL     1     138.663  74.617 222.772 -0.53 -0.07    +0.164 HD 
DOCKED: ATOM      9  O   UNL     1     137.607  77.565 221.866 -0.10 +0.05    -0.273 OA 
DOCKED: BRANCH   7  10
DOCKED: ATOM     10  C   UNL     1     136.605  74.889 222.095 -0.14 -0.03    +0.111 C  
DOCKED: ATOM     11  C   UNL     1     136.653  73.654 221.191 -0.08 -0.01    +0.036 C  
DOCKED: BRANCH  10  12
DOCKED: ATOM     12  C   UNL     1     135.802  74.596 223.354 -0.23 +0.00    -0.007 A  
DOCKED: ATOM     13  C   UNL     1     134.318  73.955 225.676 -0.28 +0.00    +0.120 A  
DOCKED: ATOM     14  C   UNL     1     135.003  72.957 224.979 -0.20 -0.00    +0.047 A  
DOCKED: ATOM     15  C   UNL     1     134.377  75.283 225.211 -0.31 -0.00    +0.067 A  
DOCKED: ATOM     16  C   UNL     1     135.732  73.270 223.834 -0.20 -0.00    +0.011 A  
DOCKED: ATOM     17  C   UNL     1     135.104  75.606 224.059 -0.26 -0.01    +0.049 A  
DOCKED: ATOM     18  Cl  UNL     1     135.107  77.292 223.548 -0.20 +0.01    -0.084 Cl 
DOCKED: BRANCH  13  19
DOCKED: ATOM     19  O   UNL     1     133.594  73.587 226.819 -0.71 -0.07    -0.497 OA 
DOCKED: ATOM     20  C   UNL     1     132.235  73.163 226.811 -0.25 -0.03    +0.278 C  
DOCKED: ENDBRANCH  13  19
DOCKED: ENDBRANCH  10  12
DOCKED: ENDBRANCH   7  10
DOCKED: ENDBRANCH   1   6
DOCKED: BRANCH   5  21
DOCKED: ATOM     21  C   UNL     1     140.639  75.391 220.629 -0.17 -0.06    +0.205 C  
DOCKED: ATOM     22  O   UNL     1     140.103  75.228 219.502 -0.03 +0.07    -0.277 OA 
DOCKED: BRANCH  21  23
DOCKED: ATOM     23  C   UNL     1     141.287  74.230 221.317 -0.26 +0.00    -0.015 C  
DOCKED: BRANCH  23  24
DOCKED: ATOM     24  N   UNL     1     140.394  73.701 222.342 -0.55 -0.02    -0.640 NA 
DOCKED: BRANCH  24  25
DOCKED: ATOM     25  C   UNL     1     139.765  72.419 222.246 -0.26 -0.02    +0.101 C  
DOCKED: ATOM     26  O   UNL     1     139.312  72.021 221.138 -0.06 +0.06    -0.313 OA 
DOCKED: BRANCH  25  27
DOCKED: ATOM     27  C   UNL     1     139.665  71.561 223.440 -0.32 -0.02    +0.088 A  
DOCKED: ATOM     28  C   UNL     1     138.921  70.371 223.421 -0.26 -0.01    +0.031 A  
DOCKED: ATOM     29  N   UNL     1     140.341  71.912 224.567 -0.25 +0.04    -0.246 NA 
DOCKED: ATOM     30  C   UNL     1     138.892  69.554 224.555 -0.34 -0.00    +0.013 A  
DOCKED: ATOM     31  C   UNL     1     140.334  71.137 225.686 -0.52 -0.01    +0.071 A  
DOCKED: ATOM     32  C   UNL     1     139.602  69.928 225.702 -0.46 -0.00    +0.003 A  
DOCKED: ATOM     33  C   UNL     1     141.062  71.525 226.817 -0.71 -0.01    +0.032 A  
DOCKED: ATOM     34  C   UNL     1     139.601  69.126 226.853 -0.51 -0.01    +0.049 A  
DOCKED: ATOM     35  C   UNL     1     141.065  70.714 227.961 -0.64 -0.01    +0.041 A  
DOCKED: ATOM     36  C   UNL     1     140.331  69.522 227.979 -0.52 -0.02    +0.123 A  
DOCKED: ATOM     37  F   UNL     1     140.321  68.751 229.099 -0.13 +0.04    -0.207 F  
DOCKED: ENDBRANCH  25  27
DOCKED: ENDBRANCH  24  25
DOCKED: ENDBRANCH  23  24
DOCKED: ENDBRANCH  21  23
DOCKED: ENDBRANCH   5  21
DOCKED: BRANCH   3  38
DOCKED: ATOM     38  O   UNL     1     142.482  78.820 222.772 -0.22 +0.22    -0.391 OA 
DOCKED: ATOM     39  H   UNL     1     143.203  78.309 222.318 -0.41 -0.24    +0.211 HD 
DOCKED: ENDBRANCH   3  38
DOCKED: TORSDOF 10
DOCKED: TER
DOCKED: ENDMDL
________________________________________________________________________________


    CLUSTERING HISTOGRAM
    ____________________


________________________________________________________________________________
     |           |     |           |     |
Clus | Lowest    | Run | Mean      | Num | Histogram
-ter | Binding   |     | Binding   | in  |
Rank | Energy    |     | Energy    | Clus|    5    10   15   20   25   30   35
_____|___________|_____|___________|_____|____:____|____:____|____:____|____:___
   1 |     -8.98 |   2 |     -8.67 |   5 |#####
   2 |     -8.81 |   4 |     -8.40 |   6 |######
   3 |     -8.20 |  13 |     -8.20 |   1 |#
   4 |     -7.55 |  15 |     -7.36 |   2 |##
   5 |     -6.11 |   1 |     -5.85 |   4 |####
   6 |     -5.01 |   9 |     -4.90 |   2 |##
_____|___________|_____|___________|_____|______________________________________


    RMSD TABLE
    __________


_______________________________________________________________________
     |      |      |           |         |                 |
Rank | Sub- | Run  | Binding   | Cluster | Reference       | Grep
     | Rank |      | Energy    | RMSD    | RMSD            | Pattern
_____|______|______|___________|_________|_________________|___________
   1      1      2       -8.98      0.00    269.17           RANKING
   1      2     18       -8.93      0.35    269.17           RANKING
   1      3     20       -8.93      0.22    269.17           RANKING
   1      4     12       -8.36      0.40    269.04           RANKING
   1      5      5       -8.15      1.31    269.16           RANKING
   2      1      4       -8.81      0.00    269.57           RANKING
   2      2      6       -8.73      0.35    269.61           RANKING
   2      3     14       -8.58      0.43    269.44           RANKING
   2      4     10       -8.52      0.59    269.60           RANKING
   2      5      3       -8.37      1.23    269.38           RANKING
   2      6     16       -7.37      1.81    269.07           RANKING
   3      1     13       -8.20      0.00    268.47           RANKING
   4      1     15       -7.55      0.00    269.50           RANKING
   4      2     17       -7.17      1.21    269.11           RANKING
   5      1      1       -6.11      0.00    268.98           RANKING
   5      2     19       -5.81      1.67    269.23           RANKING
   5      3      8       -5.79      1.77    269.25           RANKING
   5      4      7       -5.71      1.76    269.28           RANKING
   6      1      9       -5.01      0.00    269.22           RANKING
   6      2     11       -4.79      1.86    268.80           RANKING

Run time 1.389 sec
Idle time 0.243 sec
