AutoDock-GPU version: v1.6

**********************************************************
**    AutoDock-GPU AUTODOCKTOOLS-COMPATIBLE DLG FILE    **
**********************************************************


    DOCKING PARAMETERS
    ________________________


Ligand file:                               /home/a/REINVENT4/ReinventStudies/scoringData/graph-dock-34dfml/graph-DockGPU/node-autodockgpu/inputs/JFIDHXWBANSMLJ-RGQLMTDTNA-O.pdbqt
Grid fld file:                             /home/a/REINVENT4/ReinventStudies/mols/Rad51/maps/rad51_receptor.maps.fld

Random seed:                               42
Number of runs:                            20
Number of energy evaluations:              2542121
Number of generations:                     42000
Size of population:                        150
Rate of crossover:                         80.000000%
Tournament selection probability limit:    60.000000%
Rate of mutation:                          2.000000%
Maximal allowed delta movement:            +/- 6.000000A
Maximal allowed delta angle:               +/- 90.000000

Rate of local search:                      100.000000%
Maximal number of local search iterations: 300
Rho lower bound:                           0.010000
Spread of local search delta movement:     2.000000A
Spread of local search delta angle:        74.999999
Limit of consecutive successes/failures:   4

Handle symmetry during clustering:         YES
RMSD tolerance:                            2.000000A

Program call in command line was:          /home/a/REINVENT4/ReinventStudies/adgpu-v1.6_linux_x64_cuda12_128wi --filelist batch.txt --heuristics 1 --nrun 20 --psize 150 --lsit 300 --seed 42 --heurmax 12000000 


    GRID PARAMETERS
    ________________________


Receptor name:                             rad51_receptor
Number of grid points (x, y, z):           53, 53, 53
Grid center (x, y, z):                     139.950000, 75.640000, 221.970000A
Grid size (x, y, z):                       19.500000, 19.500000, 19.500000A
Grid spacing:                              0.375000A


    LIGAND PARAMETERS
    ________________________


Ligand name:                               /home/a/REINVENT4/ReinventStudies/scoringData/graph-dock-34dfml/graph-DockGPU/node-autodockgpu/inputs/JFIDHXWBANSMLJ-RGQLMTDTNA-O
Number of atoms:                           41
Number of rotatable bonds:                 10
Number of atom types:                      8


    DUMMY DATA (only for ADT-compatibility)
    ________________________


DPF> outlev 1
DPF> ga_run 20
DPF> fld /home/a/REINVENT4/ReinventStudies/mols/Rad51/maps/rad51_receptor.maps.fld
DPF> move /home/a/REINVENT4/ReinventStudies/scoringData/graph-dock-34dfml/graph-DockGPU/node-autodockgpu/inputs/JFIDHXWBANSMLJ-RGQLMTDTNA-O.pdbqt


    COUNTER STATES
    ________________________


Number of energy evaluations performed:    937292
Number of generations used:                75


    INPUT LIGAND PDBQT FILE:
    ________________________


INPUT-LIGAND-PDBQT: REMARK SMILES COc1ccc([C@H](C)NC(=O)[C@@H]2C[C@@H](O)C/[N+]2=C(\O)CNC(=O)c2ccc3cc(F)ccc3n2)c(Cl)c1
INPUT-LIGAND-PDBQT: REMARK SMILES IDX 17 1 16 2 14 3 13 4 12 5 18 6 19 7 20 9 21 10 22 11 23 13
INPUT-LIGAND-PDBQT: REMARK SMILES IDX 24 14 34 15 25 16 33 17 26 18 32 19 27 20 31 21 28 22 29 23
INPUT-LIGAND-PDBQT: REMARK SMILES IDX 30 24 10 25 9 26 11 27 7 29 8 30 6 31 5 32 35 33 4 34 37 35
INPUT-LIGAND-PDBQT: REMARK SMILES IDX 3 36 36 37 2 38 1 39 15 40
INPUT-LIGAND-PDBQT: REMARK H PARENT 19 8 21 12 9 28 15 41
INPUT-LIGAND-PDBQT: ROOT
INPUT-LIGAND-PDBQT: ATOM      1  N   UNL     1      -2.673   2.109  -1.419  1.00  0.00    -0.186 N 
INPUT-LIGAND-PDBQT: ATOM      2  C   UNL     1      -3.406   2.583  -2.591  1.00  0.00     0.386 C 
INPUT-LIGAND-PDBQT: ATOM      3  C   UNL     1      -2.930   1.743  -3.775  1.00  0.00     0.186 C 
INPUT-LIGAND-PDBQT: ATOM      4  C   UNL     1      -1.592   1.166  -3.337  1.00  0.00     0.125 C 
INPUT-LIGAND-PDBQT: ATOM      5  C   UNL     1      -1.636   1.142  -1.808  1.00  0.00     0.355 C 
INPUT-LIGAND-PDBQT: ENDROOT
INPUT-LIGAND-PDBQT: BRANCH   1   6
INPUT-LIGAND-PDBQT: ATOM      6  C   UNL     1      -3.013   2.447  -0.188  1.00  0.00     0.354 C 
INPUT-LIGAND-PDBQT: BRANCH   6   7
INPUT-LIGAND-PDBQT: ATOM      7  O   UNL     1      -4.031   3.378   0.050  1.00  0.00    -0.462 OA
INPUT-LIGAND-PDBQT: ATOM      8  H   UNL     1      -4.513   3.886  -0.680  1.00  0.00     0.299 HD
INPUT-LIGAND-PDBQT: ENDBRANCH   6   7
INPUT-LIGAND-PDBQT: BRANCH   6   9
INPUT-LIGAND-PDBQT: ATOM      9  C   UNL     1      -2.320   1.908   1.040  1.00  0.00     0.269 C 
INPUT-LIGAND-PDBQT: BRANCH   9  10
INPUT-LIGAND-PDBQT: ATOM     10  N   UNL     1      -2.306   0.449   1.066  1.00  0.00    -0.337 N 
INPUT-LIGAND-PDBQT: ATOM     11  C   UNL     1      -1.256  -0.265   1.735  1.00  0.00     0.270 C 
INPUT-LIGAND-PDBQT: ATOM     12  H   UNL     1      -3.072  -0.083   0.592  1.00  0.00     0.164 HD
INPUT-LIGAND-PDBQT: ATOM     13  O   UNL     1      -0.609   0.296   2.663  1.00  0.00    -0.268 OA
INPUT-LIGAND-PDBQT: BRANCH  11  14
INPUT-LIGAND-PDBQT: ATOM     14  C   UNL     1      -0.896  -1.630   1.305  1.00  0.00     0.128 A 
INPUT-LIGAND-PDBQT: ATOM     15  N   UNL     1      -1.549  -2.194   0.250  1.00  0.00    -0.243 NA
INPUT-LIGAND-PDBQT: ATOM     16  C   UNL     1       0.152  -2.332   1.923  1.00  0.00     0.035 A 
INPUT-LIGAND-PDBQT: ATOM     17  C   UNL     1      -1.219  -3.420  -0.234  1.00  0.00     0.071 A 
INPUT-LIGAND-PDBQT: ATOM     18  C   UNL     1       0.513  -3.594   1.449  1.00  0.00     0.013 A 
INPUT-LIGAND-PDBQT: ATOM     19  C   UNL     1      -1.914  -3.957  -1.323  1.00  0.00     0.032 A 
INPUT-LIGAND-PDBQT: ATOM     20  C   UNL     1      -0.166  -4.150   0.358  1.00  0.00     0.003 A 
INPUT-LIGAND-PDBQT: ATOM     21  C   UNL     1      -1.561  -5.212  -1.827  1.00  0.00     0.041 A 
INPUT-LIGAND-PDBQT: ATOM     22  C   UNL     1       0.178  -5.411  -0.152  1.00  0.00     0.049 A 
INPUT-LIGAND-PDBQT: ATOM     23  C   UNL     1      -0.520  -5.939  -1.243  1.00  0.00     0.123 A 
INPUT-LIGAND-PDBQT: ATOM     24  F   UNL     1      -0.183  -7.155  -1.739  1.00  0.00    -0.207 F 
INPUT-LIGAND-PDBQT: ENDBRANCH  11  14
INPUT-LIGAND-PDBQT: ENDBRANCH   9  10
INPUT-LIGAND-PDBQT: ENDBRANCH   6   9
INPUT-LIGAND-PDBQT: ENDBRANCH   1   6
INPUT-LIGAND-PDBQT: BRANCH   5  25
INPUT-LIGAND-PDBQT: ATOM     25  C   UNL     1      -0.270   1.455  -1.251  1.00  0.00     0.289 C 
INPUT-LIGAND-PDBQT: ATOM     26  N   UNL     1       0.219   2.806  -1.196  1.00  0.00    -0.344 N 
INPUT-LIGAND-PDBQT: ATOM     27  O   UNL     1       0.467   0.502  -0.880  1.00  0.00    -0.267 OA
INPUT-LIGAND-PDBQT: ATOM     28  H   UNL     1      -0.418   3.581  -1.489  1.00  0.00     0.164 HD
INPUT-LIGAND-PDBQT: BRANCH  26  29
INPUT-LIGAND-PDBQT: ATOM     29  C   UNL     1       1.623   3.098  -0.885  1.00  0.00     0.111 C 
INPUT-LIGAND-PDBQT: ATOM     30  C   UNL     1       1.949   4.569  -1.175  1.00  0.00     0.036 C 
INPUT-LIGAND-PDBQT: BRANCH  29  31
INPUT-LIGAND-PDBQT: ATOM     31  C   UNL     1       1.928   2.751   0.565  1.00  0.00    -0.007 A 
INPUT-LIGAND-PDBQT: ATOM     32  C   UNL     1       1.209   3.391   1.592  1.00  0.00     0.011 A 
INPUT-LIGAND-PDBQT: ATOM     33  C   UNL     1       2.897   1.781   0.918  1.00  0.00     0.049 A 
INPUT-LIGAND-PDBQT: ATOM     34  C   UNL     1       1.437   3.074   2.932  1.00  0.00     0.047 A 
INPUT-LIGAND-PDBQT: ATOM     35  C   UNL     1       3.120   1.473   2.265  1.00  0.00     0.067 A 
INPUT-LIGAND-PDBQT: ATOM     36  C   UNL     1       2.398   2.108   3.278  1.00  0.00     0.120 A 
INPUT-LIGAND-PDBQT: ATOM     37  Cl  UNL     1       3.853   0.913  -0.282  1.00  0.00    -0.084 Cl
INPUT-LIGAND-PDBQT: BRANCH  36  38
INPUT-LIGAND-PDBQT: ATOM     38  O   UNL     1       2.663   1.751   4.609  1.00  0.00    -0.497 OA
INPUT-LIGAND-PDBQT: ATOM     39  C   UNL     1       1.987   2.295   5.737  1.00  0.00     0.278 C 
INPUT-LIGAND-PDBQT: ENDBRANCH  36  38
INPUT-LIGAND-PDBQT: ENDBRANCH  29  31
INPUT-LIGAND-PDBQT: ENDBRANCH  26  29
INPUT-LIGAND-PDBQT: ENDBRANCH   5  25
INPUT-LIGAND-PDBQT: BRANCH   3  40
INPUT-LIGAND-PDBQT: ATOM     40  O   UNL     1      -3.831   0.694  -4.023  1.00  0.00    -0.386 OA
INPUT-LIGAND-PDBQT: ATOM     41  H   UNL     1      -4.584   1.082  -4.542  1.00  0.00     0.211 HD
INPUT-LIGAND-PDBQT: ENDBRANCH   3  40
INPUT-LIGAND-PDBQT: TORSDOF 10


    FINAL DOCKED STATE:
    ________________________


Run:   1 / 20
Time taken for this run:   0.065s

DOCKED: MODEL        1
DOCKED: USER    Run = 1
DOCKED: USER
DOCKED: USER    Estimated Free Energy of Binding    =  -6.08 kcal/mol  [=(1)+(2)+(3)-(4)]
DOCKED: USER
DOCKED: USER    (1) Final Intermolecular Energy     =  -9.06 kcal/mol
DOCKED: USER        vdW + Hbond + desolv Energy     =  -8.30 kcal/mol
DOCKED: USER        Electrostatic Energy            =  -0.76 kcal/mol
DOCKED: USER        Moving Ligand-Fixed Receptor    =  -9.06 kcal/mol
DOCKED: USER        Moving Ligand-Moving Receptor   =  +0.00 kcal/mol
DOCKED: USER    (2) Final Total Internal Energy     =  -4.99 kcal/mol
DOCKED: USER    (3) Torsional Free Energy           =  +2.98 kcal/mol
DOCKED: USER    (4) Unbound System's Energy         =  -4.99 kcal/mol
DOCKED: USER
DOCKED: USER
DOCKED: REMARK SMILES COc1ccc([C@H](C)NC(=O)[C@@H]2C[C@@H](O)C/[N+]2=C(\O)CNC(=O)c2ccc3cc(F)ccc3n2)c(Cl)c1
DOCKED: REMARK SMILES IDX 17 1 16 2 14 3 13 4 12 5 18 6 19 7 20 9 21 10 22 11 23 13
DOCKED: REMARK SMILES IDX 24 14 34 15 25 16 33 17 26 18 32 19 27 20 31 21 28 22 29 23
DOCKED: REMARK SMILES IDX 30 24 10 25 9 26 11 27 7 29 8 30 6 31 5 32 35 33 4 34 37 35
DOCKED: REMARK SMILES IDX 3 36 36 37 2 38 1 39 15 40
DOCKED: REMARK H PARENT 19 8 21 12 9 28 15 41
DOCKED: USER                              x       y       z     vdW  Elec       q    Type
DOCKED: USER                           _______ _______ _______ _____ _____    ______ ____
DOCKED: ROOT
DOCKED: ATOM      1  N   UNL     1     141.533  79.949 221.125 -0.23 +0.08    -0.186 N  
DOCKED: ATOM      2  C   UNL     1     141.814  81.008 222.093 -0.24 -0.10    +0.386 C  
DOCKED: ATOM      3  C   UNL     1     142.536  80.348 223.267 -0.52 -0.05    +0.186 C  
DOCKED: ATOM      4  C   UNL     1     142.198  78.869 223.157 -0.40 -0.06    +0.125 C  
DOCKED: ATOM      5  C   UNL     1     141.872  78.631 221.681 -0.17 -0.21    +0.355 C  
DOCKED: ENDROOT
DOCKED: BRANCH   1   6
DOCKED: ATOM      6  C   UNL     1     141.139  80.206 219.891 -0.12 -0.14    +0.354 C  
DOCKED: BRANCH   6   7
DOCKED: ATOM      7  O   UNL     1     139.793  80.093 219.524 +0.00 +0.14    -0.462 OA 
DOCKED: ATOM      8  H   UNL     1     139.353  79.223 219.254 +0.05 -0.09    +0.299 HD 
DOCKED: ENDBRANCH   6   7
DOCKED: BRANCH   6   9
DOCKED: ATOM      9  C   UNL     1     142.088  80.590 218.781 -0.20 -0.16    +0.269 C  
DOCKED: BRANCH   9  10
DOCKED: ATOM     10  N   UNL     1     142.739  79.426 218.189 -0.18 +0.32    -0.337 N  
DOCKED: ATOM     11  C   UNL     1     142.047  78.173 218.080 -0.17 -0.18    +0.270 C  
DOCKED: ATOM     12  H   UNL     1     143.721  79.507 217.837 -0.45 -0.27    +0.164 HD 
DOCKED: ATOM     13  O   UNL     1     140.785  78.153 218.058 -0.04 +0.12    -0.268 OA 
DOCKED: BRANCH  11  14
DOCKED: ATOM     14  C   UNL     1     142.806  76.908 218.048 -0.25 -0.08    +0.128 A  
DOCKED: ATOM     15  N   UNL     1     143.150  76.303 219.220 -0.24 +0.15    -0.243 NA 
DOCKED: ATOM     16  C   UNL     1     143.122  76.283 216.830 -0.21 -0.02    +0.035 A  
DOCKED: ATOM     17  C   UNL     1     143.791  75.105 219.255 -0.28 -0.04    +0.071 A  
DOCKED: ATOM     18  C   UNL     1     143.781  75.052 216.835 -0.17 -0.01    +0.013 A  
DOCKED: ATOM     19  C   UNL     1     144.120  74.520 220.483 -0.42 -0.01    +0.032 A  
DOCKED: ATOM     20  C   UNL     1     144.117  74.446 218.051 -0.16 -0.00    +0.003 A  
DOCKED: ATOM     21  C   UNL     1     144.765  73.281 220.515 -0.48 -0.01    +0.041 A  
DOCKED: ATOM     22  C   UNL     1     144.769  73.204 218.094 -0.19 +0.00    +0.049 A  
DOCKED: ATOM     23  C   UNL     1     145.091  72.624 219.325 -0.28 +0.02    +0.123 A  
DOCKED: ATOM     24  F   UNL     1     145.716  71.422 219.365 -0.08 -0.13    -0.207 F  
DOCKED: ENDBRANCH  11  14
DOCKED: ENDBRANCH   9  10
DOCKED: ENDBRANCH   6   9
DOCKED: ENDBRANCH   1   6
DOCKED: BRANCH   5  25
DOCKED: ATOM     25  C   UNL     1     140.764  77.615 221.558 -0.21 -0.11    +0.289 C  
DOCKED: ATOM     26  N   UNL     1     140.924  76.277 222.060 -0.20 +0.11    -0.344 N  
DOCKED: ATOM     27  O   UNL     1     139.706  77.940 220.957 -0.08 +0.08    -0.267 OA 
DOCKED: ATOM     28  H   UNL     1     141.802  76.036 222.574 -0.49 -0.08    +0.164 HD 
DOCKED: BRANCH  26  29
DOCKED: ATOM     29  C   UNL     1     139.959  75.219 221.736 -0.27 -0.02    +0.111 C  
DOCKED: ATOM     30  C   UNL     1     138.523  75.703 221.974 -0.27 -0.01    +0.036 C  
DOCKED: BRANCH  29  31
DOCKED: ATOM     31  C   UNL     1     140.143  74.756 220.298 -0.15 +0.00    -0.007 A  
DOCKED: ATOM     32  C   UNL     1     139.694  75.577 219.247 -0.06 -0.00    +0.011 A  
DOCKED: ATOM     33  C   UNL     1     140.779  73.532 219.978 -0.11 -0.01    +0.049 A  
DOCKED: ATOM     34  C   UNL     1     139.876  75.202 217.915 -0.02 -0.01    +0.047 A  
DOCKED: ATOM     35  C   UNL     1     140.954  73.164 218.639 -0.03 -0.01    +0.067 A  
DOCKED: ATOM     36  C   UNL     1     140.510  73.987 217.602 -0.01 -0.03    +0.120 A  
DOCKED: ATOM     37  Cl  UNL     1     141.387  72.427 221.210 -0.31 +0.01    -0.084 Cl 
DOCKED: BRANCH  36  38
DOCKED: ATOM     38  O   UNL     1     140.720  73.565 216.280 +0.01 +0.11    -0.497 OA 
DOCKED: ATOM     39  C   UNL     1     140.526  74.386 215.134 -0.00 -0.07    +0.278 C  
DOCKED: ENDBRANCH  36  38
DOCKED: ENDBRANCH  29  31
DOCKED: ENDBRANCH  26  29
DOCKED: ENDBRANCH   5  25
DOCKED: BRANCH   3  40
DOCKED: ATOM     40  O   UNL     1     143.925  80.519 223.145 -0.34 +0.10    -0.386 OA 
DOCKED: ATOM     41  H   UNL     1     144.218  79.940 222.394 -0.36 -0.11    +0.211 HD 
DOCKED: ENDBRANCH   3  40
DOCKED: TORSDOF 10
DOCKED: TER
DOCKED: ENDMDL
________________________________________________________________________________


    FINAL DOCKED STATE:
    ________________________


Run:   2 / 20
Time taken for this run:   0.065s

DOCKED: MODEL        2
DOCKED: USER    Run = 2
DOCKED: USER
DOCKED: USER    Estimated Free Energy of Binding    =  -5.35 kcal/mol  [=(1)+(2)+(3)-(4)]
DOCKED: USER
DOCKED: USER    (1) Final Intermolecular Energy     =  -8.33 kcal/mol
DOCKED: USER        vdW + Hbond + desolv Energy     =  -8.15 kcal/mol
DOCKED: USER        Electrostatic Energy            =  -0.19 kcal/mol
DOCKED: USER        Moving Ligand-Fixed Receptor    =  -8.33 kcal/mol
DOCKED: USER        Moving Ligand-Moving Receptor   =  +0.00 kcal/mol
DOCKED: USER    (2) Final Total Internal Energy     =  -5.93 kcal/mol
DOCKED: USER    (3) Torsional Free Energy           =  +2.98 kcal/mol
DOCKED: USER    (4) Unbound System's Energy         =  -5.93 kcal/mol
DOCKED: USER
DOCKED: USER
DOCKED: REMARK SMILES COc1ccc([C@H](C)NC(=O)[C@@H]2C[C@@H](O)C/[N+]2=C(\O)CNC(=O)c2ccc3cc(F)ccc3n2)c(Cl)c1
DOCKED: REMARK SMILES IDX 17 1 16 2 14 3 13 4 12 5 18 6 19 7 20 9 21 10 22 11 23 13
DOCKED: REMARK SMILES IDX 24 14 34 15 25 16 33 17 26 18 32 19 27 20 31 21 28 22 29 23
DOCKED: REMARK SMILES IDX 30 24 10 25 9 26 11 27 7 29 8 30 6 31 5 32 35 33 4 34 37 35
DOCKED: REMARK SMILES IDX 3 36 36 37 2 38 1 39 15 40
DOCKED: REMARK H PARENT 19 8 21 12 9 28 15 41
DOCKED: USER                              x       y       z     vdW  Elec       q    Type
DOCKED: USER                           _______ _______ _______ _____ _____    ______ ____
DOCKED: ROOT
DOCKED: ATOM      1  N   UNL     1     141.735  73.821 219.922 -0.10 +0.04    -0.186 N  
DOCKED: ATOM      2  C   UNL     1     142.530  72.629 219.640 -0.04 -0.06    +0.386 C  
DOCKED: ATOM      3  C   UNL     1     143.976  72.972 219.995 -0.25 -0.03    +0.186 C  
DOCKED: ATOM      4  C   UNL     1     144.033  74.492 219.992 -0.36 -0.05    +0.125 C  
DOCKED: ATOM      5  C   UNL     1     142.602  74.957 220.269 -0.15 -0.14    +0.355 C  
DOCKED: ENDROOT
DOCKED: BRANCH   1   6
DOCKED: ATOM      6  C   UNL     1     140.414  73.798 219.960 -0.04 -0.07    +0.354 C  
DOCKED: BRANCH   6   7
DOCKED: ATOM      7  O   UNL     1     139.654  74.086 218.821 +0.01 +0.10    -0.462 OA 
DOCKED: ATOM      8  H   UNL     1     138.773  74.584 218.841 +0.03 -0.06    +0.299 HD 
DOCKED: ENDBRANCH   6   7
DOCKED: BRANCH   6   9
DOCKED: ATOM      9  C   UNL     1     139.627  73.511 221.216 -0.14 -0.05    +0.269 C  
DOCKED: BRANCH   9  10
DOCKED: ATOM     10  N   UNL     1     139.481  74.697 222.055 -0.15 +0.06    -0.337 N  
DOCKED: ATOM     11  C   UNL     1     139.153  75.970 221.479 -0.17 -0.06    +0.270 C  
DOCKED: ATOM     12  H   UNL     1     139.616  74.617 223.089 -0.47 +0.00    +0.164 HD 
DOCKED: ATOM     13  O   UNL     1     138.556  76.020 220.368 -0.04 +0.06    -0.268 OA 
DOCKED: BRANCH  11  14
DOCKED: ATOM     14  C   UNL     1     139.561  77.217 222.154 -0.27 -0.03    +0.128 A  
DOCKED: ATOM     15  N   UNL     1     140.858  77.627 222.079 -0.23 +0.09    -0.243 NA 
DOCKED: ATOM     16  C   UNL     1     138.621  78.022 222.819 -0.26 -0.01    +0.035 A  
DOCKED: ATOM     17  C   UNL     1     141.281  78.798 222.623 -0.44 -0.03    +0.071 A  
DOCKED: ATOM     18  C   UNL     1     139.025  79.229 223.390 -0.36 -0.00    +0.013 A  
DOCKED: ATOM     19  C   UNL     1     142.622  79.180 222.516 -0.43 -0.02    +0.032 A  
DOCKED: ATOM     20  C   UNL     1     140.362  79.635 223.292 -0.46 -0.00    +0.003 A  
DOCKED: ATOM     21  C   UNL     1     143.049  80.393 223.065 -0.62 -0.01    +0.041 A  
DOCKED: ATOM     22  C   UNL     1     140.800  80.848 223.844 -0.40 -0.01    +0.049 A  
DOCKED: ATOM     23  C   UNL     1     142.143  81.224 223.729 -0.53 -0.02    +0.123 A  
DOCKED: ATOM     24  F   UNL     1     142.564  82.399 224.257 -0.06 +0.00    -0.207 F  
DOCKED: ENDBRANCH  11  14
DOCKED: ENDBRANCH   9  10
DOCKED: ENDBRANCH   6   9
DOCKED: ENDBRANCH   1   6
DOCKED: BRANCH   5  25
DOCKED: ATOM     25  C   UNL     1     142.309  76.210 219.483 -0.18 -0.15    +0.289 C  
DOCKED: ATOM     26  N   UNL     1     140.961  76.582 219.150 -0.02 +0.13    -0.344 N  
DOCKED: ATOM     27  O   UNL     1     143.275  76.907 219.070 -0.30 +0.19    -0.267 OA 
DOCKED: ATOM     28  H   UNL     1     140.176  76.000 219.521 +0.04 -0.05    +0.164 HD 
DOCKED: BRANCH  26  29
DOCKED: ATOM     29  C   UNL     1     140.679  77.655 218.190 -0.07 -0.05    +0.111 C  
DOCKED: ATOM     30  C   UNL     1     139.515  77.269 217.269 -0.02 -0.01    +0.036 C  
DOCKED: BRANCH  29  31
DOCKED: ATOM     31  C   UNL     1     140.381  78.956 218.922 -0.11 +0.00    -0.007 A  
DOCKED: ATOM     32  C   UNL     1     139.150  79.105 219.588 -0.06 -0.00    +0.011 A  
DOCKED: ATOM     33  C   UNL     1     141.317  80.017 218.980 -0.21 -0.02    +0.049 A  
DOCKED: ATOM     34  C   UNL     1     138.856  80.270 220.298 -0.07 -0.01    +0.047 A  
DOCKED: ATOM     35  C   UNL     1     141.010  81.182 219.693 -0.21 -0.02    +0.067 A  
DOCKED: ATOM     36  C   UNL     1     139.789  81.320 220.356 -0.11 -0.03    +0.120 A  
DOCKED: ATOM     37  Cl  UNL     1     142.891  79.939 218.190 -0.22 +0.08    -0.084 Cl 
DOCKED: BRANCH  36  38
DOCKED: ATOM     38  O   UNL     1     139.543  82.509 221.059 -0.05 +0.09    -0.497 OA 
DOCKED: ATOM     39  C   UNL     1     140.481  83.570 221.196 -0.16 -0.04    +0.278 C  
DOCKED: ENDBRANCH  36  38
DOCKED: ENDBRANCH  29  31
DOCKED: ENDBRANCH  26  29
DOCKED: ENDBRANCH   5  25
DOCKED: BRANCH   3  40
DOCKED: ATOM     40  O   UNL     1     144.289  72.496 221.279 -0.10 +0.08    -0.386 OA 
DOCKED: ATOM     41  H   UNL     1     145.028  71.842 221.168 -0.37 -0.09    +0.211 HD 
DOCKED: ENDBRANCH   3  40
DOCKED: TORSDOF 10
DOCKED: TER
DOCKED: ENDMDL
________________________________________________________________________________


    FINAL DOCKED STATE:
    ________________________


Run:   3 / 20
Time taken for this run:   0.065s

DOCKED: MODEL        3
DOCKED: USER    Run = 3
DOCKED: USER
DOCKED: USER    Estimated Free Energy of Binding    =  -8.10 kcal/mol  [=(1)+(2)+(3)-(4)]
DOCKED: USER
DOCKED: USER    (1) Final Intermolecular Energy     = -11.09 kcal/mol
DOCKED: USER        vdW + Hbond + desolv Energy     = -10.42 kcal/mol
DOCKED: USER        Electrostatic Energy            =  -0.66 kcal/mol
DOCKED: USER        Moving Ligand-Fixed Receptor    = -11.09 kcal/mol
DOCKED: USER        Moving Ligand-Moving Receptor   =  +0.00 kcal/mol
DOCKED: USER    (2) Final Total Internal Energy     =  -2.34 kcal/mol
DOCKED: USER    (3) Torsional Free Energy           =  +2.98 kcal/mol
DOCKED: USER    (4) Unbound System's Energy         =  -2.34 kcal/mol
DOCKED: USER
DOCKED: USER
DOCKED: REMARK SMILES COc1ccc([C@H](C)NC(=O)[C@@H]2C[C@@H](O)C/[N+]2=C(\O)CNC(=O)c2ccc3cc(F)ccc3n2)c(Cl)c1
DOCKED: REMARK SMILES IDX 17 1 16 2 14 3 13 4 12 5 18 6 19 7 20 9 21 10 22 11 23 13
DOCKED: REMARK SMILES IDX 24 14 34 15 25 16 33 17 26 18 32 19 27 20 31 21 28 22 29 23
DOCKED: REMARK SMILES IDX 30 24 10 25 9 26 11 27 7 29 8 30 6 31 5 32 35 33 4 34 37 35
DOCKED: REMARK SMILES IDX 3 36 36 37 2 38 1 39 15 40
DOCKED: REMARK H PARENT 19 8 21 12 9 28 15 41
DOCKED: USER                              x       y       z     vdW  Elec       q    Type
DOCKED: USER                           _______ _______ _______ _____ _____    ______ ____
DOCKED: ROOT
DOCKED: ATOM      1  N   UNL     1     141.687  75.693 219.747 -0.13 +0.07    -0.186 N  
DOCKED: ATOM      2  C   UNL     1     141.782  75.072 218.427 -0.01 -0.13    +0.386 C  
DOCKED: ATOM      3  C   UNL     1     142.643  75.997 217.568 -0.14 -0.09    +0.186 C  
DOCKED: ATOM      4  C   UNL     1     142.592  77.346 218.269 -0.27 -0.08    +0.125 C  
DOCKED: ATOM      5  C   UNL     1     142.284  77.037 219.735 -0.17 -0.22    +0.355 C  
DOCKED: ENDROOT
DOCKED: BRANCH   1   6
DOCKED: ATOM      6  C   UNL     1     141.223  75.047 220.801 -0.15 -0.10    +0.354 C  
DOCKED: BRANCH   6   7
DOCKED: ATOM      7  O   UNL     1     141.451  75.522 222.098 -0.21 +0.13    -0.462 OA 
DOCKED: ATOM      8  H   UNL     1     142.182  76.180 222.337 -0.42 -0.26    +0.299 HD 
DOCKED: ENDBRANCH   6   7
DOCKED: BRANCH   6   9
DOCKED: ATOM      9  C   UNL     1     140.463  73.745 220.706 -0.13 -0.05    +0.269 C  
DOCKED: BRANCH   9  10
DOCKED: ATOM     10  N   UNL     1     140.759  72.855 221.824 -0.15 +0.03    -0.337 N  
DOCKED: ATOM     11  C   UNL     1     140.244  71.516 221.854 -0.15 -0.04    +0.270 C  
DOCKED: ATOM     12  H   UNL     1     141.354  73.198 222.613 +0.06 +0.02    +0.164 HD 
DOCKED: ATOM     13  O   UNL     1     139.935  70.939 220.774 -0.07 +0.04    -0.268 OA 
DOCKED: BRANCH  11  14
DOCKED: ATOM     14  C   UNL     1     140.026  70.833 223.144 -0.22 -0.02    +0.128 A  
DOCKED: ATOM     15  N   UNL     1     140.537  71.377 224.284 -0.28 +0.03    -0.243 NA 
DOCKED: ATOM     16  C   UNL     1     139.245  69.668 223.225 -0.23 -0.01    +0.035 A  
DOCKED: ATOM     17  C   UNL     1     140.315  70.832 225.509 -0.50 -0.01    +0.071 A  
DOCKED: ATOM     18  C   UNL     1     139.001  69.084 224.468 -0.35 -0.00    +0.013 A  
DOCKED: ATOM     19  C   UNL     1     140.856  71.428 226.653 -0.68 -0.01    +0.032 A  
DOCKED: ATOM     20  C   UNL     1     139.529  69.665 225.628 -0.44 -0.00    +0.003 A  
DOCKED: ATOM     21  C   UNL     1     140.613  70.872 227.912 -0.68 -0.01    +0.041 A  
DOCKED: ATOM     22  C   UNL     1     139.294  69.112 226.895 -0.46 -0.01    +0.049 A  
DOCKED: ATOM     23  C   UNL     1     139.836  69.716 228.034 -0.51 -0.02    +0.123 A  
DOCKED: ATOM     24  F   UNL     1     139.603  69.184 229.260 -0.03 +0.03    -0.207 F  
DOCKED: ENDBRANCH  11  14
DOCKED: ENDBRANCH   9  10
DOCKED: ENDBRANCH   6   9
DOCKED: ENDBRANCH   1   6
DOCKED: BRANCH   5  25
DOCKED: ATOM     25  C   UNL     1     141.389  78.107 220.308 -0.16 -0.15    +0.289 C  
DOCKED: ATOM     26  N   UNL     1     141.219  78.253 221.728 -0.15 +0.16    -0.344 N  
DOCKED: ATOM     27  O   UNL     1     140.743  78.846 219.516 -0.08 +0.11    -0.267 OA 
DOCKED: ATOM     28  H   UNL     1     141.782  77.644 222.364 -0.32 -0.11    +0.164 HD 
DOCKED: BRANCH  26  29
DOCKED: ATOM     29  C   UNL     1     140.178  79.122 222.287 -0.28 -0.03    +0.111 C  
DOCKED: ATOM     30  C   UNL     1     140.144  79.014 223.817 -0.28 -0.01    +0.036 C  
DOCKED: BRANCH  29  31
DOCKED: ATOM     31  C   UNL     1     140.398  80.563 221.850 -0.29 +0.00    -0.007 A  
DOCKED: ATOM     32  C   UNL     1     139.381  81.231 221.142 -0.16 -0.00    +0.011 A  
DOCKED: ATOM     33  C   UNL     1     141.587  81.268 222.157 -0.44 -0.01    +0.049 A  
DOCKED: ATOM     34  C   UNL     1     139.534  82.563 220.754 -0.16 -0.01    +0.047 A  
DOCKED: ATOM     35  C   UNL     1     141.730  82.603 221.761 -0.12 -0.01    +0.067 A  
DOCKED: ATOM     36  C   UNL     1     140.715  83.260 221.064 -0.25 -0.02    +0.120 A  
DOCKED: ATOM     37  Cl  UNL     1     142.923  80.536 223.043 -0.75 +0.02    -0.084 Cl 
DOCKED: BRANCH  36  38
DOCKED: ATOM     38  O   UNL     1     140.916  84.601 220.700 -0.05 +0.09    -0.497 OA 
DOCKED: ATOM     39  C   UNL     1     140.596  85.144 219.424 -0.09 -0.06    +0.278 C  
DOCKED: ENDBRANCH  36  38
DOCKED: ENDBRANCH  29  31
DOCKED: ENDBRANCH  26  29
DOCKED: ENDBRANCH   5  25
DOCKED: BRANCH   3  40
DOCKED: ATOM     40  O   UNL     1     143.970  75.538 217.536 -0.10 +0.21    -0.386 OA 
DOCKED: ATOM     41  H   UNL     1     144.542  76.301 217.816 -0.41 -0.17    +0.211 HD 
DOCKED: ENDBRANCH   3  40
DOCKED: TORSDOF 10
DOCKED: TER
DOCKED: ENDMDL
________________________________________________________________________________


    FINAL DOCKED STATE:
    ________________________


Run:   4 / 20
Time taken for this run:   0.065s

DOCKED: MODEL        4
DOCKED: USER    Run = 4
DOCKED: USER
DOCKED: USER    Estimated Free Energy of Binding    =  -5.35 kcal/mol  [=(1)+(2)+(3)-(4)]
DOCKED: USER
DOCKED: USER    (1) Final Intermolecular Energy     =  -8.33 kcal/mol
DOCKED: USER        vdW + Hbond + desolv Energy     =  -8.15 kcal/mol
DOCKED: USER        Electrostatic Energy            =  -0.18 kcal/mol
DOCKED: USER        Moving Ligand-Fixed Receptor    =  -8.33 kcal/mol
DOCKED: USER        Moving Ligand-Moving Receptor   =  +0.00 kcal/mol
DOCKED: USER    (2) Final Total Internal Energy     =  -5.94 kcal/mol
DOCKED: USER    (3) Torsional Free Energy           =  +2.98 kcal/mol
DOCKED: USER    (4) Unbound System's Energy         =  -5.94 kcal/mol
DOCKED: USER
DOCKED: USER
DOCKED: REMARK SMILES COc1ccc([C@H](C)NC(=O)[C@@H]2C[C@@H](O)C/[N+]2=C(\O)CNC(=O)c2ccc3cc(F)ccc3n2)c(Cl)c1
DOCKED: REMARK SMILES IDX 17 1 16 2 14 3 13 4 12 5 18 6 19 7 20 9 21 10 22 11 23 13
DOCKED: REMARK SMILES IDX 24 14 34 15 25 16 33 17 26 18 32 19 27 20 31 21 28 22 29 23
DOCKED: REMARK SMILES IDX 30 24 10 25 9 26 11 27 7 29 8 30 6 31 5 32 35 33 4 34 37 35
DOCKED: REMARK SMILES IDX 3 36 36 37 2 38 1 39 15 40
DOCKED: REMARK H PARENT 19 8 21 12 9 28 15 41
DOCKED: USER                              x       y       z     vdW  Elec       q    Type
DOCKED: USER                           _______ _______ _______ _____ _____    ______ ____
DOCKED: ROOT
DOCKED: ATOM      1  N   UNL     1     141.708  73.815 219.911 -0.10 +0.04    -0.186 N  
DOCKED: ATOM      2  C   UNL     1     142.508  72.625 219.627 -0.04 -0.06    +0.386 C  
DOCKED: ATOM      3  C   UNL     1     143.953  72.975 219.977 -0.24 -0.03    +0.186 C  
DOCKED: ATOM      4  C   UNL     1     144.003  74.496 219.974 -0.35 -0.05    +0.125 C  
DOCKED: ATOM      5  C   UNL     1     142.571  74.954 220.254 -0.15 -0.14    +0.355 C  
DOCKED: ENDROOT
DOCKED: BRANCH   1   6
DOCKED: ATOM      6  C   UNL     1     140.388  73.785 219.953 -0.04 -0.07    +0.354 C  
DOCKED: BRANCH   6   7
DOCKED: ATOM      7  O   UNL     1     139.623  74.071 218.816 +0.01 +0.10    -0.462 OA 
DOCKED: ATOM      8  H   UNL     1     138.743  74.571 218.839 +0.03 -0.06    +0.299 HD 
DOCKED: ENDBRANCH   6   7
DOCKED: BRANCH   6   9
DOCKED: ATOM      9  C   UNL     1     139.606  73.494 221.211 -0.14 -0.05    +0.269 C  
DOCKED: BRANCH   9  10
DOCKED: ATOM     10  N   UNL     1     139.466  74.675 222.056 -0.15 +0.06    -0.337 N  
DOCKED: ATOM     11  C   UNL     1     139.128  75.950 221.489 -0.17 -0.06    +0.270 C  
DOCKED: ATOM     12  H   UNL     1     139.613  74.592 223.089 -0.48 +0.00    +0.164 HD 
DOCKED: ATOM     13  O   UNL     1     138.517  76.002 220.385 -0.04 +0.06    -0.268 OA 
DOCKED: BRANCH  11  14
DOCKED: ATOM     14  C   UNL     1     139.539  77.195 222.165 -0.27 -0.03    +0.128 A  
DOCKED: ATOM     15  N   UNL     1     140.836  77.606 222.082 -0.23 +0.09    -0.243 NA 
DOCKED: ATOM     16  C   UNL     1     138.603  77.998 222.838 -0.26 -0.01    +0.035 A  
DOCKED: ATOM     17  C   UNL     1     141.261  78.775 222.627 -0.44 -0.03    +0.071 A  
DOCKED: ATOM     18  C   UNL     1     139.010  79.204 223.409 -0.35 -0.00    +0.013 A  
DOCKED: ATOM     19  C   UNL     1     142.602  79.159 222.512 -0.44 -0.02    +0.032 A  
DOCKED: ATOM     20  C   UNL     1     140.346  79.610 223.304 -0.46 -0.00    +0.003 A  
DOCKED: ATOM     21  C   UNL     1     143.032  80.370 223.061 -0.62 -0.01    +0.041 A  
DOCKED: ATOM     22  C   UNL     1     140.788  80.822 223.855 -0.38 -0.01    +0.049 A  
DOCKED: ATOM     23  C   UNL     1     142.129  81.199 223.733 -0.53 -0.02    +0.123 A  
DOCKED: ATOM     24  F   UNL     1     142.554  82.374 224.262 -0.08 +0.00    -0.207 F  
DOCKED: ENDBRANCH  11  14
DOCKED: ENDBRANCH   9  10
DOCKED: ENDBRANCH   6   9
DOCKED: ENDBRANCH   1   6
DOCKED: BRANCH   5  25
DOCKED: ATOM     25  C   UNL     1     142.270  76.206 219.468 -0.18 -0.15    +0.289 C  
DOCKED: ATOM     26  N   UNL     1     140.918  76.582 219.158 -0.02 +0.13    -0.344 N  
DOCKED: ATOM     27  O   UNL     1     143.232  76.897 219.036 -0.29 +0.19    -0.267 OA 
DOCKED: ATOM     28  H   UNL     1     140.137  76.006 219.545 +0.04 -0.05    +0.164 HD 
DOCKED: BRANCH  26  29
DOCKED: ATOM     29  C   UNL     1     140.624  77.653 218.199 -0.06 -0.04    +0.111 C  
DOCKED: ATOM     30  C   UNL     1     139.458  77.258 217.283 -0.02 -0.01    +0.036 C  
DOCKED: BRANCH  29  31
DOCKED: ATOM     31  C   UNL     1     140.321  78.952 218.932 -0.10 +0.00    -0.007 A  
DOCKED: ATOM     32  C   UNL     1     139.090  79.094 219.601 -0.06 -0.00    +0.011 A  
DOCKED: ATOM     33  C   UNL     1     141.250  80.019 218.987 -0.20 -0.02    +0.049 A  
DOCKED: ATOM     34  C   UNL     1     138.791  80.257 220.313 -0.07 -0.01    +0.047 A  
DOCKED: ATOM     35  C   UNL     1     140.938  81.182 219.701 -0.20 -0.02    +0.067 A  
DOCKED: ATOM     36  C   UNL     1     139.717  81.313 220.367 -0.11 -0.03    +0.120 A  
DOCKED: ATOM     37  Cl  UNL     1     142.822  79.952 218.192 -0.26 +0.08    -0.084 Cl 
DOCKED: BRANCH  36  38
DOCKED: ATOM     38  O   UNL     1     139.466  82.501 221.071 -0.05 +0.09    -0.497 OA 
DOCKED: ATOM     39  C   UNL     1     140.392  83.575 221.190 -0.16 -0.04    +0.278 C  
DOCKED: ENDBRANCH  36  38
DOCKED: ENDBRANCH  29  31
DOCKED: ENDBRANCH  26  29
DOCKED: ENDBRANCH   5  25
DOCKED: BRANCH   3  40
DOCKED: ATOM     40  O   UNL     1     144.273  72.502 221.261 -0.11 +0.08    -0.386 OA 
DOCKED: ATOM     41  H   UNL     1     145.056  71.900 221.156 -0.37 -0.09    +0.211 HD 
DOCKED: ENDBRANCH   3  40
DOCKED: TORSDOF 10
DOCKED: TER
DOCKED: ENDMDL
________________________________________________________________________________


    FINAL DOCKED STATE:
    ________________________


Run:   5 / 20
Time taken for this run:   0.065s

DOCKED: MODEL        5
DOCKED: USER    Run = 5
DOCKED: USER
DOCKED: USER    Estimated Free Energy of Binding    =  -5.41 kcal/mol  [=(1)+(2)+(3)-(4)]
DOCKED: USER
DOCKED: USER    (1) Final Intermolecular Energy     =  -8.39 kcal/mol
DOCKED: USER        vdW + Hbond + desolv Energy     =  -7.29 kcal/mol
DOCKED: USER        Electrostatic Energy            =  -1.09 kcal/mol
DOCKED: USER        Moving Ligand-Fixed Receptor    =  -8.39 kcal/mol
DOCKED: USER        Moving Ligand-Moving Receptor   =  +0.00 kcal/mol
DOCKED: USER    (2) Final Total Internal Energy     =  -5.57 kcal/mol
DOCKED: USER    (3) Torsional Free Energy           =  +2.98 kcal/mol
DOCKED: USER    (4) Unbound System's Energy         =  -5.57 kcal/mol
DOCKED: USER
DOCKED: USER
DOCKED: REMARK SMILES COc1ccc([C@H](C)NC(=O)[C@@H]2C[C@@H](O)C/[N+]2=C(\O)CNC(=O)c2ccc3cc(F)ccc3n2)c(Cl)c1
DOCKED: REMARK SMILES IDX 17 1 16 2 14 3 13 4 12 5 18 6 19 7 20 9 21 10 22 11 23 13
DOCKED: REMARK SMILES IDX 24 14 34 15 25 16 33 17 26 18 32 19 27 20 31 21 28 22 29 23
DOCKED: REMARK SMILES IDX 30 24 10 25 9 26 11 27 7 29 8 30 6 31 5 32 35 33 4 34 37 35
DOCKED: REMARK SMILES IDX 3 36 36 37 2 38 1 39 15 40
DOCKED: REMARK H PARENT 19 8 21 12 9 28 15 41
DOCKED: USER                              x       y       z     vdW  Elec       q    Type
DOCKED: USER                           _______ _______ _______ _____ _____    ______ ____
DOCKED: ROOT
DOCKED: ATOM      1  N   UNL     1     141.527  80.847 216.247 -0.08 +0.13    -0.186 N  
DOCKED: ATOM      2  C   UNL     1     141.752  82.095 215.520 -0.04 -0.24    +0.386 C  
DOCKED: ATOM      3  C   UNL     1     143.014  82.724 216.109 -0.20 -0.15    +0.186 C  
DOCKED: ATOM      4  C   UNL     1     143.180  82.072 217.473 -0.28 -0.11    +0.125 C  
DOCKED: ATOM      5  C   UNL     1     142.462  80.724 217.375 -0.13 -0.35    +0.355 C  
DOCKED: ENDROOT
DOCKED: BRANCH   1   6
DOCKED: ATOM      6  C   UNL     1     140.667  79.933 215.834 -0.02 -0.19    +0.354 C  
DOCKED: BRANCH   6   7
DOCKED: ATOM      7  O   UNL     1     139.339  79.939 216.279 +0.01 +0.16    -0.462 OA 
DOCKED: ATOM      8  H   UNL     1     138.837  79.109 216.565 +0.01 -0.09    +0.299 HD 
DOCKED: ENDBRANCH   6   7
DOCKED: BRANCH   6   9
DOCKED: ATOM      9  C   UNL     1     141.040  78.803 214.906 -0.03 -0.15    +0.269 C  
DOCKED: BRANCH   9  10
DOCKED: ATOM     10  N   UNL     1     141.690  77.704 215.613 -0.04 +0.21    -0.337 N  
DOCKED: ATOM     11  C   UNL     1     141.109  77.148 216.801 -0.03 -0.12    +0.270 C  
DOCKED: ATOM     12  H   UNL     1     142.591  77.317 215.248 +0.02 -0.12    +0.164 HD 
DOCKED: ATOM     13  O   UNL     1     139.868  77.257 217.002 -0.01 +0.09    -0.268 OA 
DOCKED: BRANCH  11  14
DOCKED: ATOM     14  C   UNL     1     141.966  76.498 217.812 -0.12 -0.06    +0.128 A  
DOCKED: ATOM     15  N   UNL     1     141.960  75.140 217.922 -0.03 +0.08    -0.243 NA 
DOCKED: ATOM     16  C   UNL     1     142.835  77.252 218.618 -0.33 -0.02    +0.035 A  
DOCKED: ATOM     17  C   UNL     1     142.774  74.480 218.787 -0.16 -0.02    +0.071 A  
DOCKED: ATOM     18  C   UNL     1     143.682  76.603 219.517 -0.28 -0.01    +0.013 A  
DOCKED: ATOM     19  C   UNL     1     142.737  73.084 218.862 -0.11 -0.01    +0.032 A  
DOCKED: ATOM     20  C   UNL     1     143.666  75.205 219.607 -0.40 -0.00    +0.003 A  
DOCKED: ATOM     21  C   UNL     1     143.587  72.408 219.743 -0.23 -0.00    +0.041 A  
DOCKED: ATOM     22  C   UNL     1     144.511  74.519 220.491 -0.44 -0.02    +0.049 A  
DOCKED: ATOM     23  C   UNL     1     144.470  73.123 220.557 -0.37 -0.02    +0.123 A  
DOCKED: ATOM     24  F   UNL     1     145.292  72.460 221.407 -0.05 +0.07    -0.207 F  
DOCKED: ENDBRANCH  11  14
DOCKED: ENDBRANCH   9  10
DOCKED: ENDBRANCH   6   9
DOCKED: ENDBRANCH   1   6
DOCKED: BRANCH   5  25
DOCKED: ATOM     25  C   UNL     1     141.794  80.402 218.688 -0.18 -0.17    +0.289 C  
DOCKED: ATOM     26  N   UNL     1     140.665  79.515 218.750 -0.03 +0.15    -0.344 N  
DOCKED: ATOM     27  O   UNL     1     142.210  80.969 219.735 -0.19 +0.12    -0.267 OA 
DOCKED: ATOM     28  H   UNL     1     140.352  79.041 217.873 +0.03 -0.07    +0.164 HD 
DOCKED: BRANCH  26  29
DOCKED: ATOM     29  C   UNL     1     139.863  79.383 219.972 -0.09 -0.03    +0.111 C  
DOCKED: ATOM     30  C   UNL     1     138.383  79.664 219.684 -0.04 -0.01    +0.036 C  
DOCKED: BRANCH  29  31
DOCKED: ATOM     31  C   UNL     1     140.045  77.999 220.578 -0.16 +0.00    -0.007 A  
DOCKED: ATOM     32  C   UNL     1     139.354  76.907 220.020 -0.09 -0.00    +0.011 A  
DOCKED: ATOM     33  C   UNL     1     140.910  77.766 221.674 -0.34 -0.02    +0.049 A  
DOCKED: ATOM     34  C   UNL     1     139.521  75.618 220.527 -0.13 -0.01    +0.047 A  
DOCKED: ATOM     35  C   UNL     1     141.068  76.469 222.177 -0.33 -0.02    +0.067 A  
DOCKED: ATOM     36  C   UNL     1     140.384  75.390 221.613 -0.29 -0.02    +0.120 A  
DOCKED: ATOM     37  Cl  UNL     1     141.829  79.055 222.450 -0.64 +0.04    -0.084 Cl 
DOCKED: BRANCH  36  38
DOCKED: ATOM     38  O   UNL     1     140.589  74.113 222.158 -0.66 -0.02    -0.497 OA 
DOCKED: ATOM     39  C   UNL     1     140.261  72.895 221.499 -0.17 -0.04    +0.278 C  
DOCKED: ENDBRANCH  36  38
DOCKED: ENDBRANCH  29  31
DOCKED: ENDBRANCH  26  29
DOCKED: ENDBRANCH   5  25
DOCKED: BRANCH   3  40
DOCKED: ATOM     40  O   UNL     1     144.128  82.421 215.309 -0.17 +0.51    -0.386 OA 
DOCKED: ATOM     41  H   UNL     1     144.177  81.431 215.251 -0.47 -0.55    +0.211 HD 
DOCKED: ENDBRANCH   3  40
DOCKED: TORSDOF 10
DOCKED: TER
DOCKED: ENDMDL
________________________________________________________________________________


    FINAL DOCKED STATE:
    ________________________


Run:   6 / 20
Time taken for this run:   0.065s

DOCKED: MODEL        6
DOCKED: USER    Run = 6
DOCKED: USER
DOCKED: USER    Estimated Free Energy of Binding    =  -5.35 kcal/mol  [=(1)+(2)+(3)-(4)]
DOCKED: USER
DOCKED: USER    (1) Final Intermolecular Energy     =  -8.33 kcal/mol
DOCKED: USER        vdW + Hbond + desolv Energy     =  -8.16 kcal/mol
DOCKED: USER        Electrostatic Energy            =  -0.17 kcal/mol
DOCKED: USER        Moving Ligand-Fixed Receptor    =  -8.33 kcal/mol
DOCKED: USER        Moving Ligand-Moving Receptor   =  +0.00 kcal/mol
DOCKED: USER    (2) Final Total Internal Energy     =  -5.94 kcal/mol
DOCKED: USER    (3) Torsional Free Energy           =  +2.98 kcal/mol
DOCKED: USER    (4) Unbound System's Energy         =  -5.94 kcal/mol
DOCKED: USER
DOCKED: USER
DOCKED: REMARK SMILES COc1ccc([C@H](C)NC(=O)[C@@H]2C[C@@H](O)C/[N+]2=C(\O)CNC(=O)c2ccc3cc(F)ccc3n2)c(Cl)c1
DOCKED: REMARK SMILES IDX 17 1 16 2 14 3 13 4 12 5 18 6 19 7 20 9 21 10 22 11 23 13
DOCKED: REMARK SMILES IDX 24 14 34 15 25 16 33 17 26 18 32 19 27 20 31 21 28 22 29 23
DOCKED: REMARK SMILES IDX 30 24 10 25 9 26 11 27 7 29 8 30 6 31 5 32 35 33 4 34 37 35
DOCKED: REMARK SMILES IDX 3 36 36 37 2 38 1 39 15 40
DOCKED: REMARK H PARENT 19 8 21 12 9 28 15 41
DOCKED: USER                              x       y       z     vdW  Elec       q    Type
DOCKED: USER                           _______ _______ _______ _____ _____    ______ ____
DOCKED: ROOT
DOCKED: ATOM      1  N   UNL     1     141.679  73.776 219.914 -0.10 +0.04    -0.186 N  
DOCKED: ATOM      2  C   UNL     1     142.494  72.604 219.599 -0.04 -0.06    +0.386 C  
DOCKED: ATOM      3  C   UNL     1     143.934  72.960 219.966 -0.24 -0.03    +0.186 C  
DOCKED: ATOM      4  C   UNL     1     143.967  74.480 220.006 -0.35 -0.05    +0.125 C  
DOCKED: ATOM      5  C   UNL     1     142.529  74.915 220.294 -0.15 -0.14    +0.355 C  
DOCKED: ENDROOT
DOCKED: BRANCH   1   6
DOCKED: ATOM      6  C   UNL     1     140.360  73.731 219.950 -0.04 -0.07    +0.354 C  
DOCKED: BRANCH   6   7
DOCKED: ATOM      7  O   UNL     1     139.597  73.995 218.807 +0.01 +0.10    -0.462 OA 
DOCKED: ATOM      8  H   UNL     1     138.706  74.475 218.821 +0.03 -0.06    +0.299 HD 
DOCKED: ENDBRANCH   6   7
DOCKED: BRANCH   6   9
DOCKED: ATOM      9  C   UNL     1     139.575  73.444 221.208 -0.14 -0.05    +0.269 C  
DOCKED: BRANCH   9  10
DOCKED: ATOM     10  N   UNL     1     139.435  74.628 222.050 -0.15 +0.06    -0.337 N  
DOCKED: ATOM     11  C   UNL     1     139.101  75.901 221.479 -0.17 -0.06    +0.270 C  
DOCKED: ATOM     12  H   UNL     1     139.580  74.546 223.083 -0.51 -0.00    +0.164 HD 
DOCKED: ATOM     13  O   UNL     1     138.494  75.953 220.373 -0.04 +0.06    -0.268 OA 
DOCKED: BRANCH  11  14
DOCKED: ATOM     14  C   UNL     1     139.514  77.148 222.153 -0.27 -0.03    +0.128 A  
DOCKED: ATOM     15  N   UNL     1     140.811  77.558 222.068 -0.23 +0.09    -0.243 NA 
DOCKED: ATOM     16  C   UNL     1     138.579  77.952 222.826 -0.26 -0.01    +0.035 A  
DOCKED: ATOM     17  C   UNL     1     141.237  78.728 222.612 -0.44 -0.03    +0.071 A  
DOCKED: ATOM     18  C   UNL     1     138.987  79.159 223.395 -0.35 -0.00    +0.013 A  
DOCKED: ATOM     19  C   UNL     1     142.578  79.110 222.495 -0.44 -0.02    +0.032 A  
DOCKED: ATOM     20  C   UNL     1     140.323  79.564 223.288 -0.45 -0.00    +0.003 A  
DOCKED: ATOM     21  C   UNL     1     143.009  80.322 223.042 -0.62 -0.01    +0.041 A  
DOCKED: ATOM     22  C   UNL     1     140.766  80.776 223.838 -0.40 -0.01    +0.049 A  
DOCKED: ATOM     23  C   UNL     1     142.107  81.153 223.714 -0.53 -0.02    +0.123 A  
DOCKED: ATOM     24  F   UNL     1     142.533  82.327 224.241 -0.08 +0.00    -0.207 F  
DOCKED: ENDBRANCH  11  14
DOCKED: ENDBRANCH   9  10
DOCKED: ENDBRANCH   6   9
DOCKED: ENDBRANCH   1   6
DOCKED: BRANCH   5  25
DOCKED: ATOM     25  C   UNL     1     142.217  76.185 219.543 -0.18 -0.14    +0.289 C  
DOCKED: ATOM     26  N   UNL     1     140.902  76.434 219.016 -0.01 +0.13    -0.344 N  
DOCKED: ATOM     27  O   UNL     1     143.147  77.010 219.334 -0.29 +0.20    -0.267 OA 
DOCKED: ATOM     28  H   UNL     1     140.143  75.746 219.221 +0.04 -0.05    +0.164 HD 
DOCKED: BRANCH  26  29
DOCKED: ATOM     29  C   UNL     1     140.649  77.541 218.086 -0.06 -0.04    +0.111 C  
DOCKED: ATOM     30  C   UNL     1     139.508  77.191 217.123 -0.02 -0.01    +0.036 C  
DOCKED: BRANCH  29  31
DOCKED: ATOM     31  C   UNL     1     140.338  78.818 218.854 -0.10 +0.00    -0.007 A  
DOCKED: ATOM     32  C   UNL     1     139.110  78.931 219.532 -0.06 -0.00    +0.011 A  
DOCKED: ATOM     33  C   UNL     1     141.258  79.891 218.932 -0.20 -0.02    +0.049 A  
DOCKED: ATOM     34  C   UNL     1     138.804  80.073 220.275 -0.07 -0.01    +0.047 A  
DOCKED: ATOM     35  C   UNL     1     140.940  81.033 219.676 -0.20 -0.02    +0.067 A  
DOCKED: ATOM     36  C   UNL     1     139.722  81.135 220.352 -0.11 -0.03    +0.120 A  
DOCKED: ATOM     37  Cl  UNL     1     142.827  79.858 218.128 -0.24 +0.09    -0.084 Cl 
DOCKED: BRANCH  36  38
DOCKED: ATOM     38  O   UNL     1     139.464  82.303 221.087 -0.04 +0.09    -0.497 OA 
DOCKED: ATOM     39  C   UNL     1     140.350  83.414 221.168 -0.17 -0.04    +0.278 C  
DOCKED: ENDBRANCH  36  38
DOCKED: ENDBRANCH  29  31
DOCKED: ENDBRANCH  26  29
DOCKED: ENDBRANCH   5  25
DOCKED: BRANCH   3  40
DOCKED: ATOM     40  O   UNL     1     144.253  72.453 221.236 -0.14 +0.08    -0.386 OA 
DOCKED: ATOM     41  H   UNL     1     145.071  71.899 221.125 -0.36 -0.09    +0.211 HD 
DOCKED: ENDBRANCH   3  40
DOCKED: TORSDOF 10
DOCKED: TER
DOCKED: ENDMDL
________________________________________________________________________________


    FINAL DOCKED STATE:
    ________________________


Run:   7 / 20
Time taken for this run:   0.065s

DOCKED: MODEL        7
DOCKED: USER    Run = 7
DOCKED: USER
DOCKED: USER    Estimated Free Energy of Binding    =  -6.41 kcal/mol  [=(1)+(2)+(3)-(4)]
DOCKED: USER
DOCKED: USER    (1) Final Intermolecular Energy     =  -9.39 kcal/mol
DOCKED: USER        vdW + Hbond + desolv Energy     =  -9.14 kcal/mol
DOCKED: USER        Electrostatic Energy            =  -0.25 kcal/mol
DOCKED: USER        Moving Ligand-Fixed Receptor    =  -9.39 kcal/mol
DOCKED: USER        Moving Ligand-Moving Receptor   =  +0.00 kcal/mol
DOCKED: USER    (2) Final Total Internal Energy     =  -3.11 kcal/mol
DOCKED: USER    (3) Torsional Free Energy           =  +2.98 kcal/mol
DOCKED: USER    (4) Unbound System's Energy         =  -3.11 kcal/mol
DOCKED: USER
DOCKED: USER
DOCKED: REMARK SMILES COc1ccc([C@H](C)NC(=O)[C@@H]2C[C@@H](O)C/[N+]2=C(\O)CNC(=O)c2ccc3cc(F)ccc3n2)c(Cl)c1
DOCKED: REMARK SMILES IDX 17 1 16 2 14 3 13 4 12 5 18 6 19 7 20 9 21 10 22 11 23 13
DOCKED: REMARK SMILES IDX 24 14 34 15 25 16 33 17 26 18 32 19 27 20 31 21 28 22 29 23
DOCKED: REMARK SMILES IDX 30 24 10 25 9 26 11 27 7 29 8 30 6 31 5 32 35 33 4 34 37 35
DOCKED: REMARK SMILES IDX 3 36 36 37 2 38 1 39 15 40
DOCKED: REMARK H PARENT 19 8 21 12 9 28 15 41
DOCKED: USER                              x       y       z     vdW  Elec       q    Type
DOCKED: USER                           _______ _______ _______ _____ _____    ______ ____
DOCKED: ROOT
DOCKED: ATOM      1  N   UNL     1     134.820  73.042 221.943 -0.02 +0.03    -0.186 N  
DOCKED: ATOM      2  C   UNL     1     133.671  72.927 221.047 +0.00 -0.06    +0.386 C  
DOCKED: ATOM      3  C   UNL     1     132.999  71.592 221.365 +0.00 -0.03    +0.186 C  
DOCKED: ATOM      4  C   UNL     1     134.066  70.772 222.075 -0.01 -0.02    +0.125 C  
DOCKED: ATOM      5  C   UNL     1     135.026  71.792 222.690 -0.02 -0.06    +0.355 C  
DOCKED: ENDROOT
DOCKED: BRANCH   1   6
DOCKED: ATOM      6  C   UNL     1     135.478  74.175 222.107 -0.04 -0.07    +0.354 C  
DOCKED: BRANCH   6   7
DOCKED: ATOM      7  O   UNL     1     136.460  74.303 223.096 -0.05 +0.17    -0.462 OA 
DOCKED: ATOM      8  H   UNL     1     137.450  74.182 222.928 -0.39 -0.17    +0.299 HD 
DOCKED: ENDBRANCH   6   7
DOCKED: BRANCH   6   9
DOCKED: ATOM      9  C   UNL     1     135.205  75.417 221.293 -0.02 -0.05    +0.269 C  
DOCKED: BRANCH   9  10
DOCKED: ATOM     10  N   UNL     1     136.360  76.307 221.246 -0.02 +0.06    -0.337 N  
DOCKED: ATOM     11  C   UNL     1     137.695  75.782 221.252 -0.09 -0.06    +0.270 C  
DOCKED: ATOM     12  H   UNL     1     136.212  77.342 221.206 +0.02 -0.03    +0.164 HD 
DOCKED: ATOM     13  O   UNL     1     137.907  74.604 220.849 -0.06 +0.06    -0.268 OA 
DOCKED: BRANCH  11  14
DOCKED: ATOM     14  C   UNL     1     138.810  76.593 221.779 -0.21 -0.03    +0.128 A  
DOCKED: ATOM     15  N   UNL     1     138.602  77.908 222.070 -0.12 +0.05    -0.243 NA 
DOCKED: ATOM     16  C   UNL     1     140.063  76.017 222.046 -0.35 -0.01    +0.035 A  
DOCKED: ATOM     17  C   UNL     1     139.568  78.690 222.618 -0.30 -0.01    +0.071 A  
DOCKED: ATOM     18  C   UNL     1     141.076  76.795 222.608 -0.35 -0.00    +0.013 A  
DOCKED: ATOM     19  C   UNL     1     139.308  80.034 222.905 -0.32 -0.01    +0.032 A  
DOCKED: ATOM     20  C   UNL     1     140.837  78.142 222.907 -0.46 -0.00    +0.003 A  
DOCKED: ATOM     21  C   UNL     1     140.300  80.831 223.482 -0.41 -0.01    +0.041 A  
DOCKED: ATOM     22  C   UNL     1     141.828  78.951 223.482 -0.58 -0.02    +0.049 A  
DOCKED: ATOM     23  C   UNL     1     141.558  80.293 223.769 -0.47 -0.02    +0.123 A  
DOCKED: ATOM     24  F   UNL     1     142.515  81.072 224.330 -0.18 +0.03    -0.207 F  
DOCKED: ENDBRANCH  11  14
DOCKED: ENDBRANCH   9  10
DOCKED: ENDBRANCH   6   9
DOCKED: ENDBRANCH   1   6
DOCKED: BRANCH   5  25
DOCKED: ATOM     25  C   UNL     1     136.439  71.269 222.627 -0.06 -0.05    +0.289 C  
DOCKED: ATOM     26  N   UNL     1     137.480  71.840 223.437 -0.06 +0.11    -0.344 N  
DOCKED: ATOM     27  O   UNL     1     136.710  70.351 221.806 -0.03 +0.04    -0.267 OA 
DOCKED: ATOM     28  H   UNL     1     137.227  72.585 224.125 -0.51 -0.10    +0.164 HD 
DOCKED: BRANCH  26  29
DOCKED: ATOM     29  C   UNL     1     138.892  71.508 223.212 -0.23 -0.03    +0.111 C  
DOCKED: ATOM     30  C   UNL     1     139.650  72.714 222.642 -0.18 -0.01    +0.036 C  
DOCKED: BRANCH  29  31
DOCKED: ATOM     31  C   UNL     1     139.535  71.025 224.504 -0.43 +0.00    -0.007 A  
DOCKED: ATOM     32  C   UNL     1     140.634  71.730 225.031 -0.44 -0.00    +0.011 A  
DOCKED: ATOM     33  C   UNL     1     139.046  69.901 225.213 -0.36 -0.01    +0.049 A  
DOCKED: ATOM     34  C   UNL     1     141.228  71.337 226.232 -0.62 -0.01    +0.047 A  
DOCKED: ATOM     35  C   UNL     1     139.652  69.514 226.414 -0.45 -0.01    +0.067 A  
DOCKED: ATOM     36  C   UNL     1     140.738  70.222 226.934 -0.49 -0.02    +0.120 A  
DOCKED: ATOM     37  Cl  UNL     1     137.675  68.947 224.651 -0.31 +0.00    -0.084 Cl 
DOCKED: BRANCH  36  38
DOCKED: ATOM     38  O   UNL     1     141.297  69.789 228.145 -0.13 +0.10    -0.497 OA 
DOCKED: ATOM     39  C   UNL     1     141.084  68.502 228.714 -0.36 -0.07    +0.278 C  
DOCKED: ENDBRANCH  36  38
DOCKED: ENDBRANCH  29  31
DOCKED: ENDBRANCH  26  29
DOCKED: ENDBRANCH   5  25
DOCKED: BRANCH   3  40
DOCKED: ATOM     40  O   UNL     1     131.909  71.788 222.229 +0.00 +0.05    -0.386 OA 
DOCKED: ATOM     41  H   UNL     1     131.088  71.660 221.686 +0.00 -0.03    +0.211 HD 
DOCKED: ENDBRANCH   3  40
DOCKED: TORSDOF 10
DOCKED: TER
DOCKED: ENDMDL
________________________________________________________________________________


    FINAL DOCKED STATE:
    ________________________


Run:   8 / 20
Time taken for this run:   0.065s

DOCKED: MODEL        8
DOCKED: USER    Run = 8
DOCKED: USER
DOCKED: USER    Estimated Free Energy of Binding    =  -7.57 kcal/mol  [=(1)+(2)+(3)-(4)]
DOCKED: USER
DOCKED: USER    (1) Final Intermolecular Energy     = -10.55 kcal/mol
DOCKED: USER        vdW + Hbond + desolv Energy     = -10.07 kcal/mol
DOCKED: USER        Electrostatic Energy            =  -0.48 kcal/mol
DOCKED: USER        Moving Ligand-Fixed Receptor    = -10.55 kcal/mol
DOCKED: USER        Moving Ligand-Moving Receptor   =  +0.00 kcal/mol
DOCKED: USER    (2) Final Total Internal Energy     =  -3.57 kcal/mol
DOCKED: USER    (3) Torsional Free Energy           =  +2.98 kcal/mol
DOCKED: USER    (4) Unbound System's Energy         =  -3.57 kcal/mol
DOCKED: USER
DOCKED: USER
DOCKED: REMARK SMILES COc1ccc([C@H](C)NC(=O)[C@@H]2C[C@@H](O)C/[N+]2=C(\O)CNC(=O)c2ccc3cc(F)ccc3n2)c(Cl)c1
DOCKED: REMARK SMILES IDX 17 1 16 2 14 3 13 4 12 5 18 6 19 7 20 9 21 10 22 11 23 13
DOCKED: REMARK SMILES IDX 24 14 34 15 25 16 33 17 26 18 32 19 27 20 31 21 28 22 29 23
DOCKED: REMARK SMILES IDX 30 24 10 25 9 26 11 27 7 29 8 30 6 31 5 32 35 33 4 34 37 35
DOCKED: REMARK SMILES IDX 3 36 36 37 2 38 1 39 15 40
DOCKED: REMARK H PARENT 19 8 21 12 9 28 15 41
DOCKED: USER                              x       y       z     vdW  Elec       q    Type
DOCKED: USER                           _______ _______ _______ _____ _____    ______ ____
DOCKED: ROOT
DOCKED: ATOM      1  N   UNL     1     141.914  74.395 218.657 -0.04 +0.05    -0.186 N  
DOCKED: ATOM      2  C   UNL     1     142.279  74.306 217.245 +0.01 -0.11    +0.386 C  
DOCKED: ATOM      3  C   UNL     1     143.265  75.442 216.975 -0.12 -0.08    +0.186 C  
DOCKED: ATOM      4  C   UNL     1     143.044  76.434 218.107 -0.24 -0.07    +0.125 C  
DOCKED: ATOM      5  C   UNL     1     142.466  75.615 219.263 -0.13 -0.16    +0.355 C  
DOCKED: ENDROOT
DOCKED: BRANCH   1   6
DOCKED: ATOM      6  C   UNL     1     141.272  73.425 219.283 -0.01 -0.08    +0.354 C  
DOCKED: BRANCH   6   7
DOCKED: ATOM      7  O   UNL     1     139.882  73.469 219.449 +0.01 +0.09    -0.462 OA 
DOCKED: ATOM      8  H   UNL     1     139.420  73.415 220.347 +0.06 -0.06    +0.299 HD 
DOCKED: ENDBRANCH   6   7
DOCKED: BRANCH   6   9
DOCKED: ATOM      9  C   UNL     1     141.967  72.235 219.901 -0.08 -0.04    +0.269 C  
DOCKED: BRANCH   9  10
DOCKED: ATOM     10  N   UNL     1     141.123  71.553 220.877 -0.07 +0.04    -0.337 N  
DOCKED: ATOM     11  C   UNL     1     140.709  72.215 222.081 -0.19 -0.03    +0.270 C  
DOCKED: ATOM     12  H   UNL     1     140.816  70.570 220.696 +0.04 -0.02    +0.164 HD 
DOCKED: ATOM     13  O   UNL     1     140.664  73.476 222.120 -0.72 +0.00    -0.268 OA 
DOCKED: BRANCH  11  14
DOCKED: ATOM     14  C   UNL     1     140.387  71.428 223.287 -0.29 -0.02    +0.128 A  
DOCKED: ATOM     15  N   UNL     1     140.825  71.858 224.504 -0.18 +0.02    -0.243 NA 
DOCKED: ATOM     16  C   UNL     1     139.583  70.279 223.210 -0.25 -0.01    +0.035 A  
DOCKED: ATOM     17  C   UNL     1     140.507  71.214 225.657 -0.53 -0.01    +0.071 A  
DOCKED: ATOM     18  C   UNL     1     139.241  69.595 224.377 -0.33 -0.00    +0.013 A  
DOCKED: ATOM     19  C   UNL     1     140.976  71.695 226.885 -0.73 -0.01    +0.032 A  
DOCKED: ATOM     20  C   UNL     1     139.695  70.060 225.617 -0.46 -0.00    +0.003 A  
DOCKED: ATOM     21  C   UNL     1     140.633  71.038 228.069 -0.68 -0.01    +0.041 A  
DOCKED: ATOM     22  C   UNL     1     139.361  69.404 226.812 -0.46 -0.01    +0.049 A  
DOCKED: ATOM     23  C   UNL     1     139.830  69.894 228.035 -0.51 -0.02    +0.123 A  
DOCKED: ATOM     24  F   UNL     1     139.502  69.263 229.189 -0.08 +0.03    -0.207 F  
DOCKED: ENDBRANCH  11  14
DOCKED: ENDBRANCH   9  10
DOCKED: ENDBRANCH   6   9
DOCKED: ENDBRANCH   1   6
DOCKED: BRANCH   5  25
DOCKED: ATOM     25  C   UNL     1     141.449  76.437 220.015 -0.14 -0.13    +0.289 C  
DOCKED: ATOM     26  N   UNL     1     140.485  75.815 220.882 -0.10 +0.10    -0.344 N  
DOCKED: ATOM     27  O   UNL     1     141.420  77.683 219.830 -0.14 +0.13    -0.267 OA 
DOCKED: ATOM     28  H   UNL     1     140.543  74.783 221.036 +0.05 -0.03    +0.164 HD 
DOCKED: BRANCH  26  29
DOCKED: ATOM     29  C   UNL     1     139.349  76.568 221.425 -0.21 -0.03    +0.111 C  
DOCKED: ATOM     30  C   UNL     1     138.506  75.685 222.354 -0.26 -0.01    +0.036 C  
DOCKED: BRANCH  29  31
DOCKED: ATOM     31  C   UNL     1     139.837  77.811 222.156 -0.33 +0.00    -0.007 A  
DOCKED: ATOM     32  C   UNL     1     141.039  77.752 222.886 -0.44 -0.00    +0.011 A  
DOCKED: ATOM     33  C   UNL     1     139.135  79.039 222.103 -0.22 -0.01    +0.049 A  
DOCKED: ATOM     34  C   UNL     1     141.536  78.880 223.541 -0.56 -0.01    +0.047 A  
DOCKED: ATOM     35  C   UNL     1     139.640  80.163 222.766 -0.30 -0.01    +0.067 A  
DOCKED: ATOM     36  C   UNL     1     140.837  80.098 223.484 -0.42 -0.02    +0.120 A  
DOCKED: ATOM     37  Cl  UNL     1     137.624  79.231 221.216 -0.10 +0.02    -0.084 Cl 
DOCKED: BRANCH  36  38
DOCKED: ATOM     38  O   UNL     1     141.295  81.261 224.121 -0.14 +0.05    -0.497 OA 
DOCKED: ATOM     39  C   UNL     1     142.664  81.638 224.220 -0.19 -0.03    +0.278 C  
DOCKED: ENDBRANCH  36  38
DOCKED: ENDBRANCH  29  31
DOCKED: ENDBRANCH  26  29
DOCKED: ENDBRANCH   5  25
DOCKED: BRANCH   3  40
DOCKED: ATOM     40  O   UNL     1     144.585  74.964 217.025 -0.05 +0.18    -0.386 OA 
DOCKED: ATOM     41  H   UNL     1     145.138  75.695 217.409 -0.51 -0.19    +0.211 HD 
DOCKED: ENDBRANCH   3  40
DOCKED: TORSDOF 10
DOCKED: TER
DOCKED: ENDMDL
________________________________________________________________________________


    FINAL DOCKED STATE:
    ________________________


Run:   9 / 20
Time taken for this run:   0.065s

DOCKED: MODEL        9
DOCKED: USER    Run = 9
DOCKED: USER
DOCKED: USER    Estimated Free Energy of Binding    =  -8.61 kcal/mol  [=(1)+(2)+(3)-(4)]
DOCKED: USER
DOCKED: USER    (1) Final Intermolecular Energy     = -11.60 kcal/mol
DOCKED: USER        vdW + Hbond + desolv Energy     = -11.01 kcal/mol
DOCKED: USER        Electrostatic Energy            =  -0.59 kcal/mol
DOCKED: USER        Moving Ligand-Fixed Receptor    = -11.60 kcal/mol
DOCKED: USER        Moving Ligand-Moving Receptor   =  +0.00 kcal/mol
DOCKED: USER    (2) Final Total Internal Energy     =  -2.55 kcal/mol
DOCKED: USER    (3) Torsional Free Energy           =  +2.98 kcal/mol
DOCKED: USER    (4) Unbound System's Energy         =  -2.55 kcal/mol
DOCKED: USER
DOCKED: USER
DOCKED: REMARK SMILES COc1ccc([C@H](C)NC(=O)[C@@H]2C[C@@H](O)C/[N+]2=C(\O)CNC(=O)c2ccc3cc(F)ccc3n2)c(Cl)c1
DOCKED: REMARK SMILES IDX 17 1 16 2 14 3 13 4 12 5 18 6 19 7 20 9 21 10 22 11 23 13
DOCKED: REMARK SMILES IDX 24 14 34 15 25 16 33 17 26 18 32 19 27 20 31 21 28 22 29 23
DOCKED: REMARK SMILES IDX 30 24 10 25 9 26 11 27 7 29 8 30 6 31 5 32 35 33 4 34 37 35
DOCKED: REMARK SMILES IDX 3 36 36 37 2 38 1 39 15 40
DOCKED: REMARK H PARENT 19 8 21 12 9 28 15 41
DOCKED: USER                              x       y       z     vdW  Elec       q    Type
DOCKED: USER                           _______ _______ _______ _____ _____    ______ ____
DOCKED: ROOT
DOCKED: ATOM      1  N   UNL     1     141.587  75.045 219.075 -0.06 +0.06    -0.186 N  
DOCKED: ATOM      2  C   UNL     1     141.775  75.175 217.632 -0.00 -0.13    +0.386 C  
DOCKED: ATOM      3  C   UNL     1     142.773  76.312 217.420 -0.16 -0.10    +0.186 C  
DOCKED: ATOM      4  C   UNL     1     142.738  77.114 218.713 -0.28 -0.08    +0.125 C  
DOCKED: ATOM      5  C   UNL     1     142.265  76.136 219.790 -0.16 -0.18    +0.355 C  
DOCKED: ENDROOT
DOCKED: BRANCH   1   6
DOCKED: ATOM      6  C   UNL     1     140.980  74.005 219.618 -0.03 -0.08    +0.354 C  
DOCKED: BRANCH   6   7
DOCKED: ATOM      7  O   UNL     1     139.607  74.031 219.890 +0.00 +0.10    -0.462 OA 
DOCKED: ATOM      8  H   UNL     1     139.197  74.508 220.682 +0.07 -0.06    +0.299 HD 
DOCKED: ENDBRANCH   6   7
DOCKED: BRANCH   6   9
DOCKED: ATOM      9  C   UNL     1     141.703  72.745 220.028 -0.09 -0.05    +0.269 C  
DOCKED: BRANCH   9  10
DOCKED: ATOM     10  N   UNL     1     140.916  71.937 220.953 -0.08 +0.05    -0.337 N  
DOCKED: ATOM     11  C   UNL     1     140.470  72.477 222.206 -0.20 -0.03    +0.270 C  
DOCKED: ATOM     12  H   UNL     1     140.672  70.951 220.700 +0.04 -0.02    +0.164 HD 
DOCKED: ATOM     13  O   UNL     1     140.343  73.726 222.340 -0.82 -0.01    -0.268 OA 
DOCKED: BRANCH  11  14
DOCKED: ATOM     14  C   UNL     1     140.213  71.582 223.351 -0.32 -0.02    +0.128 A  
DOCKED: ATOM     15  N   UNL     1     140.725  71.896 224.574 -0.24 +0.03    -0.243 NA 
DOCKED: ATOM     16  C   UNL     1     139.396  70.448 223.215 -0.26 -0.01    +0.035 A  
DOCKED: ATOM     17  C   UNL     1     140.469  71.148 225.679 -0.53 -0.01    +0.071 A  
DOCKED: ATOM     18  C   UNL     1     139.117  69.659 224.332 -0.33 -0.00    +0.013 A  
DOCKED: ATOM     19  C   UNL     1     141.012  71.511 226.916 -0.72 -0.01    +0.032 A  
DOCKED: ATOM     20  C   UNL     1     139.646  70.005 225.581 -0.45 -0.00    +0.003 A  
DOCKED: ATOM     21  C   UNL     1     140.734  70.747 228.053 -0.64 -0.01    +0.041 A  
DOCKED: ATOM     22  C   UNL     1     139.377  69.242 226.727 -0.47 -0.01    +0.049 A  
DOCKED: ATOM     23  C   UNL     1     139.921  69.614 227.960 -0.52 -0.02    +0.123 A  
DOCKED: ATOM     24  F   UNL     1     139.655  68.879 229.068 -0.12 +0.03    -0.207 F  
DOCKED: ENDBRANCH  11  14
DOCKED: ENDBRANCH   9  10
DOCKED: ENDBRANCH   6   9
DOCKED: ENDBRANCH   1   6
DOCKED: BRANCH   5  25
DOCKED: ATOM     25  C   UNL     1     141.387  76.853 220.784 -0.17 -0.14    +0.289 C  
DOCKED: ATOM     26  N   UNL     1     141.780  78.116 221.348 -0.14 +0.21    -0.344 N  
DOCKED: ATOM     27  O   UNL     1     140.317  76.301 221.158 -0.16 +0.08    -0.267 OA 
DOCKED: ATOM     28  H   UNL     1     142.659  78.565 221.006 -0.38 -0.16    +0.164 HD 
DOCKED: BRANCH  26  29
DOCKED: ATOM     29  C   UNL     1     141.059  78.702 222.484 -0.40 -0.04    +0.111 C  
DOCKED: ATOM     30  C   UNL     1     141.872  78.557 223.777 -0.51 -0.01    +0.036 C  
DOCKED: BRANCH  29  31
DOCKED: ATOM     31  C   UNL     1     140.735  80.164 222.209 -0.36 +0.00    -0.007 A  
DOCKED: ATOM     32  C   UNL     1     141.671  80.959 221.520 -0.41 -0.00    +0.011 A  
DOCKED: ATOM     33  C   UNL     1     139.506  80.748 222.601 -0.28 -0.01    +0.049 A  
DOCKED: ATOM     34  C   UNL     1     141.394  82.293 221.220 -0.33 -0.01    +0.047 A  
DOCKED: ATOM     35  C   UNL     1     139.241  82.088 222.297 -0.16 -0.01    +0.067 A  
DOCKED: ATOM     36  C   UNL     1     140.172  82.869 221.608 -0.21 -0.02    +0.120 A  
DOCKED: ATOM     37  Cl  UNL     1     138.259  79.849 223.463 -0.39 +0.01    -0.084 Cl 
DOCKED: BRANCH  36  38
DOCKED: ATOM     38  O   UNL     1     139.844  84.204 221.328 -0.07 +0.07    -0.497 OA 
DOCKED: ATOM     39  C   UNL     1     140.334  84.934 220.209 -0.13 -0.06    +0.278 C  
DOCKED: ENDBRANCH  36  38
DOCKED: ENDBRANCH  29  31
DOCKED: ENDBRANCH  26  29
DOCKED: ENDBRANCH   5  25
DOCKED: BRANCH   3  40
DOCKED: ATOM     40  O   UNL     1     144.066  75.796 217.227 -0.12 +0.23    -0.386 OA 
DOCKED: ATOM     41  H   UNL     1     144.657  76.260 217.877 -0.40 -0.18    +0.211 HD 
DOCKED: ENDBRANCH   3  40
DOCKED: TORSDOF 10
DOCKED: TER
DOCKED: ENDMDL
________________________________________________________________________________


    FINAL DOCKED STATE:
    ________________________


Run:   10 / 20
Time taken for this run:   0.065s

DOCKED: MODEL        10
DOCKED: USER    Run = 10
DOCKED: USER
DOCKED: USER    Estimated Free Energy of Binding    =  -8.60 kcal/mol  [=(1)+(2)+(3)-(4)]
DOCKED: USER
DOCKED: USER    (1) Final Intermolecular Energy     = -11.59 kcal/mol
DOCKED: USER        vdW + Hbond + desolv Energy     = -11.00 kcal/mol
DOCKED: USER        Electrostatic Energy            =  -0.59 kcal/mol
DOCKED: USER        Moving Ligand-Fixed Receptor    = -11.59 kcal/mol
DOCKED: USER        Moving Ligand-Moving Receptor   =  +0.00 kcal/mol
DOCKED: USER    (2) Final Total Internal Energy     =  -2.58 kcal/mol
DOCKED: USER    (3) Torsional Free Energy           =  +2.98 kcal/mol
DOCKED: USER    (4) Unbound System's Energy         =  -2.58 kcal/mol
DOCKED: USER
DOCKED: USER
DOCKED: REMARK SMILES COc1ccc([C@H](C)NC(=O)[C@@H]2C[C@@H](O)C/[N+]2=C(\O)CNC(=O)c2ccc3cc(F)ccc3n2)c(Cl)c1
DOCKED: REMARK SMILES IDX 17 1 16 2 14 3 13 4 12 5 18 6 19 7 20 9 21 10 22 11 23 13
DOCKED: REMARK SMILES IDX 24 14 34 15 25 16 33 17 26 18 32 19 27 20 31 21 28 22 29 23
DOCKED: REMARK SMILES IDX 30 24 10 25 9 26 11 27 7 29 8 30 6 31 5 32 35 33 4 34 37 35
DOCKED: REMARK SMILES IDX 3 36 36 37 2 38 1 39 15 40
DOCKED: REMARK H PARENT 19 8 21 12 9 28 15 41
DOCKED: USER                              x       y       z     vdW  Elec       q    Type
DOCKED: USER                           _______ _______ _______ _____ _____    ______ ____
DOCKED: ROOT
DOCKED: ATOM      1  N   UNL     1     141.419  74.989 219.129 -0.06 +0.06    -0.186 N  
DOCKED: ATOM      2  C   UNL     1     141.717  75.135 217.705 -0.00 -0.13    +0.386 C  
DOCKED: ATOM      3  C   UNL     1     142.859  76.144 217.597 -0.17 -0.10    +0.186 C  
DOCKED: ATOM      4  C   UNL     1     142.836  76.909 218.912 -0.29 -0.08    +0.125 C  
DOCKED: ATOM      5  C   UNL     1     142.177  75.968 219.923 -0.15 -0.17    +0.355 C  
DOCKED: ENDROOT
DOCKED: BRANCH   1   6
DOCKED: ATOM      6  C   UNL     1     140.655  74.018 219.596 -0.02 -0.08    +0.354 C  
DOCKED: BRANCH   6   7
DOCKED: ATOM      7  O   UNL     1     139.335  74.265 219.991 -0.00 +0.10    -0.462 OA 
DOCKED: ATOM      8  H   UNL     1     139.064  74.502 220.937 +0.07 -0.06    +0.299 HD 
DOCKED: ENDBRANCH   6   7
DOCKED: BRANCH   6   9
DOCKED: ATOM      9  C   UNL     1     141.139  72.601 219.783 -0.05 -0.05    +0.269 C  
DOCKED: BRANCH   9  10
DOCKED: ATOM     10  N   UNL     1     140.415  71.910 220.845 -0.06 +0.05    -0.337 N  
DOCKED: ATOM     11  C   UNL     1     140.351  72.458 222.170 -0.20 -0.03    +0.270 C  
DOCKED: ATOM     12  H   UNL     1     139.934  71.004 220.637 +0.03 -0.03    +0.164 HD 
DOCKED: ATOM     13  O   UNL     1     140.504  73.699 222.343 -0.79 -0.01    -0.268 OA 
DOCKED: BRANCH  11  14
DOCKED: ATOM     14  C   UNL     1     140.162  71.568 223.332 -0.31 -0.02    +0.128 A  
DOCKED: ATOM     15  N   UNL     1     140.696  71.918 224.537 -0.23 +0.03    -0.243 NA 
DOCKED: ATOM     16  C   UNL     1     139.387  70.401 223.234 -0.26 -0.01    +0.035 A  
DOCKED: ATOM     17  C   UNL     1     140.502  71.175 225.657 -0.53 -0.01    +0.071 A  
DOCKED: ATOM     18  C   UNL     1     139.171  69.617 224.368 -0.33 -0.00    +0.013 A  
DOCKED: ATOM     19  C   UNL     1     141.065  71.576 226.874 -0.72 -0.01    +0.032 A  
DOCKED: ATOM     20  C   UNL     1     139.722  70.000 225.596 -0.46 -0.00    +0.003 A  
DOCKED: ATOM     21  C   UNL     1     140.850  70.816 228.027 -0.65 -0.01    +0.041 A  
DOCKED: ATOM     22  C   UNL     1     139.516  69.242 226.759 -0.49 -0.01    +0.049 A  
DOCKED: ATOM     23  C   UNL     1     140.080  69.651 227.971 -0.52 -0.02    +0.123 A  
DOCKED: ATOM     24  F   UNL     1     139.875  68.921 229.095 -0.13 +0.03    -0.207 F  
DOCKED: ENDBRANCH  11  14
DOCKED: ENDBRANCH   9  10
DOCKED: ENDBRANCH   6   9
DOCKED: ENDBRANCH   1   6
DOCKED: BRANCH   5  25
DOCKED: ATOM     25  C   UNL     1     141.328  76.761 220.884 -0.17 -0.14    +0.289 C  
DOCKED: ATOM     26  N   UNL     1     141.759  78.044 221.372 -0.13 +0.21    -0.344 N  
DOCKED: ATOM     27  O   UNL     1     140.251  76.257 221.301 -0.18 +0.07    -0.267 OA 
DOCKED: ATOM     28  H   UNL     1     142.645  78.450 220.996 -0.37 -0.16    +0.164 HD 
DOCKED: BRANCH  26  29
DOCKED: ATOM     29  C   UNL     1     141.067  78.710 222.481 -0.40 -0.04    +0.111 C  
DOCKED: ATOM     30  C   UNL     1     141.887  78.607 223.774 -0.52 -0.01    +0.036 C  
DOCKED: BRANCH  29  31
DOCKED: ATOM     31  C   UNL     1     140.786  80.165 222.133 -0.35 +0.00    -0.007 A  
DOCKED: ATOM     32  C   UNL     1     141.641  80.837 221.240 -0.38 -0.00    +0.011 A  
DOCKED: ATOM     33  C   UNL     1     139.671  80.862 222.658 -0.30 -0.01    +0.049 A  
DOCKED: ATOM     34  C   UNL     1     141.396  82.160 220.870 -0.31 -0.01    +0.047 A  
DOCKED: ATOM     35  C   UNL     1     139.436  82.190 222.284 -0.13 -0.01    +0.067 A  
DOCKED: ATOM     36  C   UNL     1     140.286  82.847 221.392 -0.23 -0.02    +0.120 A  
DOCKED: ATOM     37  Cl  UNL     1     138.530  80.121 223.780 -0.46 +0.01    -0.084 Cl 
DOCKED: BRANCH  36  38
DOCKED: ATOM     38  O   UNL     1     139.994  84.177 221.050 -0.08 +0.08    -0.497 OA 
DOCKED: ATOM     39  C   UNL     1     140.586  84.876 219.961 -0.10 -0.06    +0.278 C  
DOCKED: ENDBRANCH  36  38
DOCKED: ENDBRANCH  29  31
DOCKED: ENDBRANCH  26  29
DOCKED: ENDBRANCH   5  25
DOCKED: BRANCH   3  40
DOCKED: ATOM     40  O   UNL     1     144.089  75.477 217.468 -0.09 +0.21    -0.386 OA 
DOCKED: ATOM     41  H   UNL     1     144.792  76.179 217.446 -0.46 -0.17    +0.211 HD 
DOCKED: ENDBRANCH   3  40
DOCKED: TORSDOF 10
DOCKED: TER
DOCKED: ENDMDL
________________________________________________________________________________


    FINAL DOCKED STATE:
    ________________________


Run:   11 / 20
Time taken for this run:   0.065s

DOCKED: MODEL        11
DOCKED: USER    Run = 11
DOCKED: USER
DOCKED: USER    Estimated Free Energy of Binding    =  -5.34 kcal/mol  [=(1)+(2)+(3)-(4)]
DOCKED: USER
DOCKED: USER    (1) Final Intermolecular Energy     =  -8.33 kcal/mol
DOCKED: USER        vdW + Hbond + desolv Energy     =  -8.14 kcal/mol
DOCKED: USER        Electrostatic Energy            =  -0.19 kcal/mol
DOCKED: USER        Moving Ligand-Fixed Receptor    =  -8.33 kcal/mol
DOCKED: USER        Moving Ligand-Moving Receptor   =  +0.00 kcal/mol
DOCKED: USER    (2) Final Total Internal Energy     =  -5.89 kcal/mol
DOCKED: USER    (3) Torsional Free Energy           =  +2.98 kcal/mol
DOCKED: USER    (4) Unbound System's Energy         =  -5.89 kcal/mol
DOCKED: USER
DOCKED: USER
DOCKED: REMARK SMILES COc1ccc([C@H](C)NC(=O)[C@@H]2C[C@@H](O)C/[N+]2=C(\O)CNC(=O)c2ccc3cc(F)ccc3n2)c(Cl)c1
DOCKED: REMARK SMILES IDX 17 1 16 2 14 3 13 4 12 5 18 6 19 7 20 9 21 10 22 11 23 13
DOCKED: REMARK SMILES IDX 24 14 34 15 25 16 33 17 26 18 32 19 27 20 31 21 28 22 29 23
DOCKED: REMARK SMILES IDX 30 24 10 25 9 26 11 27 7 29 8 30 6 31 5 32 35 33 4 34 37 35
DOCKED: REMARK SMILES IDX 3 36 36 37 2 38 1 39 15 40
DOCKED: REMARK H PARENT 19 8 21 12 9 28 15 41
DOCKED: USER                              x       y       z     vdW  Elec       q    Type
DOCKED: USER                           _______ _______ _______ _____ _____    ______ ____
DOCKED: ROOT
DOCKED: ATOM      1  N   UNL     1     141.574  73.782 219.895 -0.09 +0.04    -0.186 N  
DOCKED: ATOM      2  C   UNL     1     142.301  72.549 219.598 -0.04 -0.06    +0.386 C  
DOCKED: ATOM      3  C   UNL     1     143.766  72.812 219.940 -0.22 -0.03    +0.186 C  
DOCKED: ATOM      4  C   UNL     1     143.906  74.327 219.945 -0.33 -0.04    +0.125 C  
DOCKED: ATOM      5  C   UNL     1     142.505  74.867 220.238 -0.15 -0.13    +0.355 C  
DOCKED: ENDROOT
DOCKED: BRANCH   1   6
DOCKED: ATOM      6  C   UNL     1     140.255  73.830 219.946 -0.03 -0.07    +0.354 C  
DOCKED: BRANCH   6   7
DOCKED: ATOM      7  O   UNL     1     139.501  74.196 218.825 +0.01 +0.10    -0.462 OA 
DOCKED: ATOM      8  H   UNL     1     138.597  74.648 218.875 +0.03 -0.06    +0.299 HD 
DOCKED: ENDBRANCH   6   7
DOCKED: BRANCH   6   9
DOCKED: ATOM      9  C   UNL     1     139.464  73.547 221.201 -0.13 -0.05    +0.269 C  
DOCKED: BRANCH   9  10
DOCKED: ATOM     10  N   UNL     1     139.361  74.722 222.061 -0.15 +0.06    -0.337 N  
DOCKED: ATOM     11  C   UNL     1     138.981  75.997 221.523 -0.17 -0.06    +0.270 C  
DOCKED: ATOM     12  H   UNL     1     139.567  74.632 223.083 -0.51 -0.01    +0.164 HD 
DOCKED: ATOM     13  O   UNL     1     138.309  76.051 220.455 -0.04 +0.06    -0.268 OA 
DOCKED: BRANCH  11  14
DOCKED: ATOM     14  C   UNL     1     139.418  77.241 222.184 -0.27 -0.03    +0.128 A  
DOCKED: ATOM     15  N   UNL     1     140.729  77.609 222.119 -0.23 +0.09    -0.243 NA 
DOCKED: ATOM     16  C   UNL     1     138.496  78.086 222.823 -0.26 -0.01    +0.035 A  
DOCKED: ATOM     17  C   UNL     1     141.181  78.775 222.650 -0.44 -0.02    +0.071 A  
DOCKED: ATOM     18  C   UNL     1     138.930  79.289 223.380 -0.35 -0.00    +0.013 A  
DOCKED: ATOM     19  C   UNL     1     142.535  79.114 222.555 -0.46 -0.02    +0.032 A  
DOCKED: ATOM     20  C   UNL     1     140.280  79.651 223.293 -0.45 -0.00    +0.003 A  
DOCKED: ATOM     21  C   UNL     1     142.992  80.322 223.090 -0.63 -0.01    +0.041 A  
DOCKED: ATOM     22  C   UNL     1     140.749  80.859 223.831 -0.39 -0.01    +0.049 A  
DOCKED: ATOM     23  C   UNL     1     142.104  81.191 223.729 -0.53 -0.02    +0.123 A  
DOCKED: ATOM     24  F   UNL     1     142.556  82.361 224.244 -0.08 +0.00    -0.207 F  
DOCKED: ENDBRANCH  11  14
DOCKED: ENDBRANCH   9  10
DOCKED: ENDBRANCH   6   9
DOCKED: ENDBRANCH   1   6
DOCKED: BRANCH   5  25
DOCKED: ATOM     25  C   UNL     1     142.273  76.139 219.462 -0.17 -0.14    +0.289 C  
DOCKED: ATOM     26  N   UNL     1     140.944  76.573 219.126 -0.02 +0.13    -0.344 N  
DOCKED: ATOM     27  O   UNL     1     143.271  76.795 219.061 -0.30 +0.19    -0.267 OA 
DOCKED: ATOM     28  H   UNL     1     140.132  76.024 219.488 +0.04 -0.05    +0.164 HD 
DOCKED: BRANCH  26  29
DOCKED: ATOM     29  C   UNL     1     140.716  77.667 218.174 -0.07 -0.05    +0.111 C  
DOCKED: ATOM     30  C   UNL     1     139.580  77.315 217.204 -0.02 -0.01    +0.036 C  
DOCKED: BRANCH  29  31
DOCKED: ATOM     31  C   UNL     1     140.413  78.960 218.916 -0.11 +0.00    -0.007 A  
DOCKED: ATOM     32  C   UNL     1     139.191  79.091 219.602 -0.07 -0.00    +0.011 A  
DOCKED: ATOM     33  C   UNL     1     141.336  80.033 218.964 -0.21 -0.02    +0.049 A  
DOCKED: ATOM     34  C   UNL     1     138.893  80.249 220.322 -0.07 -0.01    +0.047 A  
DOCKED: ATOM     35  C   UNL     1     141.025  81.191 219.686 -0.21 -0.02    +0.067 A  
DOCKED: ATOM     36  C   UNL     1     139.813  81.311 220.369 -0.12 -0.03    +0.120 A  
DOCKED: ATOM     37  Cl  UNL     1     142.898  79.980 218.148 -0.22 +0.09    -0.084 Cl 
DOCKED: BRANCH  36  38
DOCKED: ATOM     38  O   UNL     1     139.563  82.494 221.080 -0.05 +0.09    -0.497 OA 
DOCKED: ATOM     39  C   UNL     1     140.324  83.689 220.945 -0.16 -0.05    +0.278 C  
DOCKED: ENDBRANCH  36  38
DOCKED: ENDBRANCH  29  31
DOCKED: ENDBRANCH  26  29
DOCKED: ENDBRANCH   5  25
DOCKED: BRANCH   3  40
DOCKED: ATOM     40  O   UNL     1     144.066  72.312 221.218 -0.14 +0.08    -0.386 OA 
DOCKED: ATOM     41  H   UNL     1     144.961  71.886 221.155 -0.35 -0.09    +0.211 HD 
DOCKED: ENDBRANCH   3  40
DOCKED: TORSDOF 10
DOCKED: TER
DOCKED: ENDMDL
________________________________________________________________________________


    FINAL DOCKED STATE:
    ________________________


Run:   12 / 20
Time taken for this run:   0.065s

DOCKED: MODEL        12
DOCKED: USER    Run = 12
DOCKED: USER
DOCKED: USER    Estimated Free Energy of Binding    =  -7.61 kcal/mol  [=(1)+(2)+(3)-(4)]
DOCKED: USER
DOCKED: USER    (1) Final Intermolecular Energy     = -10.60 kcal/mol
DOCKED: USER        vdW + Hbond + desolv Energy     = -10.05 kcal/mol
DOCKED: USER        Electrostatic Energy            =  -0.55 kcal/mol
DOCKED: USER        Moving Ligand-Fixed Receptor    = -10.60 kcal/mol
DOCKED: USER        Moving Ligand-Moving Receptor   =  +0.00 kcal/mol
DOCKED: USER    (2) Final Total Internal Energy     =  -3.58 kcal/mol
DOCKED: USER    (3) Torsional Free Energy           =  +2.98 kcal/mol
DOCKED: USER    (4) Unbound System's Energy         =  -3.58 kcal/mol
DOCKED: USER
DOCKED: USER
DOCKED: REMARK SMILES COc1ccc([C@H](C)NC(=O)[C@@H]2C[C@@H](O)C/[N+]2=C(\O)CNC(=O)c2ccc3cc(F)ccc3n2)c(Cl)c1
DOCKED: REMARK SMILES IDX 17 1 16 2 14 3 13 4 12 5 18 6 19 7 20 9 21 10 22 11 23 13
DOCKED: REMARK SMILES IDX 24 14 34 15 25 16 33 17 26 18 32 19 27 20 31 21 28 22 29 23
DOCKED: REMARK SMILES IDX 30 24 10 25 9 26 11 27 7 29 8 30 6 31 5 32 35 33 4 34 37 35
DOCKED: REMARK SMILES IDX 3 36 36 37 2 38 1 39 15 40
DOCKED: REMARK H PARENT 19 8 21 12 9 28 15 41
DOCKED: USER                              x       y       z     vdW  Elec       q    Type
DOCKED: USER                           _______ _______ _______ _____ _____    ______ ____
DOCKED: ROOT
DOCKED: ATOM      1  N   UNL     1     140.687  77.210 221.425 -0.20 +0.07    -0.186 N  
DOCKED: ATOM      2  C   UNL     1     141.656  78.145 220.856 -0.13 -0.22    +0.386 C  
DOCKED: ATOM      3  C   UNL     1     141.845  79.260 221.883 -0.35 -0.09    +0.186 C  
DOCKED: ATOM      4  C   UNL     1     140.614  79.187 222.775 -0.37 -0.03    +0.125 C  
DOCKED: ATOM      5  C   UNL     1     140.115  77.745 222.669 -0.16 -0.09    +0.355 C  
DOCKED: ENDROOT
DOCKED: BRANCH   1   6
DOCKED: ATOM      6  C   UNL     1     140.477  76.011 220.913 -0.14 -0.11    +0.354 C  
DOCKED: BRANCH   6   7
DOCKED: ATOM      7  O   UNL     1     139.223  75.652 220.405 -0.01 +0.11    -0.462 OA 
DOCKED: ATOM      8  H   UNL     1     138.694  74.850 220.722 +0.06 -0.07    +0.299 HD 
DOCKED: ENDBRANCH   6   7
DOCKED: BRANCH   6   9
DOCKED: ATOM      9  C   UNL     1     141.531  74.931 220.874 -0.19 -0.08    +0.269 C  
DOCKED: BRANCH   9  10
DOCKED: ATOM     10  N   UNL     1     140.974  73.610 221.147 -0.13 +0.05    -0.337 N  
DOCKED: ATOM     11  C   UNL     1     140.078  73.403 222.249 -0.05 -0.02    +0.270 C  
DOCKED: ATOM     12  H   UNL     1     141.230  72.804 220.530 +0.05 -0.03    +0.164 HD 
DOCKED: ATOM     13  O   UNL     1     139.412  74.373 222.706 -0.47 +0.05    -0.268 OA 
DOCKED: BRANCH  11  14
DOCKED: ATOM     14  C   UNL     1     139.976  72.073 222.882 -0.28 -0.02    +0.128 A  
DOCKED: ATOM     15  N   UNL     1     140.431  71.901 224.155 -0.27 +0.03    -0.243 NA 
DOCKED: ATOM     16  C   UNL     1     139.358  71.000 222.218 -0.20 -0.01    +0.035 A  
DOCKED: ATOM     17  C   UNL     1     140.306  70.719 224.814 -0.43 -0.01    +0.071 A  
DOCKED: ATOM     18  C   UNL     1     139.216  69.774 222.870 -0.21 -0.00    +0.013 A  
DOCKED: ATOM     19  C   UNL     1     140.783  70.590 226.123 -0.57 -0.00    +0.032 A  
DOCKED: ATOM     20  C   UNL     1     139.683  69.622 224.181 -0.29 -0.00    +0.003 A  
DOCKED: ATOM     21  C   UNL     1     140.639  69.377 226.803 -0.54 -0.01    +0.041 A  
DOCKED: ATOM     22  C   UNL     1     139.547  68.408 224.870 -0.33 -0.01    +0.049 A  
DOCKED: ATOM     23  C   UNL     1     140.024  68.288 226.179 -0.50 -0.02    +0.123 A  
DOCKED: ATOM     24  F   UNL     1     139.887  67.116 226.846 -0.21 +0.05    -0.207 F  
DOCKED: ENDBRANCH  11  14
DOCKED: ENDBRANCH   9  10
DOCKED: ENDBRANCH   6   9
DOCKED: ENDBRANCH   1   6
DOCKED: BRANCH   5  25
DOCKED: ATOM     25  C   UNL     1     138.608  77.720 222.708 -0.17 -0.05    +0.289 C  
DOCKED: ATOM     26  N   UNL     1     137.879  76.495 222.517 -0.15 +0.07    -0.344 N  
DOCKED: ATOM     27  O   UNL     1     137.987  78.807 222.858 -0.16 +0.04    -0.267 OA 
DOCKED: ATOM     28  H   UNL     1     138.416  75.604 222.416 -0.04 -0.04    +0.164 HD 
DOCKED: BRANCH  26  29
DOCKED: ATOM     29  C   UNL     1     136.426  76.495 222.313 -0.16 -0.02    +0.111 C  
DOCKED: ATOM     30  C   UNL     1     136.068  75.870 220.958 -0.06 -0.01    +0.036 C  
DOCKED: BRANCH  29  31
DOCKED: ATOM     31  C   UNL     1     135.732  75.760 223.450 -0.26 +0.00    -0.007 A  
DOCKED: ATOM     32  C   UNL     1     135.016  76.498 224.412 -0.20 -0.00    +0.011 A  
DOCKED: ATOM     33  C   UNL     1     135.757  74.348 223.559 -0.21 -0.01    +0.049 A  
DOCKED: ATOM     34  C   UNL     1     134.338  75.856 225.449 -0.32 -0.00    +0.047 A  
DOCKED: ATOM     35  C   UNL     1     135.077  73.715 224.606 -0.26 -0.01    +0.067 A  
DOCKED: ATOM     36  C   UNL     1     134.364  74.454 225.552 -0.30 -0.00    +0.120 A  
DOCKED: ATOM     37  Cl  UNL     1     136.616  73.322 222.411 -0.16 +0.02    -0.084 Cl 
DOCKED: BRANCH  36  38
DOCKED: ATOM     38  O   UNL     1     133.697  73.761 226.574 -0.71 -0.06    -0.497 OA 
DOCKED: ATOM     39  C   UNL     1     132.348  74.001 226.961 -0.25 -0.02    +0.278 C  
DOCKED: ENDBRANCH  36  38
DOCKED: ENDBRANCH  29  31
DOCKED: ENDBRANCH  26  29
DOCKED: ENDBRANCH   5  25
DOCKED: BRANCH   3  40
DOCKED: ATOM     40  O   UNL     1     142.994  79.024 222.655 -0.24 +0.25    -0.386 OA 
DOCKED: ATOM     41  H   UNL     1     143.711  78.751 222.023 -0.46 -0.25    +0.211 HD 
DOCKED: ENDBRANCH   3  40
DOCKED: TORSDOF 10
DOCKED: TER
DOCKED: ENDMDL
________________________________________________________________________________


    FINAL DOCKED STATE:
    ________________________


Run:   13 / 20
Time taken for this run:   0.065s

DOCKED: MODEL        13
DOCKED: USER    Run = 13
DOCKED: USER
DOCKED: USER    Estimated Free Energy of Binding    =  -7.15 kcal/mol  [=(1)+(2)+(3)-(4)]
DOCKED: USER
DOCKED: USER    (1) Final Intermolecular Energy     = -10.13 kcal/mol
DOCKED: USER        vdW + Hbond + desolv Energy     =  -9.89 kcal/mol
DOCKED: USER        Electrostatic Energy            =  -0.25 kcal/mol
DOCKED: USER        Moving Ligand-Fixed Receptor    = -10.13 kcal/mol
DOCKED: USER        Moving Ligand-Moving Receptor   =  +0.00 kcal/mol
DOCKED: USER    (2) Final Total Internal Energy     =  -2.75 kcal/mol
DOCKED: USER    (3) Torsional Free Energy           =  +2.98 kcal/mol
DOCKED: USER    (4) Unbound System's Energy         =  -2.75 kcal/mol
DOCKED: USER
DOCKED: USER
DOCKED: REMARK SMILES COc1ccc([C@H](C)NC(=O)[C@@H]2C[C@@H](O)C/[N+]2=C(\O)CNC(=O)c2ccc3cc(F)ccc3n2)c(Cl)c1
DOCKED: REMARK SMILES IDX 17 1 16 2 14 3 13 4 12 5 18 6 19 7 20 9 21 10 22 11 23 13
DOCKED: REMARK SMILES IDX 24 14 34 15 25 16 33 17 26 18 32 19 27 20 31 21 28 22 29 23
DOCKED: REMARK SMILES IDX 30 24 10 25 9 26 11 27 7 29 8 30 6 31 5 32 35 33 4 34 37 35
DOCKED: REMARK SMILES IDX 3 36 36 37 2 38 1 39 15 40
DOCKED: REMARK H PARENT 19 8 21 12 9 28 15 41
DOCKED: USER                              x       y       z     vdW  Elec       q    Type
DOCKED: USER                           _______ _______ _______ _____ _____    ______ ____
DOCKED: ROOT
DOCKED: ATOM      1  N   UNL     1     137.897  75.806 220.806 -0.06 +0.04    -0.186 N  
DOCKED: ATOM      2  C   UNL     1     136.657  76.493 221.161 -0.03 -0.07    +0.386 C  
DOCKED: ATOM      3  C   UNL     1     136.171  77.200 219.896 -0.01 -0.03    +0.186 C  
DOCKED: ATOM      4  C   UNL     1     137.400  77.304 219.005 -0.01 -0.03    +0.125 C  
DOCKED: ATOM      5  C   UNL     1     138.325  76.169 219.448 -0.00 -0.08    +0.355 C  
DOCKED: ENDROOT
DOCKED: BRANCH   1   6
DOCKED: ATOM      6  C   UNL     1     138.453  74.902 221.593 -0.12 -0.09    +0.354 C  
DOCKED: BRANCH   6   7
DOCKED: ATOM      7  O   UNL     1     139.451  75.257 222.508 -0.47 +0.07    -0.462 OA 
DOCKED: ATOM      8  H   UNL     1     139.325  75.248 223.512 -0.38 -0.05    +0.299 HD 
DOCKED: ENDBRANCH   6   7
DOCKED: BRANCH   6   9
DOCKED: ATOM      9  C   UNL     1     138.105  73.434 221.542 -0.10 -0.07    +0.269 C  
DOCKED: BRANCH   9  10
DOCKED: ATOM     10  N   UNL     1     138.938  72.641 222.442 -0.09 +0.10    -0.337 N  
DOCKED: ATOM     11  C   UNL     1     138.990  71.212 222.327 -0.13 -0.05    +0.270 C  
DOCKED: ATOM     12  H   UNL     1     139.504  73.122 223.178 -0.40 -0.05    +0.164 HD 
DOCKED: ATOM     13  O   UNL     1     138.712  70.660 221.226 -0.05 +0.05    -0.268 OA 
DOCKED: BRANCH  11  14
DOCKED: ATOM     14  C   UNL     1     139.315  70.384 223.505 -0.24 -0.02    +0.128 A  
DOCKED: ATOM     15  N   UNL     1     139.921  70.961 224.582 -0.27 +0.04    -0.243 NA 
DOCKED: ATOM     16  C   UNL     1     138.953  69.028 223.561 -0.26 -0.01    +0.035 A  
DOCKED: ATOM     17  C   UNL     1     140.186  70.267 225.720 -0.46 -0.01    +0.071 A  
DOCKED: ATOM     18  C   UNL     1     139.214  68.290 224.716 -0.38 -0.00    +0.013 A  
DOCKED: ATOM     19  C   UNL     1     140.804  70.902 226.803 -0.63 -0.01    +0.032 A  
DOCKED: ATOM     20  C   UNL     1     139.828  68.905 225.814 -0.50 -0.00    +0.003 A  
DOCKED: ATOM     21  C   UNL     1     141.061  70.189 227.977 -0.58 -0.01    +0.041 A  
DOCKED: ATOM     22  C   UNL     1     140.095  68.197 226.995 -0.62 -0.01    +0.049 A  
DOCKED: ATOM     23  C   UNL     1     140.710  68.840 228.073 -0.54 -0.03    +0.123 A  
DOCKED: ATOM     24  F   UNL     1     140.962  68.156 229.217 -0.15 +0.05    -0.207 F  
DOCKED: ENDBRANCH  11  14
DOCKED: ENDBRANCH   9  10
DOCKED: ENDBRANCH   6   9
DOCKED: ENDBRANCH   1   6
DOCKED: BRANCH   5  25
DOCKED: ATOM     25  C   UNL     1     139.763  76.617 219.361 -0.02 -0.08    +0.289 C  
DOCKED: ATOM     26  N   UNL     1     140.626  76.574 220.510 -0.07 +0.12    -0.344 N  
DOCKED: ATOM     27  O   UNL     1     140.188  77.084 218.270 -0.02 +0.09    -0.267 OA 
DOCKED: ATOM     28  H   UNL     1     140.258  76.163 221.397 +0.06 -0.04    +0.164 HD 
DOCKED: BRANCH  26  29
DOCKED: ATOM     29  C   UNL     1     141.941  77.225 220.502 -0.20 -0.07    +0.111 C  
DOCKED: ATOM     30  C   UNL     1     142.755  76.789 219.277 -0.34 -0.02    +0.036 C  
DOCKED: BRANCH  29  31
DOCKED: ATOM     31  C   UNL     1     141.784  78.738 220.537 -0.31 +0.00    -0.007 A  
DOCKED: ATOM     32  C   UNL     1     141.849  79.466 219.334 -0.29 -0.01    +0.011 A  
DOCKED: ATOM     33  C   UNL     1     141.547  79.441 221.743 -0.39 -0.02    +0.049 A  
DOCKED: ATOM     34  C   UNL     1     141.675  80.850 219.323 -0.27 -0.02    +0.047 A  
DOCKED: ATOM     35  C   UNL     1     141.378  80.830 221.721 -0.37 -0.02    +0.067 A  
DOCKED: ATOM     36  C   UNL     1     141.437  81.544 220.522 -0.27 -0.04    +0.120 A  
DOCKED: ATOM     37  Cl  UNL     1     141.441  78.635 223.307 -0.70 +0.03    -0.084 Cl 
DOCKED: BRANCH  36  38
DOCKED: ATOM     38  O   UNL     1     141.253  82.935 220.565 -0.09 +0.11    -0.497 OA 
DOCKED: ATOM     39  C   UNL     1     140.110  83.578 221.116 -0.15 -0.04    +0.278 C  
DOCKED: ENDBRANCH  36  38
DOCKED: ENDBRANCH  29  31
DOCKED: ENDBRANCH  26  29
DOCKED: ENDBRANCH   5  25
DOCKED: BRANCH   3  40
DOCKED: ATOM     40  O   UNL     1     135.192  76.426 219.250 +0.00 +0.06    -0.386 OA 
DOCKED: ATOM     41  H   UNL     1     134.834  75.795 219.929 +0.01 -0.03    +0.211 HD 
DOCKED: ENDBRANCH   3  40
DOCKED: TORSDOF 10
DOCKED: TER
DOCKED: ENDMDL
________________________________________________________________________________


    FINAL DOCKED STATE:
    ________________________


Run:   14 / 20
Time taken for this run:   0.065s

DOCKED: MODEL        14
DOCKED: USER    Run = 14
DOCKED: USER
DOCKED: USER    Estimated Free Energy of Binding    =  -5.33 kcal/mol  [=(1)+(2)+(3)-(4)]
DOCKED: USER
DOCKED: USER    (1) Final Intermolecular Energy     =  -8.32 kcal/mol
DOCKED: USER        vdW + Hbond + desolv Energy     =  -8.13 kcal/mol
DOCKED: USER        Electrostatic Energy            =  -0.18 kcal/mol
DOCKED: USER        Moving Ligand-Fixed Receptor    =  -8.32 kcal/mol
DOCKED: USER        Moving Ligand-Moving Receptor   =  +0.00 kcal/mol
DOCKED: USER    (2) Final Total Internal Energy     =  -5.96 kcal/mol
DOCKED: USER    (3) Torsional Free Energy           =  +2.98 kcal/mol
DOCKED: USER    (4) Unbound System's Energy         =  -5.96 kcal/mol
DOCKED: USER
DOCKED: USER
DOCKED: REMARK SMILES COc1ccc([C@H](C)NC(=O)[C@@H]2C[C@@H](O)C/[N+]2=C(\O)CNC(=O)c2ccc3cc(F)ccc3n2)c(Cl)c1
DOCKED: REMARK SMILES IDX 17 1 16 2 14 3 13 4 12 5 18 6 19 7 20 9 21 10 22 11 23 13
DOCKED: REMARK SMILES IDX 24 14 34 15 25 16 33 17 26 18 32 19 27 20 31 21 28 22 29 23
DOCKED: REMARK SMILES IDX 30 24 10 25 9 26 11 27 7 29 8 30 6 31 5 32 35 33 4 34 37 35
DOCKED: REMARK SMILES IDX 3 36 36 37 2 38 1 39 15 40
DOCKED: REMARK H PARENT 19 8 21 12 9 28 15 41
DOCKED: USER                              x       y       z     vdW  Elec       q    Type
DOCKED: USER                           _______ _______ _______ _____ _____    ______ ____
DOCKED: ROOT
DOCKED: ATOM      1  N   UNL     1     141.677  73.806 219.900 -0.10 +0.04    -0.186 N  
DOCKED: ATOM      2  C   UNL     1     142.462  72.606 219.621 -0.04 -0.06    +0.386 C  
DOCKED: ATOM      3  C   UNL     1     143.913  72.943 219.960 -0.24 -0.03    +0.186 C  
DOCKED: ATOM      4  C   UNL     1     143.979  74.463 219.944 -0.35 -0.05    +0.125 C  
DOCKED: ATOM      5  C   UNL     1     142.554  74.939 220.229 -0.15 -0.14    +0.355 C  
DOCKED: ENDROOT
DOCKED: BRANCH   1   6
DOCKED: ATOM      6  C   UNL     1     140.356  73.791 219.949 -0.04 -0.07    +0.354 C  
DOCKED: BRANCH   6   7
DOCKED: ATOM      7  O   UNL     1     139.588  74.094 218.819 +0.01 +0.10    -0.462 OA 
DOCKED: ATOM      8  H   UNL     1     138.685  74.549 218.857 +0.03 -0.06    +0.299 HD 
DOCKED: ENDBRANCH   6   7
DOCKED: BRANCH   6   9
DOCKED: ATOM      9  C   UNL     1     139.579  73.499 221.210 -0.14 -0.05    +0.269 C  
DOCKED: BRANCH   9  10
DOCKED: ATOM     10  N   UNL     1     139.444  74.679 222.058 -0.15 +0.06    -0.337 N  
DOCKED: ATOM     11  C   UNL     1     139.094  75.952 221.496 -0.17 -0.06    +0.270 C  
DOCKED: ATOM     12  H   UNL     1     139.605  74.595 223.088 -0.49 +0.00    +0.164 HD 
DOCKED: ATOM     13  O   UNL     1     138.469  76.003 220.400 -0.04 +0.06    -0.268 OA 
DOCKED: BRANCH  11  14
DOCKED: ATOM     14  C   UNL     1     139.508  77.199 222.168 -0.27 -0.03    +0.128 A  
DOCKED: ATOM     15  N   UNL     1     140.809  77.599 222.094 -0.23 +0.09    -0.243 NA 
DOCKED: ATOM     16  C   UNL     1     138.572  78.013 222.827 -0.26 -0.01    +0.035 A  
DOCKED: ATOM     17  C   UNL     1     141.238  78.769 222.636 -0.44 -0.03    +0.071 A  
DOCKED: ATOM     18  C   UNL     1     138.983  79.220 223.395 -0.35 -0.00    +0.013 A  
DOCKED: ATOM     19  C   UNL     1     142.583  79.142 222.531 -0.45 -0.02    +0.032 A  
DOCKED: ATOM     20  C   UNL     1     140.323  79.615 223.299 -0.45 -0.00    +0.003 A  
DOCKED: ATOM     21  C   UNL     1     143.017  80.353 223.076 -0.62 -0.01    +0.041 A  
DOCKED: ATOM     22  C   UNL     1     140.769  80.827 223.847 -0.39 -0.01    +0.049 A  
DOCKED: ATOM     23  C   UNL     1     142.114  81.193 223.735 -0.53 -0.02    +0.123 A  
DOCKED: ATOM     24  F   UNL     1     142.543  82.367 224.260 -0.08 +0.00    -0.207 F  
DOCKED: ENDBRANCH  11  14
DOCKED: ENDBRANCH   9  10
DOCKED: ENDBRANCH   6   9
DOCKED: ENDBRANCH   1   6
DOCKED: BRANCH   5  25
DOCKED: ATOM     25  C   UNL     1     142.262  76.187 219.434 -0.17 -0.14    +0.289 C  
DOCKED: ATOM     26  N   UNL     1     140.911  76.593 219.157 -0.02 +0.13    -0.344 N  
DOCKED: ATOM     27  O   UNL     1     143.228  76.848 218.966 -0.29 +0.18    -0.267 OA 
DOCKED: ATOM     28  H   UNL     1     140.127  76.042 219.574 +0.04 -0.05    +0.164 HD 
DOCKED: BRANCH  26  29
DOCKED: ATOM     29  C   UNL     1     140.616  77.659 218.192 -0.06 -0.04    +0.111 C  
DOCKED: ATOM     30  C   UNL     1     139.419  77.279 217.311 -0.02 -0.01    +0.036 C  
DOCKED: BRANCH  29  31
DOCKED: ATOM     31  C   UNL     1     140.361  78.973 218.915 -0.11 +0.00    -0.007 A  
DOCKED: ATOM     32  C   UNL     1     139.135  79.167 219.579 -0.06 -0.00    +0.011 A  
DOCKED: ATOM     33  C   UNL     1     141.330  80.004 218.967 -0.21 -0.02    +0.049 A  
DOCKED: ATOM     34  C   UNL     1     138.878  80.345 220.282 -0.07 -0.01    +0.047 A  
DOCKED: ATOM     35  C   UNL     1     141.062  81.183 219.671 -0.22 -0.02    +0.067 A  
DOCKED: ATOM     36  C   UNL     1     139.845  81.365 220.333 -0.12 -0.03    +0.120 A  
DOCKED: ATOM     37  Cl  UNL     1     142.901  79.871 218.177 -0.20 +0.09    -0.084 Cl 
DOCKED: BRANCH  36  38
DOCKED: ATOM     38  O   UNL     1     139.638  82.566 221.028 -0.05 +0.09    -0.497 OA 
DOCKED: ATOM     39  C   UNL     1     140.619  83.586 221.180 -0.16 -0.04    +0.278 C  
DOCKED: ENDBRANCH  36  38
DOCKED: ENDBRANCH  29  31
DOCKED: ENDBRANCH  26  29
DOCKED: ENDBRANCH   5  25
DOCKED: BRANCH   3  40
DOCKED: ATOM     40  O   UNL     1     144.235  72.477 221.246 -0.13 +0.08    -0.386 OA 
DOCKED: ATOM     41  H   UNL     1     145.030  71.889 221.145 -0.36 -0.09    +0.211 HD 
DOCKED: ENDBRANCH   3  40
DOCKED: TORSDOF 10
DOCKED: TER
DOCKED: ENDMDL
________________________________________________________________________________


    FINAL DOCKED STATE:
    ________________________


Run:   15 / 20
Time taken for this run:   0.065s

DOCKED: MODEL        15
DOCKED: USER    Run = 15
DOCKED: USER
DOCKED: USER    Estimated Free Energy of Binding    =  -7.46 kcal/mol  [=(1)+(2)+(3)-(4)]
DOCKED: USER
DOCKED: USER    (1) Final Intermolecular Energy     = -10.44 kcal/mol
DOCKED: USER        vdW + Hbond + desolv Energy     = -10.04 kcal/mol
DOCKED: USER        Electrostatic Energy            =  -0.40 kcal/mol
DOCKED: USER        Moving Ligand-Fixed Receptor    = -10.44 kcal/mol
DOCKED: USER        Moving Ligand-Moving Receptor   =  +0.00 kcal/mol
DOCKED: USER    (2) Final Total Internal Energy     =  -2.60 kcal/mol
DOCKED: USER    (3) Torsional Free Energy           =  +2.98 kcal/mol
DOCKED: USER    (4) Unbound System's Energy         =  -2.60 kcal/mol
DOCKED: USER
DOCKED: USER
DOCKED: REMARK SMILES COc1ccc([C@H](C)NC(=O)[C@@H]2C[C@@H](O)C/[N+]2=C(\O)CNC(=O)c2ccc3cc(F)ccc3n2)c(Cl)c1
DOCKED: REMARK SMILES IDX 17 1 16 2 14 3 13 4 12 5 18 6 19 7 20 9 21 10 22 11 23 13
DOCKED: REMARK SMILES IDX 24 14 34 15 25 16 33 17 26 18 32 19 27 20 31 21 28 22 29 23
DOCKED: REMARK SMILES IDX 30 24 10 25 9 26 11 27 7 29 8 30 6 31 5 32 35 33 4 34 37 35
DOCKED: REMARK SMILES IDX 3 36 36 37 2 38 1 39 15 40
DOCKED: REMARK H PARENT 19 8 21 12 9 28 15 41
DOCKED: USER                              x       y       z     vdW  Elec       q    Type
DOCKED: USER                           _______ _______ _______ _____ _____    ______ ____
DOCKED: ROOT
DOCKED: ATOM      1  N   UNL     1     140.526  75.459 219.314 -0.04 +0.05    -0.186 N  
DOCKED: ATOM      2  C   UNL     1     139.789  74.880 218.193 +0.01 -0.09    +0.386 C  
DOCKED: ATOM      3  C   UNL     1     140.570  75.228 216.928 -0.01 -0.05    +0.186 C  
DOCKED: ATOM      4  C   UNL     1     141.447  76.409 217.318 -0.07 -0.05    +0.125 C  
DOCKED: ATOM      5  C   UNL     1     141.631  76.301 218.833 -0.07 -0.15    +0.355 C  
DOCKED: ENDROOT
DOCKED: BRANCH   1   6
DOCKED: ATOM      6  C   UNL     1     140.266  75.144 220.570 -0.10 -0.09    +0.354 C  
DOCKED: BRANCH   6   7
DOCKED: ATOM      7  O   UNL     1     141.136  75.514 221.603 -0.25 +0.13    -0.462 OA 
DOCKED: ATOM      8  H   UNL     1     141.902  74.939 221.928 -0.04 -0.07    +0.299 HD 
DOCKED: ENDBRANCH   6   7
DOCKED: BRANCH   6   9
DOCKED: ATOM      9  C   UNL     1     139.060  74.337 220.989 -0.11 -0.06    +0.269 C  
DOCKED: BRANCH   9  10
DOCKED: ATOM     10  N   UNL     1     139.263  73.675 222.273 -0.09 +0.08    -0.337 N  
DOCKED: ATOM     11  C   UNL     1     140.342  72.747 222.461 -0.15 -0.02    +0.270 C  
DOCKED: ATOM     12  H   UNL     1     138.614  73.880 223.068 -0.55 -0.11    +0.164 HD 
DOCKED: ATOM     13  O   UNL     1     141.366  72.820 221.726 -0.26 +0.02    -0.268 OA 
DOCKED: BRANCH  11  14
DOCKED: ATOM     14  C   UNL     1     140.234  71.678 223.472 -0.32 -0.02    +0.128 A  
DOCKED: ATOM     15  N   UNL     1     140.692  71.902 224.736 -0.26 +0.03    -0.243 NA 
DOCKED: ATOM     16  C   UNL     1     139.608  70.457 223.172 -0.26 -0.01    +0.035 A  
DOCKED: ATOM     17  C   UNL     1     140.562  70.982 225.727 -0.53 -0.01    +0.071 A  
DOCKED: ATOM     18  C   UNL     1     139.462  69.491 224.169 -0.31 -0.00    +0.013 A  
DOCKED: ATOM     19  C   UNL     1     141.043  71.259 227.012 -0.69 -0.01    +0.032 A  
DOCKED: ATOM     20  C   UNL     1     139.932  69.747 225.463 -0.45 -0.00    +0.003 A  
DOCKED: ATOM     21  C   UNL     1     140.894  70.315 228.032 -0.59 -0.01    +0.041 A  
DOCKED: ATOM     22  C   UNL     1     139.791  68.805 226.492 -0.52 -0.01    +0.049 A  
DOCKED: ATOM     23  C   UNL     1     140.272  69.091 227.774 -0.53 -0.02    +0.123 A  
DOCKED: ATOM     24  F   UNL     1     140.129  68.182 228.770 -0.16 +0.05    -0.207 F  
DOCKED: ENDBRANCH  11  14
DOCKED: ENDBRANCH   9  10
DOCKED: ENDBRANCH   6   9
DOCKED: ENDBRANCH   1   6
DOCKED: BRANCH   5  25
DOCKED: ATOM     25  C   UNL     1     141.660  77.679 219.445 -0.15 -0.16    +0.289 C  
DOCKED: ATOM     26  N   UNL     1     142.145  77.888 220.782 -0.10 +0.25    -0.344 N  
DOCKED: ATOM     27  O   UNL     1     141.199  78.647 218.782 -0.10 +0.13    -0.267 OA 
DOCKED: ATOM     28  H   UNL     1     142.543  77.074 221.303 -0.46 -0.17    +0.164 HD 
DOCKED: BRANCH  26  29
DOCKED: ATOM     29  C   UNL     1     141.957  79.170 221.471 -0.29 -0.06    +0.111 C  
DOCKED: ATOM     30  C   UNL     1     142.196  80.343 220.510 -0.20 -0.02    +0.036 C  
DOCKED: BRANCH  29  31
DOCKED: ATOM     31  C   UNL     1     140.565  79.245 222.081 -0.33 +0.00    -0.007 A  
DOCKED: ATOM     32  C   UNL     1     139.554  78.393 221.596 -0.21 -0.00    +0.011 A  
DOCKED: ATOM     33  C   UNL     1     140.256  80.127 223.144 -0.40 -0.01    +0.049 A  
DOCKED: ATOM     34  C   UNL     1     138.275  78.409 222.154 -0.20 -0.01    +0.047 A  
DOCKED: ATOM     35  C   UNL     1     138.969  80.137 223.694 -0.37 -0.01    +0.067 A  
DOCKED: ATOM     36  C   UNL     1     137.974  79.284 223.212 -0.20 -0.02    +0.120 A  
DOCKED: ATOM     37  Cl  UNL     1     141.442  81.234 223.834 -0.55 +0.01    -0.084 Cl 
DOCKED: BRANCH  36  38
DOCKED: ATOM     38  O   UNL     1     136.705  79.337 223.809 -0.02 +0.06    -0.497 OA 
DOCKED: ATOM     39  C   UNL     1     136.091  80.528 224.288 -0.13 -0.03    +0.278 C  
DOCKED: ENDBRANCH  36  38
DOCKED: ENDBRANCH  29  31
DOCKED: ENDBRANCH  26  29
DOCKED: ENDBRANCH   5  25
DOCKED: BRANCH   3  40
DOCKED: ATOM     40  O   UNL     1     141.385  74.149 216.545 +0.00 +0.10    -0.386 OA 
DOCKED: ATOM     41  H   UNL     1     140.857  73.323 216.706 +0.01 -0.05    +0.211 HD 
DOCKED: ENDBRANCH   3  40
DOCKED: TORSDOF 10
DOCKED: TER
DOCKED: ENDMDL
________________________________________________________________________________


    FINAL DOCKED STATE:
    ________________________


Run:   16 / 20
Time taken for this run:   0.065s

DOCKED: MODEL        16
DOCKED: USER    Run = 16
DOCKED: USER
DOCKED: USER    Estimated Free Energy of Binding    =  -5.29 kcal/mol  [=(1)+(2)+(3)-(4)]
DOCKED: USER
DOCKED: USER    (1) Final Intermolecular Energy     =  -8.27 kcal/mol
DOCKED: USER        vdW + Hbond + desolv Energy     =  -8.12 kcal/mol
DOCKED: USER        Electrostatic Energy            =  -0.15 kcal/mol
DOCKED: USER        Moving Ligand-Fixed Receptor    =  -8.27 kcal/mol
DOCKED: USER        Moving Ligand-Moving Receptor   =  +0.00 kcal/mol
DOCKED: USER    (2) Final Total Internal Energy     =  -5.87 kcal/mol
DOCKED: USER    (3) Torsional Free Energy           =  +2.98 kcal/mol
DOCKED: USER    (4) Unbound System's Energy         =  -5.87 kcal/mol
DOCKED: USER
DOCKED: USER
DOCKED: REMARK SMILES COc1ccc([C@H](C)NC(=O)[C@@H]2C[C@@H](O)C/[N+]2=C(\O)CNC(=O)c2ccc3cc(F)ccc3n2)c(Cl)c1
DOCKED: REMARK SMILES IDX 17 1 16 2 14 3 13 4 12 5 18 6 19 7 20 9 21 10 22 11 23 13
DOCKED: REMARK SMILES IDX 24 14 34 15 25 16 33 17 26 18 32 19 27 20 31 21 28 22 29 23
DOCKED: REMARK SMILES IDX 30 24 10 25 9 26 11 27 7 29 8 30 6 31 5 32 35 33 4 34 37 35
DOCKED: REMARK SMILES IDX 3 36 36 37 2 38 1 39 15 40
DOCKED: REMARK H PARENT 19 8 21 12 9 28 15 41
DOCKED: USER                              x       y       z     vdW  Elec       q    Type
DOCKED: USER                           _______ _______ _______ _____ _____    ______ ____
DOCKED: ROOT
DOCKED: ATOM      1  N   UNL     1     141.775  73.754 219.914 -0.10 +0.04    -0.186 N  
DOCKED: ATOM      2  C   UNL     1     142.574  72.574 219.592 -0.04 -0.06    +0.386 C  
DOCKED: ATOM      3  C   UNL     1     144.021  72.915 219.946 -0.24 -0.02    +0.186 C  
DOCKED: ATOM      4  C   UNL     1     144.070  74.435 219.987 -0.36 -0.05    +0.125 C  
DOCKED: ATOM      5  C   UNL     1     142.638  74.884 220.287 -0.15 -0.14    +0.355 C  
DOCKED: ENDROOT
DOCKED: BRANCH   1   6
DOCKED: ATOM      6  C   UNL     1     140.455  73.722 219.961 -0.04 -0.07    +0.354 C  
DOCKED: BRANCH   6   7
DOCKED: ATOM      7  O   UNL     1     139.685  73.999 218.825 +0.01 +0.10    -0.462 OA 
DOCKED: ATOM      8  H   UNL     1     138.747  74.377 218.857 +0.03 -0.06    +0.299 HD 
DOCKED: ENDBRANCH   6   7
DOCKED: BRANCH   6   9
DOCKED: ATOM      9  C   UNL     1     139.678  73.438 221.223 -0.14 -0.05    +0.269 C  
DOCKED: BRANCH   9  10
DOCKED: ATOM     10  N   UNL     1     139.511  74.632 222.046 -0.15 +0.06    -0.337 N  
DOCKED: ATOM     11  C   UNL     1     139.227  75.905 221.447 -0.17 -0.06    +0.270 C  
DOCKED: ATOM     12  H   UNL     1     139.600  74.559 223.086 -0.50 -0.00    +0.164 HD 
DOCKED: ATOM     13  O   UNL     1     138.679  75.954 220.310 -0.04 +0.06    -0.268 OA 
DOCKED: BRANCH  11  14
DOCKED: ATOM     14  C   UNL     1     139.621  77.151 222.130 -0.28 -0.03    +0.128 A  
DOCKED: ATOM     15  N   UNL     1     140.916  77.571 222.063 -0.24 +0.10    -0.243 NA 
DOCKED: ATOM     16  C   UNL     1     138.672  77.946 222.793 -0.27 -0.01    +0.035 A  
DOCKED: ATOM     17  C   UNL     1     141.327  78.743 222.615 -0.45 -0.03    +0.071 A  
DOCKED: ATOM     18  C   UNL     1     139.064  79.154 223.372 -0.35 -0.00    +0.013 A  
DOCKED: ATOM     19  C   UNL     1     142.666  79.136 222.517 -0.38 -0.02    +0.032 A  
DOCKED: ATOM     20  C   UNL     1     140.398  79.570 223.283 -0.46 -0.00    +0.003 A  
DOCKED: ATOM     21  C   UNL     1     143.081  80.349 223.074 -0.62 -0.01    +0.041 A  
DOCKED: ATOM     22  C   UNL     1     140.825  80.783 223.843 -0.41 -0.01    +0.049 A  
DOCKED: ATOM     23  C   UNL     1     142.165  81.170 223.737 -0.53 -0.02    +0.123 A  
DOCKED: ATOM     24  F   UNL     1     142.575  82.346 224.273 -0.09 +0.00    -0.207 F  
DOCKED: ENDBRANCH  11  14
DOCKED: ENDBRANCH   9  10
DOCKED: ENDBRANCH   6   9
DOCKED: ENDBRANCH   1   6
DOCKED: BRANCH   5  25
DOCKED: ATOM     25  C   UNL     1     142.333  76.158 219.539 -0.18 -0.15    +0.289 C  
DOCKED: ATOM     26  N   UNL     1     141.045  76.379 218.941 -0.02 +0.13    -0.344 N  
DOCKED: ATOM     27  O   UNL     1     143.249  77.012 219.397 -0.29 +0.21    -0.267 OA 
DOCKED: ATOM     28  H   UNL     1     140.295  75.666 219.090 +0.04 -0.05    +0.164 HD 
DOCKED: BRANCH  26  29
DOCKED: ATOM     29  C   UNL     1     140.813  77.493 218.015 -0.07 -0.05    +0.111 C  
DOCKED: ATOM     30  C   UNL     1     139.719  77.138 216.999 -0.02 -0.01    +0.036 C  
DOCKED: BRANCH  29  31
DOCKED: ATOM     31  C   UNL     1     140.449  78.755 218.785 -0.10 +0.00    -0.007 A  
DOCKED: ATOM     32  C   UNL     1     139.205  78.827 219.440 -0.06 -0.00    +0.011 A  
DOCKED: ATOM     33  C   UNL     1     141.335  79.854 218.888 -0.21 -0.03    +0.049 A  
DOCKED: ATOM     34  C   UNL     1     138.850  79.953 220.183 -0.07 -0.01    +0.047 A  
DOCKED: ATOM     35  C   UNL     1     140.968  80.981 219.633 -0.20 -0.02    +0.067 A  
DOCKED: ATOM     36  C   UNL     1     139.734  81.042 220.286 -0.10 -0.03    +0.120 A  
DOCKED: ATOM     37  Cl  UNL     1     142.919  79.874 218.115 -0.19 +0.09    -0.084 Cl 
DOCKED: BRANCH  36  38
DOCKED: ATOM     38  O   UNL     1     139.427  82.196 221.023 -0.04 +0.09    -0.497 OA 
DOCKED: ATOM     39  C   UNL     1     138.316  82.314 221.904 -0.09 -0.04    +0.278 C  
DOCKED: ENDBRANCH  36  38
DOCKED: ENDBRANCH  29  31
DOCKED: ENDBRANCH  26  29
DOCKED: ENDBRANCH   5  25
DOCKED: BRANCH   3  40
DOCKED: ATOM     40  O   UNL     1     144.346  72.405 221.214 -0.17 +0.09    -0.386 OA 
DOCKED: ATOM     41  H   UNL     1     145.188  71.888 221.106 -0.39 -0.09    +0.211 HD 
DOCKED: ENDBRANCH   3  40
DOCKED: TORSDOF 10
DOCKED: TER
DOCKED: ENDMDL
________________________________________________________________________________


    FINAL DOCKED STATE:
    ________________________


Run:   17 / 20
Time taken for this run:   0.065s

DOCKED: MODEL        17
DOCKED: USER    Run = 17
DOCKED: USER
DOCKED: USER    Estimated Free Energy of Binding    =  -7.43 kcal/mol  [=(1)+(2)+(3)-(4)]
DOCKED: USER
DOCKED: USER    (1) Final Intermolecular Energy     = -10.42 kcal/mol
DOCKED: USER        vdW + Hbond + desolv Energy     =  -9.92 kcal/mol
DOCKED: USER        Electrostatic Energy            =  -0.49 kcal/mol
DOCKED: USER        Moving Ligand-Fixed Receptor    = -10.42 kcal/mol
DOCKED: USER        Moving Ligand-Moving Receptor   =  +0.00 kcal/mol
DOCKED: USER    (2) Final Total Internal Energy     =  -2.35 kcal/mol
DOCKED: USER    (3) Torsional Free Energy           =  +2.98 kcal/mol
DOCKED: USER    (4) Unbound System's Energy         =  -2.35 kcal/mol
DOCKED: USER
DOCKED: USER
DOCKED: REMARK SMILES COc1ccc([C@H](C)NC(=O)[C@@H]2C[C@@H](O)C/[N+]2=C(\O)CNC(=O)c2ccc3cc(F)ccc3n2)c(Cl)c1
DOCKED: REMARK SMILES IDX 17 1 16 2 14 3 13 4 12 5 18 6 19 7 20 9 21 10 22 11 23 13
DOCKED: REMARK SMILES IDX 24 14 34 15 25 16 33 17 26 18 32 19 27 20 31 21 28 22 29 23
DOCKED: REMARK SMILES IDX 30 24 10 25 9 26 11 27 7 29 8 30 6 31 5 32 35 33 4 34 37 35
DOCKED: REMARK SMILES IDX 3 36 36 37 2 38 1 39 15 40
DOCKED: REMARK H PARENT 19 8 21 12 9 28 15 41
DOCKED: USER                              x       y       z     vdW  Elec       q    Type
DOCKED: USER                           _______ _______ _______ _____ _____    ______ ____
DOCKED: ROOT
DOCKED: ATOM      1  N   UNL     1     138.135  75.192 221.425 -0.12 +0.04    -0.186 N  
DOCKED: ATOM      2  C   UNL     1     137.431  76.172 222.250 -0.13 -0.09    +0.386 C  
DOCKED: ATOM      3  C   UNL     1     138.347  77.390 222.361 -0.21 -0.03    +0.186 C  
DOCKED: ATOM      4  C   UNL     1     139.736  76.873 222.017 -0.29 -0.03    +0.125 C  
DOCKED: ATOM      5  C   UNL     1     139.509  75.635 221.146 -0.13 -0.08    +0.355 C  
DOCKED: ENDROOT
DOCKED: BRANCH   1   6
DOCKED: ATOM      6  C   UNL     1     137.535  74.126 220.926 -0.04 -0.08    +0.354 C  
DOCKED: BRANCH   6   7
DOCKED: ATOM      7  O   UNL     1     137.333  73.990 219.548 +0.01 +0.09    -0.462 OA 
DOCKED: ATOM      8  H   UNL     1     136.690  73.327 219.134 +0.01 -0.05    +0.299 HD 
DOCKED: ENDBRANCH   6   7
DOCKED: BRANCH   6   9
DOCKED: ATOM      9  C   UNL     1     136.985  73.010 221.781 -0.07 -0.07    +0.269 C  
DOCKED: BRANCH   9  10
DOCKED: ATOM     10  N   UNL     1     138.021  72.382 222.596 -0.05 +0.11    -0.337 N  
DOCKED: ATOM     11  C   UNL     1     138.321  70.986 222.457 -0.11 -0.06    +0.270 C  
DOCKED: ATOM     12  H   UNL     1     138.551  72.958 223.289 -0.44 -0.11    +0.164 HD 
DOCKED: ATOM     13  O   UNL     1     138.054  70.392 221.375 -0.04 +0.05    -0.268 OA 
DOCKED: BRANCH  11  14
DOCKED: ATOM     14  C   UNL     1     138.889  70.232 223.591 -0.23 -0.02    +0.128 A  
DOCKED: ATOM     15  N   UNL     1     139.504  70.908 224.603 -0.25 +0.05    -0.243 NA 
DOCKED: ATOM     16  C   UNL     1     138.748  68.838 223.678 -0.28 -0.00    +0.035 A  
DOCKED: ATOM     17  C   UNL     1     139.989  70.277 225.704 -0.45 -0.01    +0.071 A  
DOCKED: ATOM     18  C   UNL     1     139.237  68.162 224.797 -0.39 -0.00    +0.013 A  
DOCKED: ATOM     19  C   UNL     1     140.609  71.012 226.720 -0.63 -0.01    +0.032 A  
DOCKED: ATOM     20  C   UNL     1     139.858  68.877 225.828 -0.50 -0.00    +0.003 A  
DOCKED: ATOM     21  C   UNL     1     141.092  70.361 227.859 -0.57 -0.01    +0.041 A  
DOCKED: ATOM     22  C   UNL     1     140.351  68.232 226.973 -0.63 -0.01    +0.049 A  
DOCKED: ATOM     23  C   UNL     1     140.967  68.975 227.985 -0.52 -0.03    +0.123 A  
DOCKED: ATOM     24  F   UNL     1     141.437  68.351 229.093 -0.17 +0.05    -0.207 F  
DOCKED: ENDBRANCH  11  14
DOCKED: ENDBRANCH   9  10
DOCKED: ENDBRANCH   6   9
DOCKED: ENDBRANCH   1   6
DOCKED: BRANCH   5  25
DOCKED: ATOM     25  C   UNL     1     140.558  74.596 221.450 -0.20 -0.05    +0.289 C  
DOCKED: ATOM     26  N   UNL     1     141.784  74.535 220.700 -0.13 +0.09    -0.344 N  
DOCKED: ATOM     27  O   UNL     1     140.322  73.738 222.343 -0.83 -0.01    -0.267 OA 
DOCKED: ATOM     28  H   UNL     1     141.966  75.269 219.979 +0.05 -0.06    +0.164 HD 
DOCKED: BRANCH  26  29
DOCKED: ATOM     29  C   UNL     1     142.697  73.393 220.821 -0.21 -0.02    +0.111 C  
DOCKED: ATOM     30  C   UNL     1     141.914  72.074 220.877 -0.22 -0.00    +0.036 C  
DOCKED: BRANCH  29  31
DOCKED: ATOM     31  C   UNL     1     143.691  73.384 219.669 -0.28 +0.00    -0.007 A  
DOCKED: ATOM     32  C   UNL     1     143.216  73.510 218.349 -0.12 -0.00    +0.011 A  
DOCKED: ATOM     33  C   UNL     1     145.087  73.281 219.880 -0.44 -0.00    +0.049 A  
DOCKED: ATOM     34  C   UNL     1     144.100  73.541 217.269 -0.11 -0.01    +0.047 A  
DOCKED: ATOM     35  C   UNL     1     145.964  73.309 218.790 -0.14 +0.03    +0.067 A  
DOCKED: ATOM     36  C   UNL     1     145.485  73.441 217.484 -0.14 +0.02    +0.120 A  
DOCKED: ATOM     37  Cl  UNL     1     145.795  73.124 221.487 -0.72 +0.02    -0.084 Cl 
DOCKED: BRANCH  36  38
DOCKED: ATOM     38  O   UNL     1     146.416  73.469 216.434 -0.11 -0.19    -0.497 OA 
DOCKED: ATOM     39  C   UNL     1     146.629  74.587 215.579 -0.12 -0.05    +0.278 C  
DOCKED: ENDBRANCH  36  38
DOCKED: ENDBRANCH  29  31
DOCKED: ENDBRANCH  26  29
DOCKED: ENDBRANCH   5  25
DOCKED: BRANCH   3  40
DOCKED: ATOM     40  O   UNL     1     137.970  78.370 221.427 -0.03 +0.07    -0.386 OA 
DOCKED: ATOM     41  H   UNL     1     137.929  77.919 220.542 +0.04 -0.04    +0.211 HD 
DOCKED: ENDBRANCH   3  40
DOCKED: TORSDOF 10
DOCKED: TER
DOCKED: ENDMDL
________________________________________________________________________________


    FINAL DOCKED STATE:
    ________________________


Run:   18 / 20
Time taken for this run:   0.065s

DOCKED: MODEL        18
DOCKED: USER    Run = 18
DOCKED: USER
DOCKED: USER    Estimated Free Energy of Binding    =  -6.73 kcal/mol  [=(1)+(2)+(3)-(4)]
DOCKED: USER
DOCKED: USER    (1) Final Intermolecular Energy     =  -9.72 kcal/mol
DOCKED: USER        vdW + Hbond + desolv Energy     =  -9.32 kcal/mol
DOCKED: USER        Electrostatic Energy            =  -0.39 kcal/mol
DOCKED: USER        Moving Ligand-Fixed Receptor    =  -9.72 kcal/mol
DOCKED: USER        Moving Ligand-Moving Receptor   =  +0.00 kcal/mol
DOCKED: USER    (2) Final Total Internal Energy     =  -3.15 kcal/mol
DOCKED: USER    (3) Torsional Free Energy           =  +2.98 kcal/mol
DOCKED: USER    (4) Unbound System's Energy         =  -3.15 kcal/mol
DOCKED: USER
DOCKED: USER
DOCKED: REMARK SMILES COc1ccc([C@H](C)NC(=O)[C@@H]2C[C@@H](O)C/[N+]2=C(\O)CNC(=O)c2ccc3cc(F)ccc3n2)c(Cl)c1
DOCKED: REMARK SMILES IDX 17 1 16 2 14 3 13 4 12 5 18 6 19 7 20 9 21 10 22 11 23 13
DOCKED: REMARK SMILES IDX 24 14 34 15 25 16 33 17 26 18 32 19 27 20 31 21 28 22 29 23
DOCKED: REMARK SMILES IDX 30 24 10 25 9 26 11 27 7 29 8 30 6 31 5 32 35 33 4 34 37 35
DOCKED: REMARK SMILES IDX 3 36 36 37 2 38 1 39 15 40
DOCKED: REMARK H PARENT 19 8 21 12 9 28 15 41
DOCKED: USER                              x       y       z     vdW  Elec       q    Type
DOCKED: USER                           _______ _______ _______ _____ _____    ______ ____
DOCKED: ROOT
DOCKED: ATOM      1  N   UNL     1     136.865  73.849 220.050 -0.02 +0.04    -0.186 N  
DOCKED: ATOM      2  C   UNL     1     135.580  74.222 219.462 +0.00 -0.06    +0.386 C  
DOCKED: ATOM      3  C   UNL     1     135.672  73.907 217.970 +0.00 -0.03    +0.186 C  
DOCKED: ATOM      4  C   UNL     1     137.163  73.836 217.673 +0.00 -0.02    +0.125 C  
DOCKED: ATOM      5  C   UNL     1     137.830  73.480 219.004 +0.00 -0.07    +0.355 C  
DOCKED: ENDROOT
DOCKED: BRANCH   1   6
DOCKED: ATOM      6  C   UNL     1     137.046  73.761 221.355 -0.05 -0.08    +0.354 C  
DOCKED: BRANCH   6   7
DOCKED: ATOM      7  O   UNL     1     137.906  74.639 222.026 -0.09 +0.14    -0.462 OA 
DOCKED: ATOM      8  H   UNL     1     138.375  74.417 222.894 -0.49 -0.17    +0.299 HD 
DOCKED: ENDBRANCH   6   7
DOCKED: BRANCH   6   9
DOCKED: ATOM      9  C   UNL     1     136.396  72.702 222.212 -0.07 -0.06    +0.269 C  
DOCKED: BRANCH   9  10
DOCKED: ATOM     10  N   UNL     1     137.265  72.266 223.300 +0.03 +0.12    -0.337 N  
DOCKED: ATOM     11  C   UNL     1     138.463  71.522 223.033 -0.14 -0.07    +0.270 C  
DOCKED: ATOM     12  H   UNL     1     137.013  72.501 224.288 -0.49 -0.08    +0.164 HD 
DOCKED: ATOM     13  O   UNL     1     139.020  71.616 221.903 -0.10 +0.05    -0.268 OA 
DOCKED: BRANCH  11  14
DOCKED: ATOM     14  C   UNL     1     139.012  70.607 224.052 -0.28 -0.02    +0.128 A  
DOCKED: ATOM     15  N   UNL     1     139.591  71.124 225.173 -0.26 +0.05    -0.243 NA 
DOCKED: ATOM     16  C   UNL     1     138.889  69.214 223.919 -0.29 -0.01    +0.035 A  
DOCKED: ATOM     17  C   UNL     1     140.056  70.335 226.177 -0.47 -0.01    +0.071 A  
DOCKED: ATOM     18  C   UNL     1     139.358  68.378 224.933 -0.39 -0.00    +0.013 A  
DOCKED: ATOM     19  C   UNL     1     140.639  70.910 227.311 -0.66 -0.01    +0.032 A  
DOCKED: ATOM     20  C   UNL     1     139.941  68.932 226.079 -0.52 -0.00    +0.003 A  
DOCKED: ATOM     21  C   UNL     1     141.101  70.095 228.348 -0.51 -0.01    +0.041 A  
DOCKED: ATOM     22  C   UNL     1     140.413  68.122 227.123 -0.63 -0.01    +0.049 A  
DOCKED: ATOM     23  C   UNL     1     140.992  68.705 228.255 -0.54 -0.03    +0.123 A  
DOCKED: ATOM     24  F   UNL     1     141.442  67.922 229.266 -0.17 +0.06    -0.207 F  
DOCKED: ENDBRANCH  11  14
DOCKED: ENDBRANCH   9  10
DOCKED: ENDBRANCH   6   9
DOCKED: ENDBRANCH   1   6
DOCKED: BRANCH   5  25
DOCKED: ATOM     25  C   UNL     1     139.155  74.190 219.118 -0.01 -0.06    +0.289 C  
DOCKED: ATOM     26  N   UNL     1     139.915  74.156 220.339 -0.03 +0.07    -0.344 N  
DOCKED: ATOM     27  O   UNL     1     139.568  74.867 218.138 -0.01 +0.06    -0.267 OA 
DOCKED: ATOM     28  H   UNL     1     139.563  73.571 221.130 +0.04 -0.03    +0.164 HD 
DOCKED: BRANCH  26  29
DOCKED: ATOM     29  C   UNL     1     141.075  75.031 220.541 -0.21 -0.03    +0.111 C  
DOCKED: ATOM     30  C   UNL     1     141.077  75.610 221.962 -0.27 -0.01    +0.036 C  
DOCKED: BRANCH  29  31
DOCKED: ATOM     31  C   UNL     1     142.365  74.273 220.263 -0.27 +0.00    -0.007 A  
DOCKED: ATOM     32  C   UNL     1     142.528  72.976 220.784 -0.27 -0.00    +0.011 A  
DOCKED: ATOM     33  C   UNL     1     143.403  74.822 219.471 -0.31 -0.02    +0.049 A  
DOCKED: ATOM     34  C   UNL     1     143.683  72.237 220.522 -0.30 -0.01    +0.047 A  
DOCKED: ATOM     35  C   UNL     1     144.558  74.074 219.217 -0.22 -0.02    +0.067 A  
DOCKED: ATOM     36  C   UNL     1     144.710  72.784 219.732 -0.30 -0.00    +0.120 A  
DOCKED: ATOM     37  Cl  UNL     1     143.307  76.433 218.764 -0.42 +0.05    -0.084 Cl 
DOCKED: BRANCH  36  38
DOCKED: ATOM     38  O   UNL     1     145.889  72.083 219.437 -0.49 -0.35    -0.497 OA 
DOCKED: ATOM     39  C   UNL     1     145.933  70.718 219.036 -0.10 +0.22    +0.278 C  
DOCKED: ENDBRANCH  36  38
DOCKED: ENDBRANCH  29  31
DOCKED: ENDBRANCH  26  29
DOCKED: ENDBRANCH   5  25
DOCKED: BRANCH   3  40
DOCKED: ATOM     40  O   UNL     1     135.083  72.662 217.697 -0.00 +0.06    -0.386 OA 
DOCKED: ATOM     41  H   UNL     1     135.736  71.969 217.981 +0.00 -0.03    +0.211 HD 
DOCKED: ENDBRANCH   3  40
DOCKED: TORSDOF 10
DOCKED: TER
DOCKED: ENDMDL
________________________________________________________________________________


    FINAL DOCKED STATE:
    ________________________


Run:   19 / 20
Time taken for this run:   0.065s

DOCKED: MODEL        19
DOCKED: USER    Run = 19
DOCKED: USER
DOCKED: USER    Estimated Free Energy of Binding    =  -8.43 kcal/mol  [=(1)+(2)+(3)-(4)]
DOCKED: USER
DOCKED: USER    (1) Final Intermolecular Energy     = -11.41 kcal/mol
DOCKED: USER        vdW + Hbond + desolv Energy     = -10.83 kcal/mol
DOCKED: USER        Electrostatic Energy            =  -0.58 kcal/mol
DOCKED: USER        Moving Ligand-Fixed Receptor    = -11.41 kcal/mol
DOCKED: USER        Moving Ligand-Moving Receptor   =  +0.00 kcal/mol
DOCKED: USER    (2) Final Total Internal Energy     =  -3.01 kcal/mol
DOCKED: USER    (3) Torsional Free Energy           =  +2.98 kcal/mol
DOCKED: USER    (4) Unbound System's Energy         =  -3.01 kcal/mol
DOCKED: USER
DOCKED: USER
DOCKED: REMARK SMILES COc1ccc([C@H](C)NC(=O)[C@@H]2C[C@@H](O)C/[N+]2=C(\O)CNC(=O)c2ccc3cc(F)ccc3n2)c(Cl)c1
DOCKED: REMARK SMILES IDX 17 1 16 2 14 3 13 4 12 5 18 6 19 7 20 9 21 10 22 11 23 13
DOCKED: REMARK SMILES IDX 24 14 34 15 25 16 33 17 26 18 32 19 27 20 31 21 28 22 29 23
DOCKED: REMARK SMILES IDX 30 24 10 25 9 26 11 27 7 29 8 30 6 31 5 32 35 33 4 34 37 35
DOCKED: REMARK SMILES IDX 3 36 36 37 2 38 1 39 15 40
DOCKED: REMARK H PARENT 19 8 21 12 9 28 15 41
DOCKED: USER                              x       y       z     vdW  Elec       q    Type
DOCKED: USER                           _______ _______ _______ _____ _____    ______ ____
DOCKED: ROOT
DOCKED: ATOM      1  N   UNL     1     140.792  76.359 220.934 -0.18 +0.07    -0.186 N  
DOCKED: ATOM      2  C   UNL     1     141.688  77.389 220.412 -0.13 -0.22    +0.386 C  
DOCKED: ATOM      3  C   UNL     1     141.463  78.638 221.263 -0.27 -0.09    +0.186 C  
DOCKED: ATOM      4  C   UNL     1     140.102  78.434 221.911 -0.25 -0.04    +0.125 C  
DOCKED: ATOM      5  C   UNL     1     139.887  76.920 221.948 -0.20 -0.09    +0.355 C  
DOCKED: ENDROOT
DOCKED: BRANCH   1   6
DOCKED: ATOM      6  C   UNL     1     140.901  75.088 220.592 -0.12 -0.10    +0.354 C  
DOCKED: BRANCH   6   7
DOCKED: ATOM      7  O   UNL     1     139.918  74.463 219.815 +0.00 +0.10    -0.462 OA 
DOCKED: ATOM      8  H   UNL     1     139.212  73.843 220.190 +0.06 -0.06    +0.299 HD 
DOCKED: ENDBRANCH   6   7
DOCKED: BRANCH   6   9
DOCKED: ATOM      9  C   UNL     1     142.042  74.205 221.037 -0.07 -0.06    +0.269 C  
DOCKED: BRANCH   9  10
DOCKED: ATOM     10  N   UNL     1     141.574  72.924 221.557 -0.11 +0.03    -0.337 N  
DOCKED: ATOM     11  C   UNL     1     140.424  72.853 222.413 -0.12 -0.02    +0.270 C  
DOCKED: ATOM     12  H   UNL     1     142.082  72.047 221.301 +0.06 -0.02    +0.164 HD 
DOCKED: ATOM     13  O   UNL     1     139.554  73.767 222.371 -0.78 +0.04    -0.268 OA 
DOCKED: BRANCH  11  14
DOCKED: ATOM     14  C   UNL     1     140.285  71.746 223.378 -0.32 -0.02    +0.128 A  
DOCKED: ATOM     15  N   UNL     1     140.758  71.900 224.647 -0.22 +0.03    -0.243 NA 
DOCKED: ATOM     16  C   UNL     1     139.617  70.560 223.030 -0.25 -0.01    +0.035 A  
DOCKED: ATOM     17  C   UNL     1     140.602  70.943 225.599 -0.52 -0.01    +0.071 A  
DOCKED: ATOM     18  C   UNL     1     139.442  69.558 223.986 -0.29 -0.00    +0.013 A  
DOCKED: ATOM     19  C   UNL     1     141.099  71.148 226.891 -0.66 -0.00    +0.032 A  
DOCKED: ATOM     20  C   UNL     1     139.928  69.743 225.286 -0.43 -0.00    +0.003 A  
DOCKED: ATOM     21  C   UNL     1     140.922  70.167 227.871 -0.58 -0.01    +0.041 A  
DOCKED: ATOM     22  C   UNL     1     139.760  68.762 226.276 -0.51 -0.01    +0.049 A  
DOCKED: ATOM     23  C   UNL     1     140.258  68.976 227.565 -0.53 -0.02    +0.123 A  
DOCKED: ATOM     24  F   UNL     1     140.090  68.030 228.522 -0.14 +0.05    -0.207 F  
DOCKED: ENDBRANCH  11  14
DOCKED: ENDBRANCH   9  10
DOCKED: ENDBRANCH   6   9
DOCKED: ENDBRANCH   1   6
DOCKED: BRANCH   5  25
DOCKED: ATOM     25  C   UNL     1     138.432  76.603 221.710 -0.15 -0.06    +0.289 C  
DOCKED: ATOM     26  N   UNL     1     137.741  75.632 222.515 -0.13 +0.10    -0.344 N  
DOCKED: ATOM     27  O   UNL     1     137.837  77.166 220.752 -0.04 +0.06    -0.267 OA 
DOCKED: ATOM     28  H   UNL     1     138.249  75.194 223.317 -0.43 -0.09    +0.164 HD 
DOCKED: BRANCH  26  29
DOCKED: ATOM     29  C   UNL     1     136.409  75.142 222.144 -0.14 -0.03    +0.111 C  
DOCKED: ATOM     30  C   UNL     1     136.516  73.931 221.208 -0.08 -0.01    +0.036 C  
DOCKED: BRANCH  29  31
DOCKED: ATOM     31  C   UNL     1     135.606  74.794 223.389 -0.23 +0.00    -0.007 A  
DOCKED: ATOM     32  C   UNL     1     135.503  73.449 223.789 -0.22 -0.00    +0.011 A  
DOCKED: ATOM     33  C   UNL     1     134.978  75.787 224.180 -0.26 -0.01    +0.049 A  
DOCKED: ATOM     34  C   UNL     1     134.804  73.095 224.944 -0.24 -0.00    +0.047 A  
DOCKED: ATOM     35  C   UNL     1     134.277  75.421 225.335 -0.31 -0.00    +0.067 A  
DOCKED: ATOM     36  C   UNL     1     134.185  74.084 225.728 -0.29 +0.00    +0.120 A  
DOCKED: ATOM     37  Cl  UNL     1     135.045  77.502 223.780 -0.17 +0.01    -0.084 Cl 
DOCKED: BRANCH  36  38
DOCKED: ATOM     38  O   UNL     1     133.474  73.782 226.900 -0.70 -0.07    -0.497 OA 
DOCKED: ATOM     39  C   UNL     1     132.105  74.108 227.116 -0.26 -0.02    +0.278 C  
DOCKED: ENDBRANCH  36  38
DOCKED: ENDBRANCH  29  31
DOCKED: ENDBRANCH  26  29
DOCKED: ENDBRANCH   5  25
DOCKED: BRANCH   3  40
DOCKED: ATOM     40  O   UNL     1     142.446  78.731 222.263 -0.17 +0.26    -0.386 OA 
DOCKED: ATOM     41  H   UNL     1     143.252  78.267 221.914 -0.46 -0.26    +0.211 HD 
DOCKED: ENDBRANCH   3  40
DOCKED: TORSDOF 10
DOCKED: TER
DOCKED: ENDMDL
________________________________________________________________________________


    FINAL DOCKED STATE:
    ________________________


Run:   20 / 20
Time taken for this run:   0.065s

DOCKED: MODEL        20
DOCKED: USER    Run = 20
DOCKED: USER
DOCKED: USER    Estimated Free Energy of Binding    =  -5.35 kcal/mol  [=(1)+(2)+(3)-(4)]
DOCKED: USER
DOCKED: USER    (1) Final Intermolecular Energy     =  -8.34 kcal/mol
DOCKED: USER        vdW + Hbond + desolv Energy     =  -8.15 kcal/mol
DOCKED: USER        Electrostatic Energy            =  -0.19 kcal/mol
DOCKED: USER        Moving Ligand-Fixed Receptor    =  -8.34 kcal/mol
DOCKED: USER        Moving Ligand-Moving Receptor   =  +0.00 kcal/mol
DOCKED: USER    (2) Final Total Internal Energy     =  -5.93 kcal/mol
DOCKED: USER    (3) Torsional Free Energy           =  +2.98 kcal/mol
DOCKED: USER    (4) Unbound System's Energy         =  -5.93 kcal/mol
DOCKED: USER
DOCKED: USER
DOCKED: REMARK SMILES COc1ccc([C@H](C)NC(=O)[C@@H]2C[C@@H](O)C/[N+]2=C(\O)CNC(=O)c2ccc3cc(F)ccc3n2)c(Cl)c1
DOCKED: REMARK SMILES IDX 17 1 16 2 14 3 13 4 12 5 18 6 19 7 20 9 21 10 22 11 23 13
DOCKED: REMARK SMILES IDX 24 14 34 15 25 16 33 17 26 18 32 19 27 20 31 21 28 22 29 23
DOCKED: REMARK SMILES IDX 30 24 10 25 9 26 11 27 7 29 8 30 6 31 5 32 35 33 4 34 37 35
DOCKED: REMARK SMILES IDX 3 36 36 37 2 38 1 39 15 40
DOCKED: REMARK H PARENT 19 8 21 12 9 28 15 41
DOCKED: USER                              x       y       z     vdW  Elec       q    Type
DOCKED: USER                           _______ _______ _______ _____ _____    ______ ____
DOCKED: ROOT
DOCKED: ATOM      1  N   UNL     1     141.706  73.813 219.902 -0.10 +0.04    -0.186 N  
DOCKED: ATOM      2  C   UNL     1     142.501  72.621 219.618 -0.04 -0.06    +0.386 C  
DOCKED: ATOM      3  C   UNL     1     143.947  72.961 219.976 -0.24 -0.03    +0.186 C  
DOCKED: ATOM      4  C   UNL     1     144.005  74.482 219.978 -0.35 -0.05    +0.125 C  
DOCKED: ATOM      5  C   UNL     1     142.574  74.947 220.253 -0.15 -0.14    +0.355 C  
DOCKED: ENDROOT
DOCKED: BRANCH   1   6
DOCKED: ATOM      6  C   UNL     1     140.386  73.791 219.938 -0.04 -0.07    +0.354 C  
DOCKED: BRANCH   6   7
DOCKED: ATOM      7  O   UNL     1     139.628  74.088 218.799 +0.01 +0.10    -0.462 OA 
DOCKED: ATOM      8  H   UNL     1     138.735  74.563 218.823 +0.03 -0.06    +0.299 HD 
DOCKED: ENDBRANCH   6   7
DOCKED: BRANCH   6   9
DOCKED: ATOM      9  C   UNL     1     139.596  73.497 221.190 -0.14 -0.05    +0.269 C  
DOCKED: BRANCH   9  10
DOCKED: ATOM     10  N   UNL     1     139.462  74.674 222.042 -0.15 +0.06    -0.337 N  
DOCKED: ATOM     11  C   UNL     1     139.103  75.948 221.487 -0.17 -0.06    +0.270 C  
DOCKED: ATOM     12  H   UNL     1     139.627  74.588 223.072 -0.46 +0.00    +0.164 HD 
DOCKED: ATOM     13  O   UNL     1     138.473  76.000 220.394 -0.04 +0.06    -0.268 OA 
DOCKED: BRANCH  11  14
DOCKED: ATOM     14  C   UNL     1     139.516  77.194 222.161 -0.27 -0.03    +0.128 A  
DOCKED: ATOM     15  N   UNL     1     140.815  77.600 222.082 -0.23 +0.09    -0.243 NA 
DOCKED: ATOM     16  C   UNL     1     138.580  78.002 222.828 -0.26 -0.01    +0.035 A  
DOCKED: ATOM     17  C   UNL     1     141.242  78.770 222.625 -0.44 -0.03    +0.071 A  
DOCKED: ATOM     18  C   UNL     1     138.990  79.209 223.397 -0.35 -0.00    +0.013 A  
DOCKED: ATOM     19  C   UNL     1     142.585  79.148 222.514 -0.45 -0.02    +0.032 A  
DOCKED: ATOM     20  C   UNL     1     140.328  79.610 223.295 -0.45 -0.00    +0.003 A  
DOCKED: ATOM     21  C   UNL     1     143.017  80.359 223.062 -0.62 -0.01    +0.041 A  
DOCKED: ATOM     22  C   UNL     1     140.772  80.822 223.846 -0.39 -0.01    +0.049 A  
DOCKED: ATOM     23  C   UNL     1     142.115  81.194 223.727 -0.53 -0.02    +0.123 A  
DOCKED: ATOM     24  F   UNL     1     142.542  82.368 224.254 -0.07 +0.00    -0.207 F  
DOCKED: ENDBRANCH  11  14
DOCKED: ENDBRANCH   9  10
DOCKED: ENDBRANCH   6   9
DOCKED: ENDBRANCH   1   6
DOCKED: BRANCH   5  25
DOCKED: ATOM     25  C   UNL     1     142.284  76.203 219.470 -0.18 -0.15    +0.289 C  
DOCKED: ATOM     26  N   UNL     1     140.935  76.590 219.158 -0.02 +0.13    -0.344 N  
DOCKED: ATOM     27  O   UNL     1     143.252  76.888 219.041 -0.30 +0.19    -0.267 OA 
DOCKED: ATOM     28  H   UNL     1     140.149  76.019 219.542 +0.04 -0.05    +0.164 HD 
DOCKED: BRANCH  26  29
DOCKED: ATOM     29  C   UNL     1     140.651  77.666 218.202 -0.07 -0.05    +0.111 C  
DOCKED: ATOM     30  C   UNL     1     139.481  77.283 217.285 -0.02 -0.01    +0.036 C  
DOCKED: BRANCH  29  31
DOCKED: ATOM     31  C   UNL     1     140.360  78.966 218.937 -0.11 +0.00    -0.007 A  
DOCKED: ATOM     32  C   UNL     1     139.140  79.110 219.624 -0.06 -0.00    +0.011 A  
DOCKED: ATOM     33  C   UNL     1     141.291  80.032 218.977 -0.21 -0.02    +0.049 A  
DOCKED: ATOM     34  C   UNL     1     138.853  80.275 220.338 -0.07 -0.01    +0.047 A  
DOCKED: ATOM     35  C   UNL     1     140.992  81.196 219.693 -0.21 -0.02    +0.067 A  
DOCKED: ATOM     36  C   UNL     1     139.782  81.329 220.378 -0.11 -0.03    +0.120 A  
DOCKED: ATOM     37  Cl  UNL     1     142.851  79.961 218.159 -0.24 +0.08    -0.084 Cl 
DOCKED: BRANCH  36  38
DOCKED: ATOM     38  O   UNL     1     139.543  82.519 221.083 -0.05 +0.09    -0.497 OA 
DOCKED: ATOM     39  C   UNL     1     140.346  83.689 220.982 -0.16 -0.05    +0.278 C  
DOCKED: ENDBRANCH  36  38
DOCKED: ENDBRANCH  29  31
DOCKED: ENDBRANCH  26  29
DOCKED: ENDBRANCH   5  25
DOCKED: BRANCH   3  40
DOCKED: ATOM     40  O   UNL     1     144.257  72.482 221.260 -0.11 +0.08    -0.386 OA 
DOCKED: ATOM     41  H   UNL     1     145.042  71.881 221.158 -0.37 -0.09    +0.211 HD 
DOCKED: ENDBRANCH   3  40
DOCKED: TORSDOF 10
DOCKED: TER
DOCKED: ENDMDL
________________________________________________________________________________


    CLUSTERING HISTOGRAM
    ____________________


________________________________________________________________________________
     |           |     |           |     |
Clus | Lowest    | Run | Mean      | Num | Histogram
-ter | Binding   |     | Binding   | in  |
Rank | Energy    |     | Energy    | Clus|    5    10   15   20   25   30   35
_____|___________|_____|___________|_____|____:____|____:____|____:____|____:___
   1 |     -8.61 |   9 |     -8.22 |   4 |####
   2 |     -8.43 |  19 |     -8.02 |   2 |##
   3 |     -7.46 |  15 |     -7.46 |   1 |#
   4 |     -7.43 |  17 |     -7.43 |   1 |#
   5 |     -7.15 |  13 |     -7.15 |   1 |#
   6 |     -6.73 |  18 |     -6.73 |   1 |#
   7 |     -6.41 |   7 |     -6.41 |   1 |#
   8 |     -6.08 |   1 |     -6.08 |   1 |#
   9 |     -5.41 |   5 |     -5.41 |   1 |#
  10 |     -5.35 |  20 |     -5.34 |   7 |#######
_____|___________|_____|___________|_____|______________________________________


    RMSD TABLE
    __________


_______________________________________________________________________
     |      |      |           |         |                 |
Rank | Sub- | Run  | Binding   | Cluster | Reference       | Grep
     | Rank |      | Energy    | RMSD    | RMSD            | Pattern
_____|______|______|___________|_________|_________________|___________
   1      1      9       -8.61      0.00    269.80           RANKING
   1      2     10       -8.60      0.28    269.78           RANKING
   1      3      3       -8.10      1.49    269.99           RANKING
   1      4      8       -7.57      1.53    269.54           RANKING
   2      1     19       -8.43      0.00    269.40           RANKING
   2      2     12       -7.61      1.27    269.33           RANKING
   3      1     15       -7.46      0.00    269.53           RANKING
   4      1     17       -7.43      0.00    268.86           RANKING
   5      1     13       -7.15      0.00    269.16           RANKING
   6      1     18       -6.73      0.00    268.32           RANKING
   7      1      7       -6.41      0.00    268.84           RANKING
   8      1      1       -6.08      0.00    268.74           RANKING
   9      1      5       -5.41      0.00    267.98           RANKING
  10      1     20       -5.35      0.00    269.30           RANKING
  10      2      4       -5.35      0.05    269.30           RANKING
  10      3      2       -5.35      0.06    269.32           RANKING
  10      4      6       -5.35      0.15    269.25           RANKING
  10      5     11       -5.34      0.11    269.27           RANKING
  10      6     14       -5.33      0.07    269.30           RANKING
  10      7     16       -5.29      0.46    269.25           RANKING

Run time 1.215 sec
Idle time 0.000 sec
