AutoDock-GPU version: v1.6

**********************************************************
**    AutoDock-GPU AUTODOCKTOOLS-COMPATIBLE DLG FILE    **
**********************************************************


    DOCKING PARAMETERS
    ________________________


Ligand file:                               /home/a/REINVENT4/ReinventStudies/scoringData/graph-dock-34dfml/graph-DockGPU/node-autodockgpu/inputs/MCZRVQBLWAUNOI-ALAAQIMBNA-P.pdbqt
Grid fld file:                             /home/a/REINVENT4/ReinventStudies/mols/Rad51/maps/rad51_receptor.maps.fld

Random seed:                               42
Number of runs:                            20
Number of energy evaluations:              2040163
Number of generations:                     42000
Size of population:                        150
Rate of crossover:                         80.000000%
Tournament selection probability limit:    60.000000%
Rate of mutation:                          2.000000%
Maximal allowed delta movement:            +/- 6.000000A
Maximal allowed delta angle:               +/- 90.000000

Rate of local search:                      100.000000%
Maximal number of local search iterations: 300
Rho lower bound:                           0.010000
Spread of local search delta movement:     2.000000A
Spread of local search delta angle:        74.999999
Limit of consecutive successes/failures:   4

Handle symmetry during clustering:         YES
RMSD tolerance:                            2.000000A

Program call in command line was:          /home/a/REINVENT4/ReinventStudies/adgpu-v1.6_linux_x64_cuda12_128wi --filelist batch.txt --heuristics 1 --nrun 20 --psize 150 --lsit 300 --seed 42 --heurmax 12000000 


    GRID PARAMETERS
    ________________________


Receptor name:                             rad51_receptor
Number of grid points (x, y, z):           53, 53, 53
Grid center (x, y, z):                     139.950000, 75.640000, 221.970000A
Grid size (x, y, z):                       19.500000, 19.500000, 19.500000A
Grid spacing:                              0.375000A


    LIGAND PARAMETERS
    ________________________


Ligand name:                               /home/a/REINVENT4/ReinventStudies/scoringData/graph-dock-34dfml/graph-DockGPU/node-autodockgpu/inputs/MCZRVQBLWAUNOI-ALAAQIMBNA-P
Number of atoms:                           34
Number of rotatable bonds:                 9
Number of atom types:                      6


    DUMMY DATA (only for ADT-compatibility)
    ________________________


DPF> outlev 1
DPF> ga_run 20
DPF> fld /home/a/REINVENT4/ReinventStudies/mols/Rad51/maps/rad51_receptor.maps.fld
DPF> move /home/a/REINVENT4/ReinventStudies/scoringData/graph-dock-34dfml/graph-DockGPU/node-autodockgpu/inputs/MCZRVQBLWAUNOI-ALAAQIMBNA-P.pdbqt


    COUNTER STATES
    ________________________


Number of energy evaluations performed:    689812
Number of generations used:                35


    INPUT LIGAND PDBQT FILE:
    ________________________


INPUT-LIGAND-PDBQT: REMARK SMILES CC/C(O)=[N+](\c1ccccc1)[C@H]1CC[N@H+](C(=O)[C@@H](N)C2Cc3ccccc3C2)CC1
INPUT-LIGAND-PDBQT: REMARK SMILES IDX 12 1 13 2 14 3 15 4 29 6 30 7 5 8 3 9 4 10 2 12 1 13 6 14
INPUT-LIGAND-PDBQT: REMARK SMILES IDX 7 15 11 16 8 17 10 18 9 19 16 20 17 21 18 22 19 23 20 26
INPUT-LIGAND-PDBQT: REMARK SMILES IDX 21 27 28 28 22 29 27 30 23 31 26 32 24 33 25 34
INPUT-LIGAND-PDBQT: REMARK H PARENT 15 5 4 11 19 24 19 25
INPUT-LIGAND-PDBQT: ROOT
INPUT-LIGAND-PDBQT: ATOM      1  C   UNL     1      -1.171  -1.637   0.298  1.00  0.00     0.281 C 
INPUT-LIGAND-PDBQT: ATOM      2  C   UNL     1      -0.867  -0.962   1.669  1.00  0.00     0.139 C 
INPUT-LIGAND-PDBQT: ATOM      3  C   UNL     1      -0.769   0.577   1.581  1.00  0.00     0.277 C 
INPUT-LIGAND-PDBQT: ATOM      4  N   UNL     1      -0.154   1.063   0.325  1.00  0.00    -0.270 N 
INPUT-LIGAND-PDBQT: ATOM      5  H   UNL     1      -0.301   2.100   0.325  1.00  0.00     0.356 HD
INPUT-LIGAND-PDBQT: ATOM      6  C   UNL     1      -0.805   0.550  -0.918  1.00  0.00     0.277 C 
INPUT-LIGAND-PDBQT: ATOM      7  C   UNL     1      -1.777  -0.622  -0.681  1.00  0.00     0.139 C 
INPUT-LIGAND-PDBQT: ENDROOT
INPUT-LIGAND-PDBQT: BRANCH   1   8
INPUT-LIGAND-PDBQT: ATOM      8  N   UNL     1      -2.029  -2.850   0.396  1.00  0.00    -0.162 N 
INPUT-LIGAND-PDBQT: BRANCH   8   9
INPUT-LIGAND-PDBQT: ATOM      9  C   UNL     1      -1.903  -3.865  -0.447  1.00  0.00     0.339 C 
INPUT-LIGAND-PDBQT: BRANCH   9  10
INPUT-LIGAND-PDBQT: ATOM     10  O   UNL     1      -1.011  -3.827  -1.529  1.00  0.00    -0.463 OA
INPUT-LIGAND-PDBQT: ATOM     11  H   UNL     1      -0.528  -3.002  -1.861  1.00  0.00     0.299 HD
INPUT-LIGAND-PDBQT: ENDBRANCH   9  10
INPUT-LIGAND-PDBQT: BRANCH   9  12
INPUT-LIGAND-PDBQT: ATOM     12  C   UNL     1      -2.742  -5.124  -0.293  1.00  0.00     0.150 C 
INPUT-LIGAND-PDBQT: ATOM     13  C   UNL     1      -2.405  -6.201  -1.324  1.00  0.00     0.019 C 
INPUT-LIGAND-PDBQT: ENDBRANCH   9  12
INPUT-LIGAND-PDBQT: ENDBRANCH   8   9
INPUT-LIGAND-PDBQT: BRANCH   8  14
INPUT-LIGAND-PDBQT: ATOM     14  C   UNL     1      -3.102  -2.872   1.363  1.00  0.00     0.208 A 
INPUT-LIGAND-PDBQT: ATOM     15  C   UNL     1      -4.337  -2.277   1.064  1.00  0.00     0.079 A 
INPUT-LIGAND-PDBQT: ATOM     16  C   UNL     1      -2.922  -3.505   2.604  1.00  0.00     0.079 A 
INPUT-LIGAND-PDBQT: ATOM     17  C   UNL     1      -5.374  -2.301   2.002  1.00  0.00     0.007 A 
INPUT-LIGAND-PDBQT: ATOM     18  C   UNL     1      -3.960  -3.526   3.540  1.00  0.00     0.007 A 
INPUT-LIGAND-PDBQT: ATOM     19  C   UNL     1      -5.185  -2.921   3.240  1.00  0.00     0.000 A 
INPUT-LIGAND-PDBQT: ENDBRANCH   8  14
INPUT-LIGAND-PDBQT: ENDBRANCH   1   8
INPUT-LIGAND-PDBQT: BRANCH   4  20
INPUT-LIGAND-PDBQT: ATOM     20  C   UNL     1       1.282   0.826   0.333  1.00  0.00     0.329 C 
INPUT-LIGAND-PDBQT: ATOM     21  O   UNL     1       1.724  -0.298   0.133  1.00  0.00    -0.229 OA
INPUT-LIGAND-PDBQT: BRANCH  20  22
INPUT-LIGAND-PDBQT: ATOM     22  C   UNL     1       2.258   1.954   0.608  1.00  0.00     0.186 C 
INPUT-LIGAND-PDBQT: BRANCH  22  23
INPUT-LIGAND-PDBQT: ATOM     23  N   UNL     1       3.124   1.564   1.726  1.00  0.00    -0.316 NA
INPUT-LIGAND-PDBQT: ATOM     24  H   UNL     1       3.855   0.893   1.392  1.00  0.00     0.119 HD
INPUT-LIGAND-PDBQT: ATOM     25  H   UNL     1       3.618   2.410   2.093  1.00  0.00     0.119 HD
INPUT-LIGAND-PDBQT: ENDBRANCH  22  23
INPUT-LIGAND-PDBQT: BRANCH  22  26
INPUT-LIGAND-PDBQT: ATOM     26  C   UNL     1       3.080   2.288  -0.666  1.00  0.00     0.028 C 
INPUT-LIGAND-PDBQT: ATOM     27  C   UNL     1       2.190   2.737  -1.854  1.00  0.00     0.042 C 
INPUT-LIGAND-PDBQT: ATOM     28  C   UNL     1       4.109   3.425  -0.444  1.00  0.00     0.042 C 
INPUT-LIGAND-PDBQT: ATOM     29  C   UNL     1       2.955   3.847  -2.465  1.00  0.00    -0.044 A 
INPUT-LIGAND-PDBQT: ATOM     30  C   UNL     1       4.022   4.223  -1.688  1.00  0.00    -0.044 A 
INPUT-LIGAND-PDBQT: ATOM     31  C   UNL     1       2.664   4.508  -3.660  1.00  0.00     0.004 A 
INPUT-LIGAND-PDBQT: ATOM     32  C   UNL     1       4.856   5.279  -2.066  1.00  0.00     0.004 A 
INPUT-LIGAND-PDBQT: ATOM     33  C   UNL     1       3.492   5.569  -4.063  1.00  0.00     0.000 A 
INPUT-LIGAND-PDBQT: ATOM     34  C   UNL     1       4.587   5.952  -3.267  1.00  0.00     0.000 A 
INPUT-LIGAND-PDBQT: ENDBRANCH  22  26
INPUT-LIGAND-PDBQT: ENDBRANCH  20  22
INPUT-LIGAND-PDBQT: ENDBRANCH   4  20
INPUT-LIGAND-PDBQT: TORSDOF 9


    FINAL DOCKED STATE:
    ________________________


Run:   1 / 20
Time taken for this run:   0.035s

DOCKED: MODEL        1
DOCKED: USER    Run = 1
DOCKED: USER
DOCKED: USER    Estimated Free Energy of Binding    =  -8.39 kcal/mol  [=(1)+(2)+(3)-(4)]
DOCKED: USER
DOCKED: USER    (1) Final Intermolecular Energy     = -11.08 kcal/mol
DOCKED: USER        vdW + Hbond + desolv Energy     = -10.31 kcal/mol
DOCKED: USER        Electrostatic Energy            =  -0.76 kcal/mol
DOCKED: USER        Moving Ligand-Fixed Receptor    = -11.08 kcal/mol
DOCKED: USER        Moving Ligand-Moving Receptor   =  +0.00 kcal/mol
DOCKED: USER    (2) Final Total Internal Energy     =  -1.47 kcal/mol
DOCKED: USER    (3) Torsional Free Energy           =  +2.68 kcal/mol
DOCKED: USER    (4) Unbound System's Energy         =  -1.47 kcal/mol
DOCKED: USER
DOCKED: USER
DOCKED: REMARK SMILES CC/C(O)=[N+](\c1ccccc1)[C@H]1CC[N@H+](C(=O)[C@@H](N)C2Cc3ccccc3C2)CC1
DOCKED: REMARK SMILES IDX 12 1 13 2 14 3 15 4 29 6 30 7 5 8 3 9 4 10 2 12 1 13 6 14
DOCKED: REMARK SMILES IDX 7 15 11 16 8 17 10 18 9 19 16 20 17 21 18 22 19 23 20 26
DOCKED: REMARK SMILES IDX 21 27 28 28 22 29 27 30 23 31 26 32 24 33 25 34
DOCKED: REMARK H PARENT 15 5 4 11 19 24 19 25
DOCKED: USER                              x       y       z     vdW  Elec       q    Type
DOCKED: USER                           _______ _______ _______ _____ _____    ______ ____
DOCKED: ROOT
DOCKED: ATOM      1  C   UNL     1     140.803  75.988 221.313 -0.21 -0.09    +0.281 C  
DOCKED: ATOM      2  C   UNL     1     141.379  74.782 220.513 -0.21 -0.04    +0.139 C  
DOCKED: ATOM      3  C   UNL     1     140.313  73.719 220.164 -0.07 -0.06    +0.277 C  
DOCKED: ATOM      4  N   UNL     1     139.292  73.531 221.219 -0.10 +0.05    -0.270 N  
DOCKED: ATOM      5  H   UNL     1     138.557  72.921 220.791 +0.07 -0.07    +0.356 HD 
DOCKED: ATOM      6  C   UNL     1     138.600  74.788 221.637 -0.15 -0.07    +0.277 C  
DOCKED: ATOM      7  C   UNL     1     139.281  76.076 221.136 -0.17 -0.03    +0.139 C  
DOCKED: ENDROOT
DOCKED: BRANCH   1   8
DOCKED: ATOM      8  N   UNL     1     141.446  77.292 220.993 -0.22 +0.09    -0.162 N  
DOCKED: BRANCH   8   9
DOCKED: ATOM      9  C   UNL     1     142.152  77.469 219.885 -0.15 -0.22    +0.339 C  
DOCKED: BRANCH   9  10
DOCKED: ATOM     10  O   UNL     1     143.378  76.820 219.672 -0.20 +0.37    -0.463 OA 
DOCKED: ATOM     11  H   UNL     1     144.289  77.256 219.734 -0.42 -0.32    +0.299 HD 
DOCKED: ENDBRANCH   9  10
DOCKED: BRANCH   9  12
DOCKED: ATOM     12  C   UNL     1     141.674  78.408 218.789 -0.19 -0.09    +0.150 C  
DOCKED: ATOM     13  C   UNL     1     142.228  79.826 218.929 -0.29 -0.01    +0.019 C  
DOCKED: ENDBRANCH   9  12
DOCKED: ENDBRANCH   8   9
DOCKED: BRANCH   8  14
DOCKED: ATOM     14  C   UNL     1     141.395  78.356 221.968 -0.29 -0.10    +0.208 A  
DOCKED: ATOM     15  C   UNL     1     142.564  79.045 222.326 -0.34 -0.05    +0.079 A  
DOCKED: ATOM     16  C   UNL     1     140.171  78.720 222.553 -0.33 -0.02    +0.079 A  
DOCKED: ATOM     17  C   UNL     1     142.511  80.075 223.270 -0.65 -0.00    +0.007 A  
DOCKED: ATOM     18  C   UNL     1     140.122  79.750 223.498 -0.45 -0.00    +0.007 A  
DOCKED: ATOM     19  C   UNL     1     141.293  80.425 223.858 -0.51 -0.00    +0.000 A  
DOCKED: ENDBRANCH   8  14
DOCKED: ENDBRANCH   1   8
DOCKED: BRANCH   4  20
DOCKED: ATOM     20  C   UNL     1     139.853  72.809 222.352 -0.16 -0.05    +0.329 C  
DOCKED: ATOM     21  O   UNL     1     141.000  73.029 222.718 -0.46 -0.02    -0.229 OA 
DOCKED: BRANCH  20  22
DOCKED: ATOM     22  C   UNL     1     139.043  71.758 223.086 -0.18 -0.05    +0.186 C  
DOCKED: BRANCH  22  23
DOCKED: ATOM     23  N   UNL     1     138.237  71.018 222.109 -0.05 +0.06    -0.316 NA 
DOCKED: ATOM     24  H   UNL     1     138.833  70.309 221.621 +0.03 -0.02    +0.119 HD 
DOCKED: ATOM     25  H   UNL     1     137.477  70.500 222.608 +0.03 -0.02    +0.119 HD 
DOCKED: ENDBRANCH  22  23
DOCKED: BRANCH  22  26
DOCKED: ATOM     26  C   UNL     1     139.976  70.815 223.894 -0.37 -0.00    +0.028 C  
DOCKED: ATOM     27  C   UNL     1     140.542  71.483 225.173 -0.50 -0.01    +0.042 C  
DOCKED: ATOM     28  C   UNL     1     139.270  69.517 224.361 -0.33 -0.01    +0.042 C  
DOCKED: ATOM     29  C   UNL     1     140.483  70.406 226.187 -0.53 +0.01    -0.044 A  
DOCKED: ATOM     30  C   UNL     1     139.784  69.314 225.734 -0.43 +0.01    -0.044 A  
DOCKED: ATOM     31  C   UNL     1     141.011  70.439 227.479 -0.62 -0.00    +0.004 A  
DOCKED: ATOM     32  C   UNL     1     139.579  68.197 226.549 -0.61 -0.00    +0.004 A  
DOCKED: ATOM     33  C   UNL     1     140.822  69.326 228.314 -0.62 -0.00    +0.000 A  
DOCKED: ATOM     34  C   UNL     1     140.108  68.206 227.848 -0.63 -0.00    +0.000 A  
DOCKED: ENDBRANCH  22  26
DOCKED: ENDBRANCH  20  22
DOCKED: ENDBRANCH   4  20
DOCKED: TORSDOF 9
DOCKED: TER
DOCKED: ENDMDL
________________________________________________________________________________


    FINAL DOCKED STATE:
    ________________________


Run:   2 / 20
Time taken for this run:   0.035s

DOCKED: MODEL        2
DOCKED: USER    Run = 2
DOCKED: USER
DOCKED: USER    Estimated Free Energy of Binding    =  -6.52 kcal/mol  [=(1)+(2)+(3)-(4)]
DOCKED: USER
DOCKED: USER    (1) Final Intermolecular Energy     =  -9.21 kcal/mol
DOCKED: USER        vdW + Hbond + desolv Energy     =  -8.24 kcal/mol
DOCKED: USER        Electrostatic Energy            =  -0.97 kcal/mol
DOCKED: USER        Moving Ligand-Fixed Receptor    =  -9.21 kcal/mol
DOCKED: USER        Moving Ligand-Moving Receptor   =  +0.00 kcal/mol
DOCKED: USER    (2) Final Total Internal Energy     =  -3.13 kcal/mol
DOCKED: USER    (3) Torsional Free Energy           =  +2.68 kcal/mol
DOCKED: USER    (4) Unbound System's Energy         =  -3.13 kcal/mol
DOCKED: USER
DOCKED: USER
DOCKED: REMARK SMILES CC/C(O)=[N+](\c1ccccc1)[C@H]1CC[N@H+](C(=O)[C@@H](N)C2Cc3ccccc3C2)CC1
DOCKED: REMARK SMILES IDX 12 1 13 2 14 3 15 4 29 6 30 7 5 8 3 9 4 10 2 12 1 13 6 14
DOCKED: REMARK SMILES IDX 7 15 11 16 8 17 10 18 9 19 16 20 17 21 18 22 19 23 20 26
DOCKED: REMARK SMILES IDX 21 27 28 28 22 29 27 30 23 31 26 32 24 33 25 34
DOCKED: REMARK H PARENT 15 5 4 11 19 24 19 25
DOCKED: USER                              x       y       z     vdW  Elec       q    Type
DOCKED: USER                           _______ _______ _______ _____ _____    ______ ____
DOCKED: ROOT
DOCKED: ATOM      1  C   UNL     1     140.824  77.694 220.173 -0.11 -0.12    +0.281 C  
DOCKED: ATOM      2  C   UNL     1     141.784  76.511 220.499 -0.21 -0.07    +0.139 C  
DOCKED: ATOM      3  C   UNL     1     141.336  75.173 219.870 -0.11 -0.09    +0.277 C  
DOCKED: ATOM      4  N   UNL     1     139.867  74.993 219.839 -0.03 +0.07    -0.270 N  
DOCKED: ATOM      5  H   UNL     1     139.702  74.143 219.250 +0.05 -0.08    +0.356 HD 
DOCKED: ATOM      6  C   UNL     1     139.123  76.108 219.179 -0.01 -0.07    +0.277 C  
DOCKED: ATOM      7  C   UNL     1     139.970  77.373 218.939 -0.05 -0.05    +0.139 C  
DOCKED: ENDROOT
DOCKED: BRANCH   1   8
DOCKED: ATOM      8  N   UNL     1     141.511  79.005 220.011 -0.18 +0.09    -0.162 N  
DOCKED: BRANCH   8   9
DOCKED: ATOM      9  C   UNL     1     142.002  79.397 218.843 -0.15 -0.22    +0.339 C  
DOCKED: BRANCH   9  10
DOCKED: ATOM     10  O   UNL     1     143.039  78.704 218.202 -0.16 +0.46    -0.463 OA 
DOCKED: ATOM     11  H   UNL     1     143.653  79.091 217.497 -0.43 -0.51    +0.299 HD 
DOCKED: ENDBRANCH   9  10
DOCKED: BRANCH   9  12
DOCKED: ATOM     12  C   UNL     1     141.472  80.640 218.145 -0.18 -0.08    +0.150 C  
DOCKED: ATOM     13  C   UNL     1     142.578  81.606 217.718 -0.32 -0.01    +0.019 C  
DOCKED: ENDBRANCH   9  12
DOCKED: ENDBRANCH   8   9
DOCKED: BRANCH   8  14
DOCKED: ATOM     14  C   UNL     1     141.749  79.820 221.179 -0.27 -0.09    +0.208 A  
DOCKED: ATOM     15  C   UNL     1     142.268  79.246 222.349 -0.47 -0.04    +0.079 A  
DOCKED: ATOM     16  C   UNL     1     141.478  81.198 221.147 -0.34 -0.02    +0.079 A  
DOCKED: ATOM     17  C   UNL     1     142.499  80.038 223.479 -0.66 -0.00    +0.007 A  
DOCKED: ATOM     18  C   UNL     1     141.708  81.987 222.278 -0.39 -0.00    +0.007 A  
DOCKED: ATOM     19  C   UNL     1     142.215  81.406 223.445 -0.57 -0.00    +0.000 A  
DOCKED: ENDBRANCH   8  14
DOCKED: ENDBRANCH   1   8
DOCKED: BRANCH   4  20
DOCKED: ATOM     20  C   UNL     1     139.358  74.705 221.172 -0.13 -0.07    +0.329 C  
DOCKED: ATOM     21  O   UNL     1     140.132  74.471 222.092 -0.82 +0.01    -0.229 OA 
DOCKED: BRANCH  20  22
DOCKED: ATOM     22  C   UNL     1     137.867  74.666 221.448 -0.12 -0.05    +0.186 C  
DOCKED: BRANCH  22  23
DOCKED: ATOM     23  N   UNL     1     137.576  73.508 222.299 -0.04 +0.11    -0.316 NA 
DOCKED: ATOM     24  H   UNL     1     138.462  73.148 222.725 -0.46 -0.05    +0.119 HD 
DOCKED: ATOM     25  H   UNL     1     136.948  73.802 223.082 -0.45 -0.06    +0.119 HD 
DOCKED: ENDBRANCH  22  23
DOCKED: BRANCH  22  26
DOCKED: ATOM     26  C   UNL     1     137.398  75.993 222.103 -0.22 -0.01    +0.028 C  
DOCKED: ATOM     27  C   UNL     1     138.469  76.612 223.038 -0.07 -0.01    +0.042 C  
DOCKED: ATOM     28  C   UNL     1     137.043  77.090 221.068 -0.08 -0.01    +0.042 C  
DOCKED: ATOM     29  C   UNL     1     138.386  78.062 222.755 -0.26 +0.01    -0.044 A  
DOCKED: ATOM     30  C   UNL     1     137.590  78.328 221.669 -0.13 +0.01    -0.044 A  
DOCKED: ATOM     31  C   UNL     1     139.040  79.089 223.439 -0.35 -0.00    +0.004 A  
DOCKED: ATOM     32  C   UNL     1     137.405  79.635 221.209 -0.08 -0.00    +0.004 A  
DOCKED: ATOM     33  C   UNL     1     138.864  80.412 222.998 -0.32 -0.00    +0.000 A  
DOCKED: ATOM     34  C   UNL     1     138.046  80.683 221.886 -0.14 -0.00    +0.000 A  
DOCKED: ENDBRANCH  22  26
DOCKED: ENDBRANCH  20  22
DOCKED: ENDBRANCH   4  20
DOCKED: TORSDOF 9
DOCKED: TER
DOCKED: ENDMDL
________________________________________________________________________________


    FINAL DOCKED STATE:
    ________________________


Run:   3 / 20
Time taken for this run:   0.035s

DOCKED: MODEL        3
DOCKED: USER    Run = 3
DOCKED: USER
DOCKED: USER    Estimated Free Energy of Binding    =  -6.54 kcal/mol  [=(1)+(2)+(3)-(4)]
DOCKED: USER
DOCKED: USER    (1) Final Intermolecular Energy     =  -9.23 kcal/mol
DOCKED: USER        vdW + Hbond + desolv Energy     =  -8.25 kcal/mol
DOCKED: USER        Electrostatic Energy            =  -0.97 kcal/mol
DOCKED: USER        Moving Ligand-Fixed Receptor    =  -9.23 kcal/mol
DOCKED: USER        Moving Ligand-Moving Receptor   =  +0.00 kcal/mol
DOCKED: USER    (2) Final Total Internal Energy     =  -3.13 kcal/mol
DOCKED: USER    (3) Torsional Free Energy           =  +2.68 kcal/mol
DOCKED: USER    (4) Unbound System's Energy         =  -3.13 kcal/mol
DOCKED: USER
DOCKED: USER
DOCKED: REMARK SMILES CC/C(O)=[N+](\c1ccccc1)[C@H]1CC[N@H+](C(=O)[C@@H](N)C2Cc3ccccc3C2)CC1
DOCKED: REMARK SMILES IDX 12 1 13 2 14 3 15 4 29 6 30 7 5 8 3 9 4 10 2 12 1 13 6 14
DOCKED: REMARK SMILES IDX 7 15 11 16 8 17 10 18 9 19 16 20 17 21 18 22 19 23 20 26
DOCKED: REMARK SMILES IDX 21 27 28 28 22 29 27 30 23 31 26 32 24 33 25 34
DOCKED: REMARK H PARENT 15 5 4 11 19 24 19 25
DOCKED: USER                              x       y       z     vdW  Elec       q    Type
DOCKED: USER                           _______ _______ _______ _____ _____    ______ ____
DOCKED: ROOT
DOCKED: ATOM      1  C   UNL     1     140.832  77.723 220.174 -0.11 -0.12    +0.281 C  
DOCKED: ATOM      2  C   UNL     1     141.794  76.544 220.511 -0.21 -0.07    +0.139 C  
DOCKED: ATOM      3  C   UNL     1     141.351  75.202 219.889 -0.11 -0.09    +0.277 C  
DOCKED: ATOM      4  N   UNL     1     139.882  75.018 219.854 -0.03 +0.07    -0.270 N  
DOCKED: ATOM      5  H   UNL     1     139.722  74.164 219.269 +0.05 -0.08    +0.356 HD 
DOCKED: ATOM      6  C   UNL     1     139.139  76.127 219.184 -0.01 -0.07    +0.277 C  
DOCKED: ATOM      7  C   UNL     1     139.984  77.392 218.939 -0.05 -0.05    +0.139 C  
DOCKED: ENDROOT
DOCKED: BRANCH   1   8
DOCKED: ATOM      8  N   UNL     1     141.516  79.035 220.006 -0.18 +0.09    -0.162 N  
DOCKED: BRANCH   8   9
DOCKED: ATOM      9  C   UNL     1     142.006  79.423 218.837 -0.15 -0.22    +0.339 C  
DOCKED: BRANCH   9  10
DOCKED: ATOM     10  O   UNL     1     143.046  78.731 218.199 -0.16 +0.46    -0.463 OA 
DOCKED: ATOM     11  H   UNL     1     143.649  79.113 217.482 -0.44 -0.52    +0.299 HD 
DOCKED: ENDBRANCH   9  10
DOCKED: BRANCH   9  12
DOCKED: ATOM     12  C   UNL     1     141.472  80.661 218.132 -0.18 -0.08    +0.150 C  
DOCKED: ATOM     13  C   UNL     1     142.572  81.633 217.708 -0.32 -0.01    +0.019 C  
DOCKED: ENDBRANCH   9  12
DOCKED: ENDBRANCH   8   9
DOCKED: BRANCH   8  14
DOCKED: ATOM     14  C   UNL     1     141.754  79.855 221.171 -0.27 -0.09    +0.208 A  
DOCKED: ATOM     15  C   UNL     1     141.461  81.227 221.143 -0.34 -0.02    +0.079 A  
DOCKED: ATOM     16  C   UNL     1     142.264  79.281 222.347 -0.47 -0.04    +0.079 A  
DOCKED: ATOM     17  C   UNL     1     141.691  82.018 222.273 -0.38 -0.00    +0.007 A  
DOCKED: ATOM     18  C   UNL     1     142.494  80.074 223.475 -0.66 -0.00    +0.007 A  
DOCKED: ATOM     19  C   UNL     1     142.210  81.444 223.437 -0.56 -0.00    +0.000 A  
DOCKED: ENDBRANCH   8  14
DOCKED: ENDBRANCH   1   8
DOCKED: BRANCH   4  20
DOCKED: ATOM     20  C   UNL     1     139.370  74.737 221.187 -0.13 -0.07    +0.329 C  
DOCKED: ATOM     21  O   UNL     1     140.140  74.510 222.110 -0.81 +0.01    -0.229 OA 
DOCKED: BRANCH  20  22
DOCKED: ATOM     22  C   UNL     1     137.878  74.698 221.457 -0.13 -0.05    +0.186 C  
DOCKED: BRANCH  22  23
DOCKED: ATOM     23  N   UNL     1     137.585  73.542 222.312 -0.03 +0.11    -0.316 NA 
DOCKED: ATOM     24  H   UNL     1     138.470  73.185 222.742 -0.47 -0.05    +0.119 HD 
DOCKED: ATOM     25  H   UNL     1     136.954  73.839 223.092 -0.46 -0.06    +0.119 HD 
DOCKED: ENDBRANCH  22  23
DOCKED: BRANCH  22  26
DOCKED: ATOM     26  C   UNL     1     137.405  76.027 222.106 -0.22 -0.01    +0.028 C  
DOCKED: ATOM     27  C   UNL     1     138.469  76.645 223.050 -0.06 -0.01    +0.042 C  
DOCKED: ATOM     28  C   UNL     1     137.063  77.123 221.066 -0.08 -0.01    +0.042 C  
DOCKED: ATOM     29  C   UNL     1     138.391  78.095 222.764 -0.26 +0.01    -0.044 A  
DOCKED: ATOM     30  C   UNL     1     137.606  78.360 221.670 -0.13 +0.01    -0.044 A  
DOCKED: ATOM     31  C   UNL     1     139.041  79.122 223.452 -0.36 -0.00    +0.004 A  
DOCKED: ATOM     32  C   UNL     1     137.428  79.667 221.207 -0.08 -0.00    +0.004 A  
DOCKED: ATOM     33  C   UNL     1     138.871  80.444 223.008 -0.32 -0.00    +0.000 A  
DOCKED: ATOM     34  C   UNL     1     138.065  80.715 221.888 -0.15 -0.00    +0.000 A  
DOCKED: ENDBRANCH  22  26
DOCKED: ENDBRANCH  20  22
DOCKED: ENDBRANCH   4  20
DOCKED: TORSDOF 9
DOCKED: TER
DOCKED: ENDMDL
________________________________________________________________________________


    FINAL DOCKED STATE:
    ________________________


Run:   4 / 20
Time taken for this run:   0.035s

DOCKED: MODEL        4
DOCKED: USER    Run = 4
DOCKED: USER
DOCKED: USER    Estimated Free Energy of Binding    =  -6.53 kcal/mol  [=(1)+(2)+(3)-(4)]
DOCKED: USER
DOCKED: USER    (1) Final Intermolecular Energy     =  -9.21 kcal/mol
DOCKED: USER        vdW + Hbond + desolv Energy     =  -8.24 kcal/mol
DOCKED: USER        Electrostatic Energy            =  -0.98 kcal/mol
DOCKED: USER        Moving Ligand-Fixed Receptor    =  -9.21 kcal/mol
DOCKED: USER        Moving Ligand-Moving Receptor   =  +0.00 kcal/mol
DOCKED: USER    (2) Final Total Internal Energy     =  -3.13 kcal/mol
DOCKED: USER    (3) Torsional Free Energy           =  +2.68 kcal/mol
DOCKED: USER    (4) Unbound System's Energy         =  -3.13 kcal/mol
DOCKED: USER
DOCKED: USER
DOCKED: REMARK SMILES CC/C(O)=[N+](\c1ccccc1)[C@H]1CC[N@H+](C(=O)[C@@H](N)C2Cc3ccccc3C2)CC1
DOCKED: REMARK SMILES IDX 12 1 13 2 14 3 15 4 29 6 30 7 5 8 3 9 4 10 2 12 1 13 6 14
DOCKED: REMARK SMILES IDX 7 15 11 16 8 17 10 18 9 19 16 20 17 21 18 22 19 23 20 26
DOCKED: REMARK SMILES IDX 21 27 28 28 22 29 27 30 23 31 26 32 24 33 25 34
DOCKED: REMARK H PARENT 15 5 4 11 19 24 19 25
DOCKED: USER                              x       y       z     vdW  Elec       q    Type
DOCKED: USER                           _______ _______ _______ _____ _____    ______ ____
DOCKED: ROOT
DOCKED: ATOM      1  C   UNL     1     140.853  77.707 220.173 -0.12 -0.12    +0.281 C  
DOCKED: ATOM      2  C   UNL     1     141.813  76.520 220.487 -0.22 -0.07    +0.139 C  
DOCKED: ATOM      3  C   UNL     1     141.358  75.186 219.856 -0.11 -0.09    +0.277 C  
DOCKED: ATOM      4  N   UNL     1     139.888  75.008 219.834 -0.03 +0.07    -0.270 N  
DOCKED: ATOM      5  H   UNL     1     139.718  74.161 219.242 +0.05 -0.08    +0.356 HD 
DOCKED: ATOM      6  C   UNL     1     139.142  76.128 219.184 -0.01 -0.07    +0.277 C  
DOCKED: ATOM      7  C   UNL     1     139.990  77.392 218.943 -0.05 -0.05    +0.139 C  
DOCKED: ENDROOT
DOCKED: BRANCH   1   8
DOCKED: ATOM      8  N   UNL     1     141.540  79.017 220.011 -0.19 +0.09    -0.162 N  
DOCKED: BRANCH   8   9
DOCKED: ATOM      9  C   UNL     1     142.018  79.416 218.841 -0.15 -0.23    +0.339 C  
DOCKED: BRANCH   9  10
DOCKED: ATOM     10  O   UNL     1     143.050  78.728 218.186 -0.16 +0.46    -0.463 OA 
DOCKED: ATOM     11  H   UNL     1     143.654  79.118 217.473 -0.44 -0.52    +0.299 HD 
DOCKED: ENDBRANCH   9  10
DOCKED: BRANCH   9  12
DOCKED: ATOM     12  C   UNL     1     141.481  80.662 218.156 -0.18 -0.08    +0.150 C  
DOCKED: ATOM     13  C   UNL     1     142.580  81.628 217.714 -0.32 -0.01    +0.019 C  
DOCKED: ENDBRANCH   9  12
DOCKED: ENDBRANCH   8   9
DOCKED: BRANCH   8  14
DOCKED: ATOM     14  C   UNL     1     141.794  79.824 221.183 -0.27 -0.09    +0.208 A  
DOCKED: ATOM     15  C   UNL     1     141.517  81.199 221.170 -0.34 -0.02    +0.079 A  
DOCKED: ATOM     16  C   UNL     1     142.305  79.233 222.351 -0.46 -0.04    +0.079 A  
DOCKED: ATOM     17  C   UNL     1     141.762  81.976 222.306 -0.38 -0.00    +0.007 A  
DOCKED: ATOM     18  C   UNL     1     142.551  80.013 223.484 -0.66 -0.00    +0.007 A  
DOCKED: ATOM     19  C   UNL     1     142.282  81.386 223.460 -0.55 -0.00    +0.000 A  
DOCKED: ENDBRANCH   8  14
DOCKED: ENDBRANCH   1   8
DOCKED: BRANCH   4  20
DOCKED: ATOM     20  C   UNL     1     139.389  74.715 221.169 -0.13 -0.07    +0.329 C  
DOCKED: ATOM     21  O   UNL     1     140.169  74.478 222.083 -0.81 +0.01    -0.229 OA 
DOCKED: BRANCH  20  22
DOCKED: ATOM     22  C   UNL     1     137.900  74.675 221.454 -0.13 -0.05    +0.186 C  
DOCKED: BRANCH  22  23
DOCKED: ATOM     23  N   UNL     1     137.614  73.514 222.304 -0.03 +0.11    -0.316 NA 
DOCKED: ATOM     24  H   UNL     1     138.502  73.160 222.732 -0.46 -0.05    +0.119 HD 
DOCKED: ATOM     25  H   UNL     1     136.982  73.804 223.086 -0.46 -0.06    +0.119 HD 
DOCKED: ENDBRANCH  22  23
DOCKED: BRANCH  22  26
DOCKED: ATOM     26  C   UNL     1     137.435  76.000 222.117 -0.23 -0.01    +0.028 C  
DOCKED: ATOM     27  C   UNL     1     138.515  76.620 223.042 -0.04 -0.01    +0.042 C  
DOCKED: ATOM     28  C   UNL     1     137.067  77.098 221.087 -0.09 -0.01    +0.042 C  
DOCKED: ATOM     29  C   UNL     1     138.425  78.071 222.762 -0.26 +0.01    -0.044 A  
DOCKED: ATOM     30  C   UNL     1     137.617  78.336 221.684 -0.13 +0.01    -0.044 A  
DOCKED: ATOM     31  C   UNL     1     139.084  79.098 223.440 -0.36 -0.00    +0.004 A  
DOCKED: ATOM     32  C   UNL     1     137.424  79.643 221.229 -0.08 -0.00    +0.004 A  
DOCKED: ATOM     33  C   UNL     1     138.900  80.421 223.003 -0.32 -0.00    +0.000 A  
DOCKED: ATOM     34  C   UNL     1     138.070  80.692 221.900 -0.15 -0.00    +0.000 A  
DOCKED: ENDBRANCH  22  26
DOCKED: ENDBRANCH  20  22
DOCKED: ENDBRANCH   4  20
DOCKED: TORSDOF 9
DOCKED: TER
DOCKED: ENDMDL
________________________________________________________________________________


    FINAL DOCKED STATE:
    ________________________


Run:   5 / 20
Time taken for this run:   0.035s

DOCKED: MODEL        5
DOCKED: USER    Run = 5
DOCKED: USER
DOCKED: USER    Estimated Free Energy of Binding    =  -6.23 kcal/mol  [=(1)+(2)+(3)-(4)]
DOCKED: USER
DOCKED: USER    (1) Final Intermolecular Energy     =  -8.92 kcal/mol
DOCKED: USER        vdW + Hbond + desolv Energy     =  -7.98 kcal/mol
DOCKED: USER        Electrostatic Energy            =  -0.94 kcal/mol
DOCKED: USER        Moving Ligand-Fixed Receptor    =  -8.92 kcal/mol
DOCKED: USER        Moving Ligand-Moving Receptor   =  +0.00 kcal/mol
DOCKED: USER    (2) Final Total Internal Energy     =  -3.33 kcal/mol
DOCKED: USER    (3) Torsional Free Energy           =  +2.68 kcal/mol
DOCKED: USER    (4) Unbound System's Energy         =  -3.33 kcal/mol
DOCKED: USER
DOCKED: USER
DOCKED: REMARK SMILES CC/C(O)=[N+](\c1ccccc1)[C@H]1CC[N@H+](C(=O)[C@@H](N)C2Cc3ccccc3C2)CC1
DOCKED: REMARK SMILES IDX 12 1 13 2 14 3 15 4 29 6 30 7 5 8 3 9 4 10 2 12 1 13 6 14
DOCKED: REMARK SMILES IDX 7 15 11 16 8 17 10 18 9 19 16 20 17 21 18 22 19 23 20 26
DOCKED: REMARK SMILES IDX 21 27 28 28 22 29 27 30 23 31 26 32 24 33 25 34
DOCKED: REMARK H PARENT 15 5 4 11 19 24 19 25
DOCKED: USER                              x       y       z     vdW  Elec       q    Type
DOCKED: USER                           _______ _______ _______ _____ _____    ______ ____
DOCKED: ROOT
DOCKED: ATOM      1  C   UNL     1     140.783  77.731 220.231 -0.11 -0.11    +0.281 C  
DOCKED: ATOM      2  C   UNL     1     141.770  76.567 220.542 -0.20 -0.07    +0.139 C  
DOCKED: ATOM      3  C   UNL     1     141.352  75.226 219.900 -0.11 -0.09    +0.277 C  
DOCKED: ATOM      4  N   UNL     1     139.887  75.012 219.870 -0.03 +0.07    -0.270 N  
DOCKED: ATOM      5  H   UNL     1     139.740  74.165 219.272 +0.05 -0.08    +0.356 HD 
DOCKED: ATOM      6  C   UNL     1     139.116  76.117 219.224 -0.01 -0.07    +0.277 C  
DOCKED: ATOM      7  C   UNL     1     139.934  77.403 218.995 -0.05 -0.05    +0.139 C  
DOCKED: ENDROOT
DOCKED: BRANCH   1   8
DOCKED: ATOM      8  N   UNL     1     141.439  79.059 220.081 -0.18 +0.08    -0.162 N  
DOCKED: BRANCH   8   9
DOCKED: ATOM      9  C   UNL     1     141.846  79.508 218.902 -0.16 -0.21    +0.339 C  
DOCKED: BRANCH   9  10
DOCKED: ATOM     10  O   UNL     1     142.935  78.939 218.225 -0.19 +0.46    -0.463 OA 
DOCKED: ATOM     11  H   UNL     1     143.446  79.374 217.467 -0.44 -0.51    +0.299 HD 
DOCKED: ENDBRANCH   9  10
DOCKED: BRANCH   9  12
DOCKED: ATOM     12  C   UNL     1     141.160  80.687 218.229 -0.15 -0.07    +0.150 C  
DOCKED: ATOM     13  C   UNL     1     139.661  80.757 218.523 -0.06 -0.01    +0.019 C  
DOCKED: ENDBRANCH   9  12
DOCKED: ENDBRANCH   8   9
DOCKED: BRANCH   8  14
DOCKED: ATOM     14  C   UNL     1     141.742  79.828 221.265 -0.27 -0.09    +0.208 A  
DOCKED: ATOM     15  C   UNL     1     142.280  79.200 222.399 -0.46 -0.04    +0.079 A  
DOCKED: ATOM     16  C   UNL     1     141.516  81.214 221.285 -0.35 -0.02    +0.079 A  
DOCKED: ATOM     17  C   UNL     1     142.573  79.947 223.544 -0.64 -0.00    +0.007 A  
DOCKED: ATOM     18  C   UNL     1     141.809  81.958 222.432 -0.38 -0.00    +0.007 A  
DOCKED: ATOM     19  C   UNL     1     142.334  81.324 223.562 -0.58 -0.00    +0.000 A  
DOCKED: ENDBRANCH   8  14
DOCKED: ENDBRANCH   1   8
DOCKED: BRANCH   4  20
DOCKED: ATOM     20  C   UNL     1     139.389  74.698 221.201 -0.13 -0.07    +0.329 C  
DOCKED: ATOM     21  O   UNL     1     140.169  74.446 222.110 -0.82 +0.01    -0.229 OA 
DOCKED: BRANCH  20  22
DOCKED: ATOM     22  C   UNL     1     137.900  74.655 221.487 -0.13 -0.05    +0.186 C  
DOCKED: BRANCH  22  23
DOCKED: ATOM     23  N   UNL     1     137.616  73.489 222.331 -0.03 +0.11    -0.316 NA 
DOCKED: ATOM     24  H   UNL     1     138.501  73.149 222.776 -0.46 -0.06    +0.119 HD 
DOCKED: ATOM     25  H   UNL     1     136.964  73.767 223.100 -0.47 -0.06    +0.119 HD 
DOCKED: ENDBRANCH  22  23
DOCKED: BRANCH  22  26
DOCKED: ATOM     26  C   UNL     1     137.434  75.975 222.158 -0.23 -0.01    +0.028 C  
DOCKED: ATOM     27  C   UNL     1     138.523  76.604 223.066 -0.01 -0.01    +0.042 C  
DOCKED: ATOM     28  C   UNL     1     137.040  77.071 221.135 -0.09 -0.01    +0.042 C  
DOCKED: ATOM     29  C   UNL     1     138.417  78.054 222.788 -0.26 +0.01    -0.044 A  
DOCKED: ATOM     30  C   UNL     1     137.589  78.313 221.724 -0.13 +0.01    -0.044 A  
DOCKED: ATOM     31  C   UNL     1     139.078  79.087 223.457 -0.36 -0.00    +0.004 A  
DOCKED: ATOM     32  C   UNL     1     137.378  79.619 221.273 -0.08 -0.00    +0.004 A  
DOCKED: ATOM     33  C   UNL     1     138.876  80.408 223.024 -0.32 -0.00    +0.000 A  
DOCKED: ATOM     34  C   UNL     1     138.026  80.672 221.935 -0.15 -0.00    +0.000 A  
DOCKED: ENDBRANCH  22  26
DOCKED: ENDBRANCH  20  22
DOCKED: ENDBRANCH   4  20
DOCKED: TORSDOF 9
DOCKED: TER
DOCKED: ENDMDL
________________________________________________________________________________


    FINAL DOCKED STATE:
    ________________________


Run:   6 / 20
Time taken for this run:   0.035s

DOCKED: MODEL        6
DOCKED: USER    Run = 6
DOCKED: USER
DOCKED: USER    Estimated Free Energy of Binding    =  -8.34 kcal/mol  [=(1)+(2)+(3)-(4)]
DOCKED: USER
DOCKED: USER    (1) Final Intermolecular Energy     = -11.02 kcal/mol
DOCKED: USER        vdW + Hbond + desolv Energy     = -10.23 kcal/mol
DOCKED: USER        Electrostatic Energy            =  -0.79 kcal/mol
DOCKED: USER        Moving Ligand-Fixed Receptor    = -11.02 kcal/mol
DOCKED: USER        Moving Ligand-Moving Receptor   =  +0.00 kcal/mol
DOCKED: USER    (2) Final Total Internal Energy     =  -1.37 kcal/mol
DOCKED: USER    (3) Torsional Free Energy           =  +2.68 kcal/mol
DOCKED: USER    (4) Unbound System's Energy         =  -1.37 kcal/mol
DOCKED: USER
DOCKED: USER
DOCKED: REMARK SMILES CC/C(O)=[N+](\c1ccccc1)[C@H]1CC[N@H+](C(=O)[C@@H](N)C2Cc3ccccc3C2)CC1
DOCKED: REMARK SMILES IDX 12 1 13 2 14 3 15 4 29 6 30 7 5 8 3 9 4 10 2 12 1 13 6 14
DOCKED: REMARK SMILES IDX 7 15 11 16 8 17 10 18 9 19 16 20 17 21 18 22 19 23 20 26
DOCKED: REMARK SMILES IDX 21 27 28 28 22 29 27 30 23 31 26 32 24 33 25 34
DOCKED: REMARK H PARENT 15 5 4 11 19 24 19 25
DOCKED: USER                              x       y       z     vdW  Elec       q    Type
DOCKED: USER                           _______ _______ _______ _____ _____    ______ ____
DOCKED: ROOT
DOCKED: ATOM      1  C   UNL     1     140.854  76.345 221.216 -0.20 -0.10    +0.281 C  
DOCKED: ATOM      2  C   UNL     1     140.763  75.323 220.043 -0.13 -0.04    +0.139 C  
DOCKED: ATOM      3  C   UNL     1     139.463  74.489 220.061 -0.04 -0.06    +0.277 C  
DOCKED: ATOM      4  N   UNL     1     138.995  74.148 221.424 -0.12 +0.06    -0.270 N  
DOCKED: ATOM      5  H   UNL     1     138.039  73.738 221.296 +0.07 -0.09    +0.356 HD 
DOCKED: ATOM      6  C   UNL     1     138.825  75.324 222.329 -0.12 -0.07    +0.277 C  
DOCKED: ATOM      7  C   UNL     1     139.461  76.623 221.798 -0.25 -0.03    +0.139 C  
DOCKED: ENDROOT
DOCKED: BRANCH   1   8
DOCKED: ATOM      8  N   UNL     1     141.539  77.618 220.860 -0.22 +0.09    -0.162 N  
DOCKED: BRANCH   8   9
DOCKED: ATOM      9  C   UNL     1     142.096  77.803 219.672 -0.13 -0.22    +0.339 C  
DOCKED: BRANCH   9  10
DOCKED: ATOM     10  O   UNL     1     143.296  77.175 219.306 -0.16 +0.37    -0.463 OA 
DOCKED: ATOM     11  H   UNL     1     144.209  77.394 219.682 -0.41 -0.33    +0.299 HD 
DOCKED: ENDBRANCH   9  10
DOCKED: BRANCH   9  12
DOCKED: ATOM     12  C   UNL     1     141.465  78.731 218.645 -0.17 -0.08    +0.150 C  
DOCKED: ATOM     13  C   UNL     1     142.447  79.755 218.077 -0.32 -0.02    +0.019 C  
DOCKED: ENDBRANCH   9  12
DOCKED: ENDBRANCH   8   9
DOCKED: BRANCH   8  14
DOCKED: ATOM     14  C   UNL     1     141.701  78.632 221.876 -0.30 -0.11    +0.208 A  
DOCKED: ATOM     15  C   UNL     1     141.933  79.968 221.512 -0.38 -0.03    +0.079 A  
DOCKED: ATOM     16  C   UNL     1     141.611  78.292 223.236 -0.46 -0.03    +0.079 A  
DOCKED: ATOM     17  C   UNL     1     142.088  80.948 222.497 -0.54 -0.00    +0.007 A  
DOCKED: ATOM     18  C   UNL     1     141.769  79.274 224.218 -0.54 -0.00    +0.007 A  
DOCKED: ATOM     19  C   UNL     1     142.011  80.601 223.849 -0.62 -0.00    +0.000 A  
DOCKED: ENDBRANCH   8  14
DOCKED: ENDBRANCH   1   8
DOCKED: BRANCH   4  20
DOCKED: ATOM     20  C   UNL     1     139.837  73.117 222.011 -0.16 -0.05    +0.329 C  
DOCKED: ATOM     21  O   UNL     1     140.985  73.375 222.350 -0.62 -0.01    -0.229 OA 
DOCKED: BRANCH  20  22
DOCKED: ATOM     22  C   UNL     1     139.324  71.701 222.197 -0.18 -0.04    +0.186 C  
DOCKED: BRANCH  22  23
DOCKED: ATOM     23  N   UNL     1     140.292  70.770 221.608 -0.06 +0.05    -0.316 NA 
DOCKED: ATOM     24  H   UNL     1     139.986  70.502 220.643 +0.02 -0.02    +0.119 HD 
DOCKED: ATOM     25  H   UNL     1     141.221  71.244 221.522 +0.04 -0.01    +0.119 HD 
DOCKED: ENDBRANCH  22  23
DOCKED: BRANCH  22  26
DOCKED: ATOM     26  C   UNL     1     139.080  71.401 223.700 -0.28 -0.01    +0.028 C  
DOCKED: ATOM     27  C   UNL     1     138.593  69.951 223.952 -0.29 -0.01    +0.042 C  
DOCKED: ATOM     28  C   UNL     1     140.349  71.587 224.570 -0.42 -0.01    +0.042 C  
DOCKED: ATOM     29  C   UNL     1     139.324  69.542 225.171 -0.38 +0.01    -0.044 A  
DOCKED: ATOM     30  C   UNL     1     140.292  70.451 225.518 -0.49 +0.01    -0.044 A  
DOCKED: ATOM     31  C   UNL     1     139.138  68.370 225.908 -0.51 -0.00    +0.004 A  
DOCKED: ATOM     32  C   UNL     1     141.123  70.238 226.621 -0.57 -0.00    +0.004 A  
DOCKED: ATOM     33  C   UNL     1     139.958  68.137 227.024 -0.66 -0.00    +0.000 A  
DOCKED: ATOM     34  C   UNL     1     140.948  69.071 227.380 -0.61 -0.00    +0.000 A  
DOCKED: ENDBRANCH  22  26
DOCKED: ENDBRANCH  20  22
DOCKED: ENDBRANCH   4  20
DOCKED: TORSDOF 9
DOCKED: TER
DOCKED: ENDMDL
________________________________________________________________________________


    FINAL DOCKED STATE:
    ________________________


Run:   7 / 20
Time taken for this run:   0.035s

DOCKED: MODEL        7
DOCKED: USER    Run = 7
DOCKED: USER
DOCKED: USER    Estimated Free Energy of Binding    =  -6.81 kcal/mol  [=(1)+(2)+(3)-(4)]
DOCKED: USER
DOCKED: USER    (1) Final Intermolecular Energy     =  -9.50 kcal/mol
DOCKED: USER        vdW + Hbond + desolv Energy     =  -8.33 kcal/mol
DOCKED: USER        Electrostatic Energy            =  -1.17 kcal/mol
DOCKED: USER        Moving Ligand-Fixed Receptor    =  -9.50 kcal/mol
DOCKED: USER        Moving Ligand-Moving Receptor   =  +0.00 kcal/mol
DOCKED: USER    (2) Final Total Internal Energy     =  -2.36 kcal/mol
DOCKED: USER    (3) Torsional Free Energy           =  +2.68 kcal/mol
DOCKED: USER    (4) Unbound System's Energy         =  -2.36 kcal/mol
DOCKED: USER
DOCKED: USER
DOCKED: REMARK SMILES CC/C(O)=[N+](\c1ccccc1)[C@H]1CC[N@H+](C(=O)[C@@H](N)C2Cc3ccccc3C2)CC1
DOCKED: REMARK SMILES IDX 12 1 13 2 14 3 15 4 29 6 30 7 5 8 3 9 4 10 2 12 1 13 6 14
DOCKED: REMARK SMILES IDX 7 15 11 16 8 17 10 18 9 19 16 20 17 21 18 22 19 23 20 26
DOCKED: REMARK SMILES IDX 21 27 28 28 22 29 27 30 23 31 26 32 24 33 25 34
DOCKED: REMARK H PARENT 15 5 4 11 19 24 19 25
DOCKED: USER                              x       y       z     vdW  Elec       q    Type
DOCKED: USER                           _______ _______ _______ _____ _____    ______ ____
DOCKED: ROOT
DOCKED: ATOM      1  C   UNL     1     141.865  76.344 218.749 -0.11 -0.13    +0.281 C  
DOCKED: ATOM      2  C   UNL     1     142.894  75.622 219.671 -0.29 -0.07    +0.139 C  
DOCKED: ATOM      3  C   UNL     1     142.640  74.104 219.794 -0.14 -0.08    +0.277 C  
DOCKED: ATOM      4  N   UNL     1     141.205  73.739 219.800 -0.05 +0.06    -0.270 N  
DOCKED: ATOM      5  H   UNL     1     141.182  72.695 219.720 +0.08 -0.06    +0.356 HD 
DOCKED: ATOM      6  C   UNL     1     140.432  74.263 218.634 -0.01 -0.07    +0.277 C  
DOCKED: ATOM      7  C   UNL     1     141.177  75.337 217.817 -0.04 -0.04    +0.139 C  
DOCKED: ENDROOT
DOCKED: BRANCH   1   8
DOCKED: ATOM      8  N   UNL     1     142.439  77.475 217.969 -0.20 +0.11    -0.162 N  
DOCKED: BRANCH   8   9
DOCKED: ATOM      9  C   UNL     1     142.325  78.732 218.374 -0.17 -0.26    +0.339 C  
DOCKED: BRANCH   9  10
DOCKED: ATOM     10  O   UNL     1     143.281  79.707 218.052 -0.10 +0.58    -0.463 OA 
DOCKED: ATOM     11  H   UNL     1     143.592  79.936 217.117 -0.47 -0.73    +0.299 HD 
DOCKED: ENDBRANCH   9  10
DOCKED: BRANCH   9  12
DOCKED: ATOM     12  C   UNL     1     141.151  79.178 219.231 -0.16 -0.07    +0.150 C  
DOCKED: ATOM     13  C   UNL     1     141.441  80.444 220.036 -0.29 -0.01    +0.019 C  
DOCKED: ENDBRANCH   9  12
DOCKED: ENDBRANCH   8   9
DOCKED: BRANCH   8  14
DOCKED: ATOM     14  C   UNL     1     143.036  77.205 216.681 -0.18 -0.16    +0.208 A  
DOCKED: ATOM     15  C   UNL     1     144.050  76.243 216.558 -0.18 -0.05    +0.079 A  
DOCKED: ATOM     16  C   UNL     1     142.594  77.893 215.539 -0.14 -0.07    +0.079 A  
DOCKED: ATOM     17  C   UNL     1     144.625  75.984 215.310 -0.20 -0.00    +0.007 A  
DOCKED: ATOM     18  C   UNL     1     143.172  77.633 214.293 -0.14 -0.01    +0.007 A  
DOCKED: ATOM     19  C   UNL     1     144.190  76.680 214.180 -0.15 -0.00    +0.000 A  
DOCKED: ENDBRANCH   8  14
DOCKED: ENDBRANCH   1   8
DOCKED: BRANCH   4  20
DOCKED: ATOM     20  C   UNL     1     140.592  74.093 221.072 -0.15 -0.06    +0.329 C  
DOCKED: ATOM     21  O   UNL     1     141.054  73.664 222.121 -0.63 -0.01    -0.229 OA 
DOCKED: BRANCH  20  22
DOCKED: ATOM     22  C   UNL     1     139.361  74.977 221.126 -0.17 -0.04    +0.186 C  
DOCKED: BRANCH  22  23
DOCKED: ATOM     23  N   UNL     1     138.609  74.662 222.346 -0.15 +0.10    -0.316 NA 
DOCKED: ATOM     24  H   UNL     1     138.938  73.749 222.740 -0.55 -0.05    +0.119 HD 
DOCKED: ATOM     25  H   UNL     1     138.791  75.399 223.065 -0.43 -0.04    +0.119 HD 
DOCKED: ENDBRANCH  22  23
DOCKED: BRANCH  22  26
DOCKED: ATOM     26  C   UNL     1     139.763  76.476 221.070 -0.22 -0.01    +0.028 C  
DOCKED: ATOM     27  C   UNL     1     138.669  77.412 221.646 -0.20 -0.01    +0.042 C  
DOCKED: ATOM     28  C   UNL     1     141.058  76.788 221.862 -0.33 -0.02    +0.042 C  
DOCKED: ATOM     29  C   UNL     1     139.437  78.421 222.409 -0.29 +0.01    -0.044 A  
DOCKED: ATOM     30  C   UNL     1     140.761  78.079 222.522 -0.42 +0.01    -0.044 A  
DOCKED: ATOM     31  C   UNL     1     138.938  79.581 223.005 -0.33 -0.00    +0.004 A  
DOCKED: ATOM     32  C   UNL     1     141.657  78.880 223.237 -0.58 -0.00    +0.004 A  
DOCKED: ATOM     33  C   UNL     1     139.821  80.404 223.724 -0.42 -0.00    +0.000 A  
DOCKED: ATOM     34  C   UNL     1     141.179  80.054 223.837 -0.53 -0.00    +0.000 A  
DOCKED: ENDBRANCH  22  26
DOCKED: ENDBRANCH  20  22
DOCKED: ENDBRANCH   4  20
DOCKED: TORSDOF 9
DOCKED: TER
DOCKED: ENDMDL
________________________________________________________________________________


    FINAL DOCKED STATE:
    ________________________


Run:   8 / 20
Time taken for this run:   0.035s

DOCKED: MODEL        8
DOCKED: USER    Run = 8
DOCKED: USER
DOCKED: USER    Estimated Free Energy of Binding    =  -6.93 kcal/mol  [=(1)+(2)+(3)-(4)]
DOCKED: USER
DOCKED: USER    (1) Final Intermolecular Energy     =  -9.62 kcal/mol
DOCKED: USER        vdW + Hbond + desolv Energy     =  -8.64 kcal/mol
DOCKED: USER        Electrostatic Energy            =  -0.97 kcal/mol
DOCKED: USER        Moving Ligand-Fixed Receptor    =  -9.62 kcal/mol
DOCKED: USER        Moving Ligand-Moving Receptor   =  +0.00 kcal/mol
DOCKED: USER    (2) Final Total Internal Energy     =  -2.56 kcal/mol
DOCKED: USER    (3) Torsional Free Energy           =  +2.68 kcal/mol
DOCKED: USER    (4) Unbound System's Energy         =  -2.56 kcal/mol
DOCKED: USER
DOCKED: USER
DOCKED: REMARK SMILES CC/C(O)=[N+](\c1ccccc1)[C@H]1CC[N@H+](C(=O)[C@@H](N)C2Cc3ccccc3C2)CC1
DOCKED: REMARK SMILES IDX 12 1 13 2 14 3 15 4 29 6 30 7 5 8 3 9 4 10 2 12 1 13 6 14
DOCKED: REMARK SMILES IDX 7 15 11 16 8 17 10 18 9 19 16 20 17 21 18 22 19 23 20 26
DOCKED: REMARK SMILES IDX 21 27 28 28 22 29 27 30 23 31 26 32 24 33 25 34
DOCKED: REMARK H PARENT 15 5 4 11 19 24 19 25
DOCKED: USER                              x       y       z     vdW  Elec       q    Type
DOCKED: USER                           _______ _______ _______ _____ _____    ______ ____
DOCKED: ROOT
DOCKED: ATOM      1  C   UNL     1     141.292  76.664 218.872 -0.07 -0.12    +0.281 C  
DOCKED: ATOM      2  C   UNL     1     142.049  75.477 219.538 -0.19 -0.06    +0.139 C  
DOCKED: ATOM      3  C   UNL     1     141.186  74.204 219.674 -0.06 -0.07    +0.277 C  
DOCKED: ATOM      4  N   UNL     1     139.762  74.479 219.972 -0.03 +0.06    -0.270 N  
DOCKED: ATOM      5  H   UNL     1     139.273  73.558 219.872 +0.06 -0.07    +0.356 HD 
DOCKED: ATOM      6  C   UNL     1     139.100  75.409 219.009 -0.01 -0.07    +0.277 C  
DOCKED: ATOM      7  C   UNL     1     140.079  76.155 218.081 -0.02 -0.04    +0.139 C  
DOCKED: ENDROOT
DOCKED: BRANCH   1   8
DOCKED: ATOM      8  N   UNL     1     142.151  77.530 218.017 -0.17 +0.10    -0.162 N  
DOCKED: BRANCH   8   9
DOCKED: ATOM      9  C   UNL     1     142.987  77.020 217.124 -0.15 -0.24    +0.339 C  
DOCKED: BRANCH   9  10
DOCKED: ATOM     10  O   UNL     1     144.076  76.217 217.497 -0.06 +0.31    -0.463 OA 
DOCKED: ATOM     11  H   UNL     1     145.021  76.315 217.149 -0.41 -0.24    +0.299 HD 
DOCKED: ENDBRANCH   9  10
DOCKED: BRANCH   9  12
DOCKED: ATOM     12  C   UNL     1     142.817  77.299 215.639 -0.14 -0.12    +0.150 C  
DOCKED: ATOM     13  C   UNL     1     143.988  76.795 214.795 -0.17 -0.02    +0.019 C  
DOCKED: ENDBRANCH   9  12
DOCKED: ENDBRANCH   8   9
DOCKED: BRANCH   8  14
DOCKED: ATOM     14  C   UNL     1     142.157  78.956 218.248 -0.22 -0.15    +0.208 A  
DOCKED: ATOM     15  C   UNL     1     142.500  79.839 217.213 -0.15 -0.09    +0.079 A  
DOCKED: ATOM     16  C   UNL     1     141.801  79.470 219.506 -0.26 -0.05    +0.079 A  
DOCKED: ATOM     17  C   UNL     1     142.504  81.219 217.439 -0.31 -0.01    +0.007 A  
DOCKED: ATOM     18  C   UNL     1     141.807  80.850 219.729 -0.30 -0.00    +0.007 A  
DOCKED: ATOM     19  C   UNL     1     142.162  81.724 218.696 -0.22 -0.00    +0.000 A  
DOCKED: ENDBRANCH   8  14
DOCKED: ENDBRANCH   1   8
DOCKED: BRANCH   4  20
DOCKED: ATOM     20  C   UNL     1     139.603  74.910 221.353 -0.16 -0.07    +0.329 C  
DOCKED: ATOM     21  O   UNL     1     140.109  74.267 222.264 -0.84 +0.00    -0.229 OA 
DOCKED: BRANCH  20  22
DOCKED: ATOM     22  C   UNL     1     138.794  76.146 221.696 -0.20 -0.04    +0.186 C  
DOCKED: BRANCH  22  23
DOCKED: ATOM     23  N   UNL     1     138.323  76.030 223.081 -0.10 +0.08    -0.316 NA 
DOCKED: ATOM     24  H   UNL     1     137.506  75.377 223.125 -0.28 -0.05    +0.119 HD 
DOCKED: ATOM     25  H   UNL     1     139.084  75.623 223.672 -0.40 -0.03    +0.119 HD 
DOCKED: ENDBRANCH  22  23
DOCKED: BRANCH  22  26
DOCKED: ATOM     26  C   UNL     1     139.640  77.430 221.483 -0.24 -0.01    +0.028 C  
DOCKED: ATOM     27  C   UNL     1     139.002  78.685 222.134 -0.24 -0.01    +0.042 C  
DOCKED: ATOM     28  C   UNL     1     141.070  77.320 222.071 -0.37 -0.02    +0.042 C  
DOCKED: ATOM     29  C   UNL     1     140.157  79.404 222.715 -0.35 +0.01    -0.044 A  
DOCKED: ATOM     30  C   UNL     1     141.304  78.651 222.673 -0.47 +0.02    -0.044 A  
DOCKED: ATOM     31  C   UNL     1     140.150  80.676 223.291 -0.42 -0.00    +0.004 A  
DOCKED: ATOM     32  C   UNL     1     142.505  79.132 223.204 -0.53 -0.00    +0.004 A  
DOCKED: ATOM     33  C   UNL     1     141.346  81.182 223.825 -0.51 -0.00    +0.000 A  
DOCKED: ATOM     34  C   UNL     1     142.522  80.410 223.780 -0.67 -0.00    +0.000 A  
DOCKED: ENDBRANCH  22  26
DOCKED: ENDBRANCH  20  22
DOCKED: ENDBRANCH   4  20
DOCKED: TORSDOF 9
DOCKED: TER
DOCKED: ENDMDL
________________________________________________________________________________


    FINAL DOCKED STATE:
    ________________________


Run:   9 / 20
Time taken for this run:   0.035s

DOCKED: MODEL        9
DOCKED: USER    Run = 9
DOCKED: USER
DOCKED: USER    Estimated Free Energy of Binding    =  -6.54 kcal/mol  [=(1)+(2)+(3)-(4)]
DOCKED: USER
DOCKED: USER    (1) Final Intermolecular Energy     =  -9.22 kcal/mol
DOCKED: USER        vdW + Hbond + desolv Energy     =  -8.26 kcal/mol
DOCKED: USER        Electrostatic Energy            =  -0.96 kcal/mol
DOCKED: USER        Moving Ligand-Fixed Receptor    =  -9.22 kcal/mol
DOCKED: USER        Moving Ligand-Moving Receptor   =  +0.00 kcal/mol
DOCKED: USER    (2) Final Total Internal Energy     =  -3.13 kcal/mol
DOCKED: USER    (3) Torsional Free Energy           =  +2.68 kcal/mol
DOCKED: USER    (4) Unbound System's Energy         =  -3.13 kcal/mol
DOCKED: USER
DOCKED: USER
DOCKED: REMARK SMILES CC/C(O)=[N+](\c1ccccc1)[C@H]1CC[N@H+](C(=O)[C@@H](N)C2Cc3ccccc3C2)CC1
DOCKED: REMARK SMILES IDX 12 1 13 2 14 3 15 4 29 6 30 7 5 8 3 9 4 10 2 12 1 13 6 14
DOCKED: REMARK SMILES IDX 7 15 11 16 8 17 10 18 9 19 16 20 17 21 18 22 19 23 20 26
DOCKED: REMARK SMILES IDX 21 27 28 28 22 29 27 30 23 31 26 32 24 33 25 34
DOCKED: REMARK H PARENT 15 5 4 11 19 24 19 25
DOCKED: USER                              x       y       z     vdW  Elec       q    Type
DOCKED: USER                           _______ _______ _______ _____ _____    ______ ____
DOCKED: ROOT
DOCKED: ATOM      1  C   UNL     1     140.816  77.744 220.179 -0.11 -0.12    +0.281 C  
DOCKED: ATOM      2  C   UNL     1     141.772  76.549 220.471 -0.22 -0.07    +0.139 C  
DOCKED: ATOM      3  C   UNL     1     141.302  75.223 219.832 -0.10 -0.09    +0.277 C  
DOCKED: ATOM      4  N   UNL     1     139.831  75.055 219.825 -0.03 +0.07    -0.270 N  
DOCKED: ATOM      5  H   UNL     1     139.648  74.215 219.227 +0.05 -0.08    +0.356 HD 
DOCKED: ATOM      6  C   UNL     1     139.085  76.186 219.194 -0.01 -0.07    +0.277 C  
DOCKED: ATOM      7  C   UNL     1     139.938  77.446 218.956 -0.05 -0.05    +0.139 C  
DOCKED: ENDROOT
DOCKED: BRANCH   1   8
DOCKED: ATOM      8  N   UNL     1     141.511  79.052 220.022 -0.18 +0.08    -0.162 N  
DOCKED: BRANCH   8   9
DOCKED: ATOM      9  C   UNL     1     142.004  79.446 218.857 -0.15 -0.22    +0.339 C  
DOCKED: BRANCH   9  10
DOCKED: ATOM     10  O   UNL     1     143.045  78.756 218.218 -0.16 +0.46    -0.463 OA 
DOCKED: ATOM     11  H   UNL     1     143.642  79.136 217.495 -0.43 -0.52    +0.299 HD 
DOCKED: ENDBRANCH   9  10
DOCKED: BRANCH   9  12
DOCKED: ATOM     12  C   UNL     1     141.474  80.688 218.158 -0.18 -0.08    +0.150 C  
DOCKED: ATOM     13  C   UNL     1     142.579  81.655 217.731 -0.32 -0.01    +0.019 C  
DOCKED: ENDBRANCH   9  12
DOCKED: ENDBRANCH   8   9
DOCKED: BRANCH   8  14
DOCKED: ATOM     14  C   UNL     1     141.753  79.860 221.194 -0.27 -0.09    +0.208 A  
DOCKED: ATOM     15  C   UNL     1     141.460  81.232 221.181 -0.34 -0.02    +0.079 A  
DOCKED: ATOM     16  C   UNL     1     142.268  79.274 222.363 -0.47 -0.04    +0.079 A  
DOCKED: ATOM     17  C   UNL     1     141.695  82.012 222.318 -0.39 -0.00    +0.007 A  
DOCKED: ATOM     18  C   UNL     1     142.503  80.057 223.497 -0.66 -0.00    +0.007 A  
DOCKED: ATOM     19  C   UNL     1     142.220  81.426 223.473 -0.57 -0.00    +0.000 A  
DOCKED: ENDBRANCH   8  14
DOCKED: ENDBRANCH   1   8
DOCKED: BRANCH   4  20
DOCKED: ATOM     20  C   UNL     1     139.344  74.752 221.163 -0.13 -0.07    +0.329 C  
DOCKED: ATOM     21  O   UNL     1     140.132  74.511 222.068 -0.81 +0.01    -0.229 OA 
DOCKED: BRANCH  20  22
DOCKED: ATOM     22  C   UNL     1     137.857  74.708 221.461 -0.13 -0.05    +0.186 C  
DOCKED: BRANCH  22  23
DOCKED: ATOM     23  N   UNL     1     137.582  73.541 222.306 -0.03 +0.11    -0.316 NA 
DOCKED: ATOM     24  H   UNL     1     138.473  73.192 222.731 -0.47 -0.05    +0.119 HD 
DOCKED: ATOM     25  H   UNL     1     136.949  73.822 223.089 -0.46 -0.06    +0.119 HD 
DOCKED: ENDBRANCH  22  23
DOCKED: BRANCH  22  26
DOCKED: ATOM     26  C   UNL     1     137.396  76.028 222.136 -0.23 -0.01    +0.028 C  
DOCKED: ATOM     27  C   UNL     1     138.488  76.652 223.043 -0.05 -0.01    +0.042 C  
DOCKED: ATOM     28  C   UNL     1     137.002  77.126 221.117 -0.08 -0.01    +0.042 C  
DOCKED: ATOM     29  C   UNL     1     138.384  78.102 222.770 -0.26 +0.01    -0.044 A  
DOCKED: ATOM     30  C   UNL     1     137.555  78.366 221.708 -0.13 +0.01    -0.044 A  
DOCKED: ATOM     31  C   UNL     1     139.048  79.132 223.439 -0.36 -0.00    +0.004 A  
DOCKED: ATOM     32  C   UNL     1     137.345  79.673 221.261 -0.08 -0.00    +0.004 A  
DOCKED: ATOM     33  C   UNL     1     138.848  80.455 223.010 -0.32 -0.00    +0.000 A  
DOCKED: ATOM     34  C   UNL     1     137.996  80.724 221.924 -0.15 -0.00    +0.000 A  
DOCKED: ENDBRANCH  22  26
DOCKED: ENDBRANCH  20  22
DOCKED: ENDBRANCH   4  20
DOCKED: TORSDOF 9
DOCKED: TER
DOCKED: ENDMDL
________________________________________________________________________________


    FINAL DOCKED STATE:
    ________________________


Run:   10 / 20
Time taken for this run:   0.035s

DOCKED: MODEL        10
DOCKED: USER    Run = 10
DOCKED: USER
DOCKED: USER    Estimated Free Energy of Binding    =  -6.71 kcal/mol  [=(1)+(2)+(3)-(4)]
DOCKED: USER
DOCKED: USER    (1) Final Intermolecular Energy     =  -9.40 kcal/mol
DOCKED: USER        vdW + Hbond + desolv Energy     =  -8.15 kcal/mol
DOCKED: USER        Electrostatic Energy            =  -1.25 kcal/mol
DOCKED: USER        Moving Ligand-Fixed Receptor    =  -9.40 kcal/mol
DOCKED: USER        Moving Ligand-Moving Receptor   =  +0.00 kcal/mol
DOCKED: USER    (2) Final Total Internal Energy     =  -2.58 kcal/mol
DOCKED: USER    (3) Torsional Free Energy           =  +2.68 kcal/mol
DOCKED: USER    (4) Unbound System's Energy         =  -2.58 kcal/mol
DOCKED: USER
DOCKED: USER
DOCKED: REMARK SMILES CC/C(O)=[N+](\c1ccccc1)[C@H]1CC[N@H+](C(=O)[C@@H](N)C2Cc3ccccc3C2)CC1
DOCKED: REMARK SMILES IDX 12 1 13 2 14 3 15 4 29 6 30 7 5 8 3 9 4 10 2 12 1 13 6 14
DOCKED: REMARK SMILES IDX 7 15 11 16 8 17 10 18 9 19 16 20 17 21 18 22 19 23 20 26
DOCKED: REMARK SMILES IDX 21 27 28 28 22 29 27 30 23 31 26 32 24 33 25 34
DOCKED: REMARK H PARENT 15 5 4 11 19 24 19 25
DOCKED: USER                              x       y       z     vdW  Elec       q    Type
DOCKED: USER                           _______ _______ _______ _____ _____    ______ ____
DOCKED: ROOT
DOCKED: ATOM      1  C   UNL     1     140.958  77.458 219.169 -0.08 -0.12    +0.281 C  
DOCKED: ATOM      2  C   UNL     1     142.145  76.640 219.761 -0.25 -0.08    +0.139 C  
DOCKED: ATOM      3  C   UNL     1     141.942  75.112 219.658 -0.13 -0.10    +0.277 C  
DOCKED: ATOM      4  N   UNL     1     140.537  74.684 219.844 -0.04 +0.07    -0.270 N  
DOCKED: ATOM      5  H   UNL     1     140.518  73.669 219.588 +0.07 -0.08    +0.356 HD 
DOCKED: ATOM      6  C   UNL     1     139.562  75.362 218.938 -0.01 -0.07    +0.277 C  
DOCKED: ATOM      7  C   UNL     1     140.133  76.592 218.207 -0.03 -0.04    +0.139 C  
DOCKED: ENDROOT
DOCKED: BRANCH   1   8
DOCKED: ATOM      8  N   UNL     1     141.366  78.731 218.513 -0.12 +0.09    -0.162 N  
DOCKED: BRANCH   8   9
DOCKED: ATOM      9  C   UNL     1     142.204  78.751 217.487 -0.16 -0.28    +0.339 C  
DOCKED: BRANCH   9  10
DOCKED: ATOM     10  O   UNL     1     142.416  79.907 216.721 -0.05 +0.57    -0.463 OA 
DOCKED: ATOM     11  H   UNL     1     143.301  80.190 216.320 -0.44 -0.79    +0.299 HD 
DOCKED: ENDBRANCH   9  10
DOCKED: BRANCH   9  12
DOCKED: ATOM     12  C   UNL     1     142.969  77.503 217.072 -0.21 -0.12    +0.150 C  
DOCKED: ATOM     13  C   UNL     1     142.949  77.260 215.563 -0.17 -0.02    +0.019 C  
DOCKED: ENDBRANCH   9  12
DOCKED: ENDBRANCH   8   9
DOCKED: BRANCH   8  14
DOCKED: ATOM     14  C   UNL     1     140.926  79.984 219.083 -0.12 -0.09    +0.208 A  
DOCKED: ATOM     15  C   UNL     1     139.561  80.221 219.303 -0.06 -0.02    +0.079 A  
DOCKED: ATOM     16  C   UNL     1     141.865  80.967 219.436 -0.25 -0.04    +0.079 A  
DOCKED: ATOM     17  C   UNL     1     139.139  81.434 219.856 -0.08 -0.00    +0.007 A  
DOCKED: ATOM     18  C   UNL     1     141.440  82.180 219.986 -0.27 -0.00    +0.007 A  
DOCKED: ATOM     19  C   UNL     1     140.076  82.414 220.193 -0.18 -0.00    +0.000 A  
DOCKED: ENDBRANCH   8  14
DOCKED: ENDBRANCH   1   8
DOCKED: BRANCH   4  20
DOCKED: ATOM     20  C   UNL     1     140.152  74.788 221.244 -0.17 -0.06    +0.329 C  
DOCKED: ATOM     21  O   UNL     1     140.722  74.114 222.093 -0.77 -0.01    -0.229 OA 
DOCKED: BRANCH  20  22
DOCKED: ATOM     22  C   UNL     1     139.030  75.710 221.679 -0.21 -0.04    +0.186 C  
DOCKED: BRANCH  22  23
DOCKED: ATOM     23  N   UNL     1     137.934  74.897 222.217 -0.10 +0.10    -0.316 NA 
DOCKED: ATOM     24  H   UNL     1     138.314  74.002 222.607 -0.48 -0.06    +0.119 HD 
DOCKED: ATOM     25  H   UNL     1     137.473  75.412 223.002 -0.21 -0.04    +0.119 HD 
DOCKED: ENDBRANCH  22  23
DOCKED: BRANCH  22  26
DOCKED: ATOM     26  C   UNL     1     139.543  76.742 222.720 -0.17 -0.01    +0.028 C  
DOCKED: ATOM     27  C   UNL     1     141.068  77.000 222.607 -0.31 -0.02    +0.042 C  
DOCKED: ATOM     28  C   UNL     1     138.860  78.127 222.590 -0.28 -0.01    +0.042 C  
DOCKED: ATOM     29  C   UNL     1     141.192  78.461 222.806 -0.48 +0.02    -0.044 A  
DOCKED: ATOM     30  C   UNL     1     139.969  79.085 222.804 -0.35 +0.01    -0.044 A  
DOCKED: ATOM     31  C   UNL     1     142.374  79.192 222.944 -0.57 -0.00    +0.004 A  
DOCKED: ATOM     32  C   UNL     1     139.863  80.471 222.942 -0.37 -0.00    +0.004 A  
DOCKED: ATOM     33  C   UNL     1     142.292  80.587 223.090 -0.63 -0.00    +0.000 A  
DOCKED: ATOM     34  C   UNL     1     141.037  81.224 223.090 -0.48 -0.00    +0.000 A  
DOCKED: ENDBRANCH  22  26
DOCKED: ENDBRANCH  20  22
DOCKED: ENDBRANCH   4  20
DOCKED: TORSDOF 9
DOCKED: TER
DOCKED: ENDMDL
________________________________________________________________________________


    FINAL DOCKED STATE:
    ________________________


Run:   11 / 20
Time taken for this run:   0.035s

DOCKED: MODEL        11
DOCKED: USER    Run = 11
DOCKED: USER
DOCKED: USER    Estimated Free Energy of Binding    =  -8.56 kcal/mol  [=(1)+(2)+(3)-(4)]
DOCKED: USER
DOCKED: USER    (1) Final Intermolecular Energy     = -11.25 kcal/mol
DOCKED: USER        vdW + Hbond + desolv Energy     = -10.47 kcal/mol
DOCKED: USER        Electrostatic Energy            =  -0.78 kcal/mol
DOCKED: USER        Moving Ligand-Fixed Receptor    = -11.25 kcal/mol
DOCKED: USER        Moving Ligand-Moving Receptor   =  +0.00 kcal/mol
DOCKED: USER    (2) Final Total Internal Energy     =  -1.37 kcal/mol
DOCKED: USER    (3) Torsional Free Energy           =  +2.68 kcal/mol
DOCKED: USER    (4) Unbound System's Energy         =  -1.37 kcal/mol
DOCKED: USER
DOCKED: USER
DOCKED: REMARK SMILES CC/C(O)=[N+](\c1ccccc1)[C@H]1CC[N@H+](C(=O)[C@@H](N)C2Cc3ccccc3C2)CC1
DOCKED: REMARK SMILES IDX 12 1 13 2 14 3 15 4 29 6 30 7 5 8 3 9 4 10 2 12 1 13 6 14
DOCKED: REMARK SMILES IDX 7 15 11 16 8 17 10 18 9 19 16 20 17 21 18 22 19 23 20 26
DOCKED: REMARK SMILES IDX 21 27 28 28 22 29 27 30 23 31 26 32 24 33 25 34
DOCKED: REMARK H PARENT 15 5 4 11 19 24 19 25
DOCKED: USER                              x       y       z     vdW  Elec       q    Type
DOCKED: USER                           _______ _______ _______ _____ _____    ______ ____
DOCKED: ROOT
DOCKED: ATOM      1  C   UNL     1     140.871  75.946 221.224 -0.21 -0.09    +0.281 C  
DOCKED: ATOM      2  C   UNL     1     141.337  74.703 220.408 -0.19 -0.04    +0.139 C  
DOCKED: ATOM      3  C   UNL     1     140.199  73.696 220.130 -0.06 -0.06    +0.277 C  
DOCKED: ATOM      4  N   UNL     1     139.229  73.573 221.241 -0.10 +0.05    -0.270 N  
DOCKED: ATOM      5  H   UNL     1     138.439  73.000 220.861 +0.07 -0.07    +0.356 HD 
DOCKED: ATOM      6  C   UNL     1     138.629  74.869 221.681 -0.15 -0.07    +0.277 C  
DOCKED: ATOM      7  C   UNL     1     139.349  76.115 221.129 -0.18 -0.03    +0.139 C  
DOCKED: ENDROOT
DOCKED: BRANCH   1   8
DOCKED: ATOM      8  N   UNL     1     141.565  77.210 220.854 -0.21 +0.09    -0.162 N  
DOCKED: BRANCH   8   9
DOCKED: ATOM      9  C   UNL     1     142.203  77.345 219.700 -0.17 -0.22    +0.339 C  
DOCKED: BRANCH   9  10
DOCKED: ATOM     10  O   UNL     1     143.461  76.768 219.474 -0.21 +0.35    -0.463 OA 
DOCKED: ATOM     11  H   UNL     1     144.350  77.184 219.723 -0.42 -0.30    +0.299 HD 
DOCKED: ENDBRANCH   9  10
DOCKED: BRANCH   9  12
DOCKED: ATOM     12  C   UNL     1     141.605  78.156 218.561 -0.17 -0.08    +0.150 C  
DOCKED: ATOM     13  C   UNL     1     142.565  79.208 218.005 -0.32 -0.02    +0.019 C  
DOCKED: ENDBRANCH   9  12
DOCKED: ENDBRANCH   8   9
DOCKED: BRANCH   8  14
DOCKED: ATOM     14  C   UNL     1     141.642  78.276 221.825 -0.24 -0.11    +0.208 A  
DOCKED: ATOM     15  C   UNL     1     141.891  79.594 221.412 -0.35 -0.04    +0.079 A  
DOCKED: ATOM     16  C   UNL     1     141.450  78.005 223.190 -0.42 -0.03    +0.079 A  
DOCKED: ATOM     17  C   UNL     1     141.964  80.624 222.355 -0.52 -0.00    +0.007 A  
DOCKED: ATOM     18  C   UNL     1     141.525  79.036 224.130 -0.57 -0.00    +0.007 A  
DOCKED: ATOM     19  C   UNL     1     141.785  80.346 223.713 -0.60 -0.00    +0.000 A  
DOCKED: ENDBRANCH   8  14
DOCKED: ENDBRANCH   1   8
DOCKED: BRANCH   4  20
DOCKED: ATOM     20  C   UNL     1     139.811  72.832 222.350 -0.15 -0.05    +0.329 C  
DOCKED: ATOM     21  O   UNL     1     140.971  73.033 222.687 -0.49 -0.02    -0.229 OA 
DOCKED: BRANCH  20  22
DOCKED: ATOM     22  C   UNL     1     139.008  71.784 223.096 -0.17 -0.05    +0.186 C  
DOCKED: BRANCH  22  23
DOCKED: ATOM     23  N   UNL     1     138.176  71.056 222.132 -0.05 +0.06    -0.316 NA 
DOCKED: ATOM     24  H   UNL     1     137.306  71.602 221.930 +0.02 -0.03    +0.119 HD 
DOCKED: ATOM     25  H   UNL     1     138.698  70.952 221.232 +0.03 -0.02    +0.119 HD 
DOCKED: ENDBRANCH  22  23
DOCKED: BRANCH  22  26
DOCKED: ATOM     26  C   UNL     1     139.949  70.829 223.879 -0.37 -0.00    +0.028 C  
DOCKED: ATOM     27  C   UNL     1     140.544  71.483 225.153 -0.50 -0.01    +0.042 C  
DOCKED: ATOM     28  C   UNL     1     139.244  69.532 224.349 -0.33 -0.01    +0.042 C  
DOCKED: ATOM     29  C   UNL     1     140.496  70.398 226.159 -0.53 +0.01    -0.044 A  
DOCKED: ATOM     30  C   UNL     1     139.783  69.315 225.711 -0.43 +0.01    -0.044 A  
DOCKED: ATOM     31  C   UNL     1     141.048  70.419 227.441 -0.61 -0.00    +0.004 A  
DOCKED: ATOM     32  C   UNL     1     139.586  68.193 226.521 -0.61 -0.00    +0.004 A  
DOCKED: ATOM     33  C   UNL     1     140.868  69.300 228.271 -0.62 -0.00    +0.000 A  
DOCKED: ATOM     34  C   UNL     1     140.139  68.188 227.810 -0.64 -0.00    +0.000 A  
DOCKED: ENDBRANCH  22  26
DOCKED: ENDBRANCH  20  22
DOCKED: ENDBRANCH   4  20
DOCKED: TORSDOF 9
DOCKED: TER
DOCKED: ENDMDL
________________________________________________________________________________


    FINAL DOCKED STATE:
    ________________________


Run:   12 / 20
Time taken for this run:   0.035s

DOCKED: MODEL        12
DOCKED: USER    Run = 12
DOCKED: USER
DOCKED: USER    Estimated Free Energy of Binding    =  -6.53 kcal/mol  [=(1)+(2)+(3)-(4)]
DOCKED: USER
DOCKED: USER    (1) Final Intermolecular Energy     =  -9.21 kcal/mol
DOCKED: USER        vdW + Hbond + desolv Energy     =  -8.23 kcal/mol
DOCKED: USER        Electrostatic Energy            =  -0.98 kcal/mol
DOCKED: USER        Moving Ligand-Fixed Receptor    =  -9.21 kcal/mol
DOCKED: USER        Moving Ligand-Moving Receptor   =  +0.00 kcal/mol
DOCKED: USER    (2) Final Total Internal Energy     =  -3.14 kcal/mol
DOCKED: USER    (3) Torsional Free Energy           =  +2.68 kcal/mol
DOCKED: USER    (4) Unbound System's Energy         =  -3.14 kcal/mol
DOCKED: USER
DOCKED: USER
DOCKED: REMARK SMILES CC/C(O)=[N+](\c1ccccc1)[C@H]1CC[N@H+](C(=O)[C@@H](N)C2Cc3ccccc3C2)CC1
DOCKED: REMARK SMILES IDX 12 1 13 2 14 3 15 4 29 6 30 7 5 8 3 9 4 10 2 12 1 13 6 14
DOCKED: REMARK SMILES IDX 7 15 11 16 8 17 10 18 9 19 16 20 17 21 18 22 19 23 20 26
DOCKED: REMARK SMILES IDX 21 27 28 28 22 29 27 30 23 31 26 32 24 33 25 34
DOCKED: REMARK H PARENT 15 5 4 11 19 24 19 25
DOCKED: USER                              x       y       z     vdW  Elec       q    Type
DOCKED: USER                           _______ _______ _______ _____ _____    ______ ____
DOCKED: ROOT
DOCKED: ATOM      1  C   UNL     1     140.875  77.640 220.166 -0.12 -0.12    +0.281 C  
DOCKED: ATOM      2  C   UNL     1     141.832  76.455 220.491 -0.21 -0.07    +0.139 C  
DOCKED: ATOM      3  C   UNL     1     141.378  75.117 219.866 -0.11 -0.09    +0.277 C  
DOCKED: ATOM      4  N   UNL     1     139.908  74.941 219.839 -0.03 +0.07    -0.270 N  
DOCKED: ATOM      5  H   UNL     1     139.739  74.091 219.252 +0.05 -0.08    +0.356 HD 
DOCKED: ATOM      6  C   UNL     1     139.167  76.058 219.179 -0.01 -0.07    +0.277 C  
DOCKED: ATOM      7  C   UNL     1     140.017  77.319 218.934 -0.05 -0.05    +0.139 C  
DOCKED: ENDROOT
DOCKED: BRANCH   1   8
DOCKED: ATOM      8  N   UNL     1     141.565  78.949 219.999 -0.19 +0.09    -0.162 N  
DOCKED: BRANCH   8   9
DOCKED: ATOM      9  C   UNL     1     142.039  79.345 218.826 -0.15 -0.23    +0.339 C  
DOCKED: BRANCH   9  10
DOCKED: ATOM     10  O   UNL     1     143.077  78.663 218.175 -0.15 +0.46    -0.463 OA 
DOCKED: ATOM     11  H   UNL     1     143.683  79.057 217.466 -0.45 -0.52    +0.299 HD 
DOCKED: ENDBRANCH   9  10
DOCKED: BRANCH   9  12
DOCKED: ATOM     12  C   UNL     1     141.488  80.581 218.132 -0.18 -0.09    +0.150 C  
DOCKED: ATOM     13  C   UNL     1     142.573  81.586 217.744 -0.32 -0.01    +0.019 C  
DOCKED: ENDBRANCH   9  12
DOCKED: ENDBRANCH   8   9
DOCKED: BRANCH   8  14
DOCKED: ATOM     14  C   UNL     1     141.826  79.757 221.168 -0.27 -0.10    +0.208 A  
DOCKED: ATOM     15  C   UNL     1     141.570  81.136 221.147 -0.33 -0.02    +0.079 A  
DOCKED: ATOM     16  C   UNL     1     142.321  79.163 222.341 -0.44 -0.04    +0.079 A  
DOCKED: ATOM     17  C   UNL     1     141.823  81.915 222.281 -0.39 -0.00    +0.007 A  
DOCKED: ATOM     18  C   UNL     1     142.573  79.945 223.472 -0.65 -0.00    +0.007 A  
DOCKED: ATOM     19  C   UNL     1     142.327  81.321 223.441 -0.56 -0.00    +0.000 A  
DOCKED: ENDBRANCH   8  14
DOCKED: ENDBRANCH   1   8
DOCKED: BRANCH   4  20
DOCKED: ATOM     20  C   UNL     1     139.403  74.657 221.174 -0.13 -0.07    +0.329 C  
DOCKED: ATOM     21  O   UNL     1     140.178  74.420 222.091 -0.82 +0.01    -0.229 OA 
DOCKED: BRANCH  20  22
DOCKED: ATOM     22  C   UNL     1     137.912  74.628 221.454 -0.13 -0.05    +0.186 C  
DOCKED: BRANCH  22  23
DOCKED: ATOM     23  N   UNL     1     137.619  73.477 222.316 -0.03 +0.11    -0.316 NA 
DOCKED: ATOM     24  H   UNL     1     138.506  73.112 222.736 -0.44 -0.05    +0.119 HD 
DOCKED: ATOM     25  H   UNL     1     137.001  73.782 223.103 -0.47 -0.06    +0.119 HD 
DOCKED: ENDBRANCH  22  23
DOCKED: BRANCH  22  26
DOCKED: ATOM     26  C   UNL     1     137.452  75.962 222.101 -0.23 -0.01    +0.028 C  
DOCKED: ATOM     27  C   UNL     1     138.532  76.587 223.021 -0.04 -0.01    +0.042 C  
DOCKED: ATOM     28  C   UNL     1     137.091  77.049 221.058 -0.08 -0.01    +0.042 C  
DOCKED: ATOM     29  C   UNL     1     138.449  78.035 222.725 -0.27 +0.01    -0.044 A  
DOCKED: ATOM     30  C   UNL     1     137.646  78.292 221.642 -0.13 +0.01    -0.044 A  
DOCKED: ATOM     31  C   UNL     1     139.111  79.067 223.393 -0.36 -0.00    +0.004 A  
DOCKED: ATOM     32  C   UNL     1     137.460  79.595 221.172 -0.08 -0.00    +0.004 A  
DOCKED: ATOM     33  C   UNL     1     138.934  80.385 222.942 -0.32 -0.00    +0.000 A  
DOCKED: ATOM     34  C   UNL     1     138.109  80.648 221.833 -0.14 -0.00    +0.000 A  
DOCKED: ENDBRANCH  22  26
DOCKED: ENDBRANCH  20  22
DOCKED: ENDBRANCH   4  20
DOCKED: TORSDOF 9
DOCKED: TER
DOCKED: ENDMDL
________________________________________________________________________________


    FINAL DOCKED STATE:
    ________________________


Run:   13 / 20
Time taken for this run:   0.035s

DOCKED: MODEL        13
DOCKED: USER    Run = 13
DOCKED: USER
DOCKED: USER    Estimated Free Energy of Binding    =  -8.53 kcal/mol  [=(1)+(2)+(3)-(4)]
DOCKED: USER
DOCKED: USER    (1) Final Intermolecular Energy     = -11.22 kcal/mol
DOCKED: USER        vdW + Hbond + desolv Energy     = -10.44 kcal/mol
DOCKED: USER        Electrostatic Energy            =  -0.78 kcal/mol
DOCKED: USER        Moving Ligand-Fixed Receptor    = -11.22 kcal/mol
DOCKED: USER        Moving Ligand-Moving Receptor   =  +0.00 kcal/mol
DOCKED: USER    (2) Final Total Internal Energy     =  -1.46 kcal/mol
DOCKED: USER    (3) Torsional Free Energy           =  +2.68 kcal/mol
DOCKED: USER    (4) Unbound System's Energy         =  -1.46 kcal/mol
DOCKED: USER
DOCKED: USER
DOCKED: REMARK SMILES CC/C(O)=[N+](\c1ccccc1)[C@H]1CC[N@H+](C(=O)[C@@H](N)C2Cc3ccccc3C2)CC1
DOCKED: REMARK SMILES IDX 12 1 13 2 14 3 15 4 29 6 30 7 5 8 3 9 4 10 2 12 1 13 6 14
DOCKED: REMARK SMILES IDX 7 15 11 16 8 17 10 18 9 19 16 20 17 21 18 22 19 23 20 26
DOCKED: REMARK SMILES IDX 21 27 28 28 22 29 27 30 23 31 26 32 24 33 25 34
DOCKED: REMARK H PARENT 15 5 4 11 19 24 19 25
DOCKED: USER                              x       y       z     vdW  Elec       q    Type
DOCKED: USER                           _______ _______ _______ _____ _____    ______ ____
DOCKED: ROOT
DOCKED: ATOM      1  C   UNL     1     140.881  75.992 221.262 -0.21 -0.09    +0.281 C  
DOCKED: ATOM      2  C   UNL     1     141.346  74.758 220.433 -0.20 -0.04    +0.139 C  
DOCKED: ATOM      3  C   UNL     1     140.208  73.755 220.142 -0.06 -0.06    +0.277 C  
DOCKED: ATOM      4  N   UNL     1     139.236  73.621 221.251 -0.10 +0.05    -0.270 N  
DOCKED: ATOM      5  H   UNL     1     138.446  73.053 220.863 +0.07 -0.07    +0.356 HD 
DOCKED: ATOM      6  C   UNL     1     138.637  74.913 221.704 -0.15 -0.07    +0.277 C  
DOCKED: ATOM      7  C   UNL     1     139.358  76.164 221.166 -0.18 -0.03    +0.139 C  
DOCKED: ENDROOT
DOCKED: BRANCH   1   8
DOCKED: ATOM      8  N   UNL     1     141.576  77.259 220.906 -0.21 +0.09    -0.162 N  
DOCKED: BRANCH   8   9
DOCKED: ATOM      9  C   UNL     1     142.179  77.421 219.737 -0.16 -0.22    +0.339 C  
DOCKED: BRANCH   9  10
DOCKED: ATOM     10  O   UNL     1     143.423  76.838 219.454 -0.19 +0.36    -0.463 OA 
DOCKED: ATOM     11  H   UNL     1     144.321  77.209 219.735 -0.42 -0.31    +0.299 HD 
DOCKED: ENDBRANCH   9  10
DOCKED: BRANCH   9  12
DOCKED: ATOM     12  C   UNL     1     141.555  78.273 218.642 -0.17 -0.08    +0.150 C  
DOCKED: ATOM     13  C   UNL     1     142.510  79.328 218.084 -0.32 -0.02    +0.019 C  
DOCKED: ENDBRANCH   9  12
DOCKED: ENDBRANCH   8   9
DOCKED: BRANCH   8  14
DOCKED: ATOM     14  C   UNL     1     141.695  78.297 221.905 -0.23 -0.12    +0.208 A  
DOCKED: ATOM     15  C   UNL     1     141.441  78.012 223.255 -0.41 -0.03    +0.079 A  
DOCKED: ATOM     16  C   UNL     1     142.083  79.594 221.533 -0.35 -0.04    +0.079 A  
DOCKED: ATOM     17  C   UNL     1     141.558  79.018 224.219 -0.56 -0.00    +0.007 A  
DOCKED: ATOM     18  C   UNL     1     142.198  80.598 222.499 -0.56 -0.00    +0.007 A  
DOCKED: ATOM     19  C   UNL     1     141.932  80.311 223.842 -0.62 -0.00    +0.000 A  
DOCKED: ENDBRANCH   8  14
DOCKED: ENDBRANCH   1   8
DOCKED: BRANCH   4  20
DOCKED: ATOM     20  C   UNL     1     139.816  72.867 222.352 -0.15 -0.05    +0.329 C  
DOCKED: ATOM     21  O   UNL     1     140.975  73.065 222.694 -0.47 -0.02    -0.229 OA 
DOCKED: BRANCH  20  22
DOCKED: ATOM     22  C   UNL     1     139.011  71.811 223.085 -0.16 -0.05    +0.186 C  
DOCKED: BRANCH  22  23
DOCKED: ATOM     23  N   UNL     1     138.181  71.093 222.111 -0.05 +0.06    -0.316 NA 
DOCKED: ATOM     24  H   UNL     1     138.790  70.532 221.471 +0.03 -0.02    +0.119 HD 
DOCKED: ATOM     25  H   UNL     1     137.555  70.424 222.616 +0.03 -0.02    +0.119 HD 
DOCKED: ENDBRANCH  22  23
DOCKED: BRANCH  22  26
DOCKED: ATOM     26  C   UNL     1     139.951  70.848 223.859 -0.37 -0.00    +0.028 C  
DOCKED: ATOM     27  C   UNL     1     140.545  71.489 225.140 -0.49 -0.01    +0.042 C  
DOCKED: ATOM     28  C   UNL     1     139.244  69.547 224.316 -0.32 -0.01    +0.042 C  
DOCKED: ATOM     29  C   UNL     1     140.495  70.395 226.136 -0.53 +0.01    -0.044 A  
DOCKED: ATOM     30  C   UNL     1     139.781  69.316 225.677 -0.43 +0.01    -0.044 A  
DOCKED: ATOM     31  C   UNL     1     141.047  70.402 227.418 -0.61 -0.00    +0.004 A  
DOCKED: ATOM     32  C   UNL     1     139.582  68.187 226.476 -0.61 -0.00    +0.004 A  
DOCKED: ATOM     33  C   UNL     1     140.864  69.276 228.238 -0.62 -0.00    +0.000 A  
DOCKED: ATOM     34  C   UNL     1     140.134  68.170 227.765 -0.64 -0.00    +0.000 A  
DOCKED: ENDBRANCH  22  26
DOCKED: ENDBRANCH  20  22
DOCKED: ENDBRANCH   4  20
DOCKED: TORSDOF 9
DOCKED: TER
DOCKED: ENDMDL
________________________________________________________________________________


    FINAL DOCKED STATE:
    ________________________


Run:   14 / 20
Time taken for this run:   0.035s

DOCKED: MODEL        14
DOCKED: USER    Run = 14
DOCKED: USER
DOCKED: USER    Estimated Free Energy of Binding    =  -7.90 kcal/mol  [=(1)+(2)+(3)-(4)]
DOCKED: USER
DOCKED: USER    (1) Final Intermolecular Energy     = -10.58 kcal/mol
DOCKED: USER        vdW + Hbond + desolv Energy     =  -9.88 kcal/mol
DOCKED: USER        Electrostatic Energy            =  -0.71 kcal/mol
DOCKED: USER        Moving Ligand-Fixed Receptor    = -10.58 kcal/mol
DOCKED: USER        Moving Ligand-Moving Receptor   =  +0.00 kcal/mol
DOCKED: USER    (2) Final Total Internal Energy     =  -1.76 kcal/mol
DOCKED: USER    (3) Torsional Free Energy           =  +2.68 kcal/mol
DOCKED: USER    (4) Unbound System's Energy         =  -1.76 kcal/mol
DOCKED: USER
DOCKED: USER
DOCKED: REMARK SMILES CC/C(O)=[N+](\c1ccccc1)[C@H]1CC[N@H+](C(=O)[C@@H](N)C2Cc3ccccc3C2)CC1
DOCKED: REMARK SMILES IDX 12 1 13 2 14 3 15 4 29 6 30 7 5 8 3 9 4 10 2 12 1 13 6 14
DOCKED: REMARK SMILES IDX 7 15 11 16 8 17 10 18 9 19 16 20 17 21 18 22 19 23 20 26
DOCKED: REMARK SMILES IDX 21 27 28 28 22 29 27 30 23 31 26 32 24 33 25 34
DOCKED: REMARK H PARENT 15 5 4 11 19 24 19 25
DOCKED: USER                              x       y       z     vdW  Elec       q    Type
DOCKED: USER                           _______ _______ _______ _____ _____    ______ ____
DOCKED: ROOT
DOCKED: ATOM      1  C   UNL     1     140.813  75.944 220.820 -0.17 -0.09    +0.281 C  
DOCKED: ATOM      2  C   UNL     1     141.873  74.877 221.225 -0.14 -0.04    +0.139 C  
DOCKED: ATOM      3  C   UNL     1     141.596  73.483 220.621 -0.14 -0.05    +0.277 C  
DOCKED: ATOM      4  N   UNL     1     140.156  73.149 220.532 -0.06 +0.05    -0.270 N  
DOCKED: ATOM      5  H   UNL     1     140.107  72.271 219.964 +0.06 -0.06    +0.356 HD 
DOCKED: ATOM      6  C   UNL     1     139.333  74.162 219.805 -0.03 -0.06    +0.277 C  
DOCKED: ATOM      7  C   UNL     1     140.055  75.501 219.561 -0.06 -0.04    +0.139 C  
DOCKED: ENDROOT
DOCKED: BRANCH   1   8
DOCKED: ATOM      8  N   UNL     1     141.367  77.315 220.646 -0.20 +0.08    -0.162 N  
DOCKED: BRANCH   8   9
DOCKED: ATOM      9  C   UNL     1     142.080  77.650 219.579 -0.15 -0.21    +0.339 C  
DOCKED: BRANCH   9  10
DOCKED: ATOM     10  O   UNL     1     143.339  77.087 219.320 -0.18 +0.37    -0.463 OA 
DOCKED: ATOM     11  H   UNL     1     144.227  77.490 219.589 -0.40 -0.34    +0.299 HD 
DOCKED: ENDBRANCH   9  10
DOCKED: BRANCH   9  12
DOCKED: ATOM     12  C   UNL     1     141.572  78.684 218.587 -0.18 -0.09    +0.150 C  
DOCKED: ATOM     13  C   UNL     1     142.201  80.064 218.783 -0.32 -0.01    +0.019 C  
DOCKED: ENDBRANCH   9  12
DOCKED: ENDBRANCH   8   9
DOCKED: BRANCH   8  14
DOCKED: ATOM     14  C   UNL     1     141.221  78.271 221.719 -0.26 -0.09    +0.208 A  
DOCKED: ATOM     15  C   UNL     1     140.022  78.343 222.445 -0.32 -0.02    +0.079 A  
DOCKED: ATOM     16  C   UNL     1     142.285  79.124 222.055 -0.38 -0.05    +0.079 A  
DOCKED: ATOM     17  C   UNL     1     139.885  79.269 223.484 -0.43 -0.00    +0.007 A  
DOCKED: ATOM     18  C   UNL     1     142.144  80.049 223.093 -0.61 -0.00    +0.007 A  
DOCKED: ATOM     19  C   UNL     1     140.942  80.124 223.805 -0.50 -0.00    +0.000 A  
DOCKED: ENDBRANCH   8  14
DOCKED: ENDBRANCH   1   8
DOCKED: BRANCH   4  20
DOCKED: ATOM     20  C   UNL     1     139.618  72.846 221.850 -0.15 -0.06    +0.329 C  
DOCKED: ATOM     21  O   UNL     1     139.559  73.717 222.709 -0.63 +0.04    -0.229 OA 
DOCKED: BRANCH  20  22
DOCKED: ATOM     22  C   UNL     1     139.142  71.448 222.197 -0.16 -0.04    +0.186 C  
DOCKED: BRANCH  22  23
DOCKED: ATOM     23  N   UNL     1     139.142  70.635 220.975 -0.03 +0.06    -0.316 NA 
DOCKED: ATOM     24  H   UNL     1     139.442  69.658 221.199 +0.02 -0.02    +0.119 HD 
DOCKED: ATOM     25  H   UNL     1     138.170  70.586 220.592 +0.02 -0.02    +0.119 HD 
DOCKED: ENDBRANCH  22  23
DOCKED: BRANCH  22  26
DOCKED: ATOM     26  C   UNL     1     140.036  70.824 223.302 -0.28 -0.00    +0.028 C  
DOCKED: ATOM     27  C   UNL     1     140.656  71.889 224.244 -0.24 -0.00    +0.042 C  
DOCKED: ATOM     28  C   UNL     1     139.271  69.833 224.215 -0.32 -0.01    +0.042 C  
DOCKED: ATOM     29  C   UNL     1     140.556  71.270 225.585 -0.55 +0.01    -0.044 A  
DOCKED: ATOM     30  C   UNL     1     139.795  70.128 225.567 -0.44 +0.01    -0.044 A  
DOCKED: ATOM     31  C   UNL     1     141.105  71.753 226.775 -0.75 -0.00    +0.004 A  
DOCKED: ATOM     32  C   UNL     1     139.545  69.407 226.738 -0.52 -0.00    +0.004 A  
DOCKED: ATOM     33  C   UNL     1     140.871  71.042 227.963 -0.74 -0.00    +0.000 A  
DOCKED: ATOM     34  C   UNL     1     140.093  69.870 227.944 -0.63 -0.00    +0.000 A  
DOCKED: ENDBRANCH  22  26
DOCKED: ENDBRANCH  20  22
DOCKED: ENDBRANCH   4  20
DOCKED: TORSDOF 9
DOCKED: TER
DOCKED: ENDMDL
________________________________________________________________________________


    FINAL DOCKED STATE:
    ________________________


Run:   15 / 20
Time taken for this run:   0.035s

DOCKED: MODEL        15
DOCKED: USER    Run = 15
DOCKED: USER
DOCKED: USER    Estimated Free Energy of Binding    =  -6.78 kcal/mol  [=(1)+(2)+(3)-(4)]
DOCKED: USER
DOCKED: USER    (1) Final Intermolecular Energy     =  -9.47 kcal/mol
DOCKED: USER        vdW + Hbond + desolv Energy     =  -8.28 kcal/mol
DOCKED: USER        Electrostatic Energy            =  -1.19 kcal/mol
DOCKED: USER        Moving Ligand-Fixed Receptor    =  -9.47 kcal/mol
DOCKED: USER        Moving Ligand-Moving Receptor   =  +0.00 kcal/mol
DOCKED: USER    (2) Final Total Internal Energy     =  -2.79 kcal/mol
DOCKED: USER    (3) Torsional Free Energy           =  +2.68 kcal/mol
DOCKED: USER    (4) Unbound System's Energy         =  -2.79 kcal/mol
DOCKED: USER
DOCKED: USER
DOCKED: REMARK SMILES CC/C(O)=[N+](\c1ccccc1)[C@H]1CC[N@H+](C(=O)[C@@H](N)C2Cc3ccccc3C2)CC1
DOCKED: REMARK SMILES IDX 12 1 13 2 14 3 15 4 29 6 30 7 5 8 3 9 4 10 2 12 1 13 6 14
DOCKED: REMARK SMILES IDX 7 15 11 16 8 17 10 18 9 19 16 20 17 21 18 22 19 23 20 26
DOCKED: REMARK SMILES IDX 21 27 28 28 22 29 27 30 23 31 26 32 24 33 25 34
DOCKED: REMARK H PARENT 15 5 4 11 19 24 19 25
DOCKED: USER                              x       y       z     vdW  Elec       q    Type
DOCKED: USER                           _______ _______ _______ _____ _____    ______ ____
DOCKED: ROOT
DOCKED: ATOM      1  C   UNL     1     140.837  78.253 219.316 -0.08 -0.12    +0.281 C  
DOCKED: ATOM      2  C   UNL     1     142.037  77.426 219.868 -0.25 -0.09    +0.139 C  
DOCKED: ATOM      3  C   UNL     1     141.890  75.907 219.629 -0.14 -0.12    +0.277 C  
DOCKED: ATOM      4  N   UNL     1     140.496  75.419 219.741 -0.04 +0.08    -0.270 N  
DOCKED: ATOM      5  H   UNL     1     140.518  74.430 219.398 +0.08 -0.09    +0.356 HD 
DOCKED: ATOM      6  C   UNL     1     139.520  76.141 218.870 -0.01 -0.07    +0.277 C  
DOCKED: ATOM      7  C   UNL     1     140.065  77.447 218.262 -0.03 -0.05    +0.139 C  
DOCKED: ENDROOT
DOCKED: BRANCH   1   8
DOCKED: ATOM      8  N   UNL     1     141.216  79.590 218.783 -0.13 +0.08    -0.162 N  
DOCKED: BRANCH   8   9
DOCKED: ATOM      9  C   UNL     1     142.105  79.728 217.809 -0.17 -0.28    +0.339 C  
DOCKED: BRANCH   9  10
DOCKED: ATOM     10  O   UNL     1     143.149  78.810 217.620 -0.11 +0.56    -0.463 OA 
DOCKED: ATOM     11  H   UNL     1     144.022  79.005 217.147 -0.41 -0.72    +0.299 HD 
DOCKED: ENDBRANCH   9  10
DOCKED: BRANCH   9  12
DOCKED: ATOM     12  C   UNL     1     142.049  80.910 216.854 -0.17 -0.13    +0.150 C  
DOCKED: ATOM     13  C   UNL     1     143.123  81.961 217.134 -0.32 -0.02    +0.019 C  
DOCKED: ENDBRANCH   9  12
DOCKED: ENDBRANCH   8   9
DOCKED: BRANCH   8  14
DOCKED: ATOM     14  C   UNL     1     140.686  80.774 219.419 -0.12 -0.08    +0.208 A  
DOCKED: ATOM     15  C   UNL     1     139.301  80.931 219.580 -0.06 -0.02    +0.079 A  
DOCKED: ATOM     16  C   UNL     1     141.555  81.769 219.897 -0.22 -0.03    +0.079 A  
DOCKED: ATOM     17  C   UNL     1     138.791  82.078 220.198 -0.09 -0.00    +0.007 A  
DOCKED: ATOM     18  C   UNL     1     141.042  82.914 220.513 -0.27 -0.00    +0.007 A  
DOCKED: ATOM     19  C   UNL     1     139.660  83.070 220.660 -0.19 -0.00    +0.000 A  
DOCKED: ENDBRANCH   8  14
DOCKED: ENDBRANCH   1   8
DOCKED: BRANCH   4  20
DOCKED: ATOM     20  C   UNL     1     140.075  75.389 221.134 -0.16 -0.08    +0.329 C  
DOCKED: ATOM     21  O   UNL     1     140.597  74.609 221.920 -0.74 +0.02    -0.229 OA 
DOCKED: BRANCH  20  22
DOCKED: ATOM     22  C   UNL     1     138.973  76.302 221.636 -0.20 -0.04    +0.186 C  
DOCKED: BRANCH  22  23
DOCKED: ATOM     23  N   UNL     1     137.866  75.476 222.128 -0.13 +0.08    -0.316 NA 
DOCKED: ATOM     24  H   UNL     1     137.353  75.052 221.320 +0.02 -0.03    +0.119 HD 
DOCKED: ATOM     25  H   UNL     1     138.249  74.691 222.704 -0.50 -0.05    +0.119 HD 
DOCKED: ENDBRANCH  22  23
DOCKED: BRANCH  22  26
DOCKED: ATOM     26  C   UNL     1     139.513  77.254 222.738 -0.19 -0.01    +0.028 C  
DOCKED: ATOM     27  C   UNL     1     141.061  77.342 222.750 -0.36 -0.02    +0.042 C  
DOCKED: ATOM     28  C   UNL     1     139.000  78.709 222.587 -0.28 -0.01    +0.042 C  
DOCKED: ATOM     29  C   UNL     1     141.329  78.777 222.993 -0.51 +0.01    -0.044 A  
DOCKED: ATOM     30  C   UNL     1     140.187  79.533 222.910 -0.37 +0.01    -0.044 A  
DOCKED: ATOM     31  C   UNL     1     142.570  79.368 223.239 -0.59 -0.00    +0.004 A  
DOCKED: ATOM     32  C   UNL     1     140.224  80.921 223.072 -0.40 -0.00    +0.004 A  
DOCKED: ATOM     33  C   UNL     1     142.631  80.761 223.411 -0.65 -0.00    +0.000 A  
DOCKED: ATOM     34  C   UNL     1     141.459  81.535 223.329 -0.48 -0.00    +0.000 A  
DOCKED: ENDBRANCH  22  26
DOCKED: ENDBRANCH  20  22
DOCKED: ENDBRANCH   4  20
DOCKED: TORSDOF 9
DOCKED: TER
DOCKED: ENDMDL
________________________________________________________________________________


    FINAL DOCKED STATE:
    ________________________


Run:   16 / 20
Time taken for this run:   0.035s

DOCKED: MODEL        16
DOCKED: USER    Run = 16
DOCKED: USER
DOCKED: USER    Estimated Free Energy of Binding    =  -6.26 kcal/mol  [=(1)+(2)+(3)-(4)]
DOCKED: USER
DOCKED: USER    (1) Final Intermolecular Energy     =  -8.94 kcal/mol
DOCKED: USER        vdW + Hbond + desolv Energy     =  -8.00 kcal/mol
DOCKED: USER        Electrostatic Energy            =  -0.94 kcal/mol
DOCKED: USER        Moving Ligand-Fixed Receptor    =  -8.94 kcal/mol
DOCKED: USER        Moving Ligand-Moving Receptor   =  +0.00 kcal/mol
DOCKED: USER    (2) Final Total Internal Energy     =  -3.31 kcal/mol
DOCKED: USER    (3) Torsional Free Energy           =  +2.68 kcal/mol
DOCKED: USER    (4) Unbound System's Energy         =  -3.31 kcal/mol
DOCKED: USER
DOCKED: USER
DOCKED: REMARK SMILES CC/C(O)=[N+](\c1ccccc1)[C@H]1CC[N@H+](C(=O)[C@@H](N)C2Cc3ccccc3C2)CC1
DOCKED: REMARK SMILES IDX 12 1 13 2 14 3 15 4 29 6 30 7 5 8 3 9 4 10 2 12 1 13 6 14
DOCKED: REMARK SMILES IDX 7 15 11 16 8 17 10 18 9 19 16 20 17 21 18 22 19 23 20 26
DOCKED: REMARK SMILES IDX 21 27 28 28 22 29 27 30 23 31 26 32 24 33 25 34
DOCKED: REMARK H PARENT 15 5 4 11 19 24 19 25
DOCKED: USER                              x       y       z     vdW  Elec       q    Type
DOCKED: USER                           _______ _______ _______ _____ _____    ______ ____
DOCKED: ROOT
DOCKED: ATOM      1  C   UNL     1     140.777  77.803 220.218 -0.11 -0.11    +0.281 C  
DOCKED: ATOM      2  C   UNL     1     141.757  76.621 220.481 -0.22 -0.07    +0.139 C  
DOCKED: ATOM      3  C   UNL     1     141.305  75.298 219.823 -0.10 -0.09    +0.277 C  
DOCKED: ATOM      4  N   UNL     1     139.837  75.103 219.826 -0.03 +0.07    -0.270 N  
DOCKED: ATOM      5  H   UNL     1     139.665  74.270 219.216 +0.05 -0.08    +0.356 HD 
DOCKED: ATOM      6  C   UNL     1     139.065  76.230 219.222 -0.01 -0.07    +0.277 C  
DOCKED: ATOM      7  C   UNL     1     139.893  77.511 218.998 -0.05 -0.05    +0.139 C  
DOCKED: ENDROOT
DOCKED: BRANCH   1   8
DOCKED: ATOM      8  N   UNL     1     141.446  79.126 220.078 -0.18 +0.08    -0.162 N  
DOCKED: BRANCH   8   9
DOCKED: ATOM      9  C   UNL     1     141.872  79.573 218.905 -0.16 -0.21    +0.339 C  
DOCKED: BRANCH   9  10
DOCKED: ATOM     10  O   UNL     1     142.934  78.966 218.218 -0.19 +0.46    -0.463 OA 
DOCKED: ATOM     11  H   UNL     1     143.465  79.390 217.468 -0.44 -0.52    +0.299 HD 
DOCKED: ENDBRANCH   9  10
DOCKED: BRANCH   9  12
DOCKED: ATOM     12  C   UNL     1     141.236  80.789 218.249 -0.16 -0.08    +0.150 C  
DOCKED: ATOM     13  C   UNL     1     139.721  80.851 218.439 -0.06 -0.01    +0.019 C  
DOCKED: ENDBRANCH   9  12
DOCKED: ENDBRANCH   8   9
DOCKED: BRANCH   8  14
DOCKED: ATOM     14  C   UNL     1     141.741  79.890 221.267 -0.28 -0.09    +0.208 A  
DOCKED: ATOM     15  C   UNL     1     142.294  79.263 222.394 -0.47 -0.04    +0.079 A  
DOCKED: ATOM     16  C   UNL     1     141.492  81.273 221.299 -0.35 -0.02    +0.079 A  
DOCKED: ATOM     17  C   UNL     1     142.579  80.006 223.543 -0.65 -0.00    +0.007 A  
DOCKED: ATOM     18  C   UNL     1     141.777  82.013 222.450 -0.37 -0.00    +0.007 A  
DOCKED: ATOM     19  C   UNL     1     142.318  81.378 223.573 -0.56 -0.00    +0.000 A  
DOCKED: ENDBRANCH   8  14
DOCKED: ENDBRANCH   1   8
DOCKED: BRANCH   4  20
DOCKED: ATOM     20  C   UNL     1     139.368  74.769 221.163 -0.13 -0.07    +0.329 C  
DOCKED: ATOM     21  O   UNL     1     140.169  74.506 222.051 -0.81 +0.01    -0.229 OA 
DOCKED: BRANCH  20  22
DOCKED: ATOM     22  C   UNL     1     137.886  74.717 221.480 -0.13 -0.05    +0.186 C  
DOCKED: BRANCH  22  23
DOCKED: ATOM     23  N   UNL     1     137.625  73.540 222.315 -0.03 +0.11    -0.316 NA 
DOCKED: ATOM     24  H   UNL     1     138.519  73.198 222.738 -0.47 -0.05    +0.119 HD 
DOCKED: ATOM     25  H   UNL     1     136.987  73.806 223.100 -0.47 -0.06    +0.119 HD 
DOCKED: ENDBRANCH  22  23
DOCKED: BRANCH  22  26
DOCKED: ATOM     26  C   UNL     1     137.431  76.028 222.177 -0.23 -0.01    +0.028 C  
DOCKED: ATOM     27  C   UNL     1     138.546  76.662 223.049 -0.01 -0.01    +0.042 C  
DOCKED: ATOM     28  C   UNL     1     136.988  77.125 221.177 -0.09 -0.01    +0.042 C  
DOCKED: ATOM     29  C   UNL     1     138.413  78.113 222.786 -0.26 +0.01    -0.044 A  
DOCKED: ATOM     30  C   UNL     1     137.545  78.370 221.755 -0.13 +0.01    -0.044 A  
DOCKED: ATOM     31  C   UNL     1     139.086  79.148 223.437 -0.36 -0.00    +0.004 A  
DOCKED: ATOM     32  C   UNL     1     137.302  79.676 221.321 -0.08 -0.00    +0.004 A  
DOCKED: ATOM     33  C   UNL     1     138.854  80.470 223.022 -0.32 -0.00    +0.000 A  
DOCKED: ATOM     34  C   UNL     1     137.962  80.732 221.966 -0.15 -0.00    +0.000 A  
DOCKED: ENDBRANCH  22  26
DOCKED: ENDBRANCH  20  22
DOCKED: ENDBRANCH   4  20
DOCKED: TORSDOF 9
DOCKED: TER
DOCKED: ENDMDL
________________________________________________________________________________


    FINAL DOCKED STATE:
    ________________________


Run:   17 / 20
Time taken for this run:   0.035s

DOCKED: MODEL        17
DOCKED: USER    Run = 17
DOCKED: USER
DOCKED: USER    Estimated Free Energy of Binding    =  -6.49 kcal/mol  [=(1)+(2)+(3)-(4)]
DOCKED: USER
DOCKED: USER    (1) Final Intermolecular Energy     =  -9.17 kcal/mol
DOCKED: USER        vdW + Hbond + desolv Energy     =  -8.21 kcal/mol
DOCKED: USER        Electrostatic Energy            =  -0.96 kcal/mol
DOCKED: USER        Moving Ligand-Fixed Receptor    =  -9.17 kcal/mol
DOCKED: USER        Moving Ligand-Moving Receptor   =  +0.00 kcal/mol
DOCKED: USER    (2) Final Total Internal Energy     =  -3.10 kcal/mol
DOCKED: USER    (3) Torsional Free Energy           =  +2.68 kcal/mol
DOCKED: USER    (4) Unbound System's Energy         =  -3.10 kcal/mol
DOCKED: USER
DOCKED: USER
DOCKED: REMARK SMILES CC/C(O)=[N+](\c1ccccc1)[C@H]1CC[N@H+](C(=O)[C@@H](N)C2Cc3ccccc3C2)CC1
DOCKED: REMARK SMILES IDX 12 1 13 2 14 3 15 4 29 6 30 7 5 8 3 9 4 10 2 12 1 13 6 14
DOCKED: REMARK SMILES IDX 7 15 11 16 8 17 10 18 9 19 16 20 17 21 18 22 19 23 20 26
DOCKED: REMARK SMILES IDX 21 27 28 28 22 29 27 30 23 31 26 32 24 33 25 34
DOCKED: REMARK H PARENT 15 5 4 11 19 24 19 25
DOCKED: USER                              x       y       z     vdW  Elec       q    Type
DOCKED: USER                           _______ _______ _______ _____ _____    ______ ____
DOCKED: ROOT
DOCKED: ATOM      1  C   UNL     1     140.821  77.793 220.212 -0.11 -0.12    +0.281 C  
DOCKED: ATOM      2  C   UNL     1     141.789  76.601 220.475 -0.22 -0.07    +0.139 C  
DOCKED: ATOM      3  C   UNL     1     141.325  75.284 219.815 -0.10 -0.09    +0.277 C  
DOCKED: ATOM      4  N   UNL     1     139.856  75.103 219.816 -0.03 +0.07    -0.270 N  
DOCKED: ATOM      5  H   UNL     1     139.676  74.273 219.204 +0.05 -0.08    +0.356 HD 
DOCKED: ATOM      6  C   UNL     1     139.096  76.239 219.211 -0.01 -0.07    +0.277 C  
DOCKED: ATOM      7  C   UNL     1     139.937  77.511 218.990 -0.05 -0.05    +0.139 C  
DOCKED: ENDROOT
DOCKED: BRANCH   1   8
DOCKED: ATOM      8  N   UNL     1     141.504  79.110 220.074 -0.19 +0.08    -0.162 N  
DOCKED: BRANCH   8   9
DOCKED: ATOM      9  C   UNL     1     141.952  79.545 218.905 -0.16 -0.22    +0.339 C  
DOCKED: BRANCH   9  10
DOCKED: ATOM     10  O   UNL     1     142.970  78.882 218.205 -0.18 +0.46    -0.463 OA 
DOCKED: ATOM     11  H   UNL     1     143.526  79.283 217.460 -0.43 -0.52    +0.299 HD 
DOCKED: ENDBRANCH   9  10
DOCKED: BRANCH   9  12
DOCKED: ATOM     12  C   UNL     1     141.394  80.810 218.271 -0.18 -0.08    +0.150 C  
DOCKED: ATOM     13  C   UNL     1     142.385  81.500 217.334 -0.28 -0.02    +0.019 C  
DOCKED: ENDBRANCH   9  12
DOCKED: ENDBRANCH   8   9
DOCKED: BRANCH   8  14
DOCKED: ATOM     14  C   UNL     1     141.786  79.879 221.264 -0.28 -0.09    +0.208 A  
DOCKED: ATOM     15  C   UNL     1     142.328  79.256 222.398 -0.47 -0.04    +0.079 A  
DOCKED: ATOM     16  C   UNL     1     141.536  81.261 221.287 -0.35 -0.02    +0.079 A  
DOCKED: ATOM     17  C   UNL     1     142.601  80.005 223.548 -0.65 -0.00    +0.007 A  
DOCKED: ATOM     18  C   UNL     1     141.809  82.006 222.438 -0.37 -0.00    +0.007 A  
DOCKED: ATOM     19  C   UNL     1     142.338  81.377 223.569 -0.56 -0.00    +0.000 A  
DOCKED: ENDBRANCH   8  14
DOCKED: ENDBRANCH   1   8
DOCKED: BRANCH   4  20
DOCKED: ATOM     20  C   UNL     1     139.381  74.772 221.151 -0.13 -0.07    +0.329 C  
DOCKED: ATOM     21  O   UNL     1     140.177  74.507 222.042 -0.81 +0.01    -0.229 OA 
DOCKED: BRANCH  20  22
DOCKED: ATOM     22  C   UNL     1     137.897  74.728 221.464 -0.13 -0.05    +0.186 C  
DOCKED: BRANCH  22  23
DOCKED: ATOM     23  N   UNL     1     137.628  73.551 222.297 -0.03 +0.11    -0.316 NA 
DOCKED: ATOM     24  H   UNL     1     138.520  73.201 222.718 -0.47 -0.05    +0.119 HD 
DOCKED: ATOM     25  H   UNL     1     136.994  73.821 223.084 -0.46 -0.06    +0.119 HD 
DOCKED: ENDBRANCH  22  23
DOCKED: BRANCH  22  26
DOCKED: ATOM     26  C   UNL     1     137.446  76.040 222.160 -0.23 -0.01    +0.028 C  
DOCKED: ATOM     27  C   UNL     1     138.560  76.669 223.036 -0.01 -0.01    +0.042 C  
DOCKED: ATOM     28  C   UNL     1     137.012  77.140 221.159 -0.09 -0.01    +0.042 C  
DOCKED: ATOM     29  C   UNL     1     138.435  78.120 222.773 -0.26 +0.01    -0.044 A  
DOCKED: ATOM     30  C   UNL     1     137.572  78.381 221.739 -0.13 +0.01    -0.044 A  
DOCKED: ATOM     31  C   UNL     1     139.111  79.152 223.427 -0.36 -0.00    +0.004 A  
DOCKED: ATOM     32  C   UNL     1     137.337  79.689 221.305 -0.08 -0.00    +0.004 A  
DOCKED: ATOM     33  C   UNL     1     138.887  80.475 223.012 -0.32 -0.00    +0.000 A  
DOCKED: ATOM     34  C   UNL     1     138.000  80.742 221.953 -0.15 -0.00    +0.000 A  
DOCKED: ENDBRANCH  22  26
DOCKED: ENDBRANCH  20  22
DOCKED: ENDBRANCH   4  20
DOCKED: TORSDOF 9
DOCKED: TER
DOCKED: ENDMDL
________________________________________________________________________________


    FINAL DOCKED STATE:
    ________________________


Run:   18 / 20
Time taken for this run:   0.035s

DOCKED: MODEL        18
DOCKED: USER    Run = 18
DOCKED: USER
DOCKED: USER    Estimated Free Energy of Binding    =  -8.33 kcal/mol  [=(1)+(2)+(3)-(4)]
DOCKED: USER
DOCKED: USER    (1) Final Intermolecular Energy     = -11.01 kcal/mol
DOCKED: USER        vdW + Hbond + desolv Energy     = -10.22 kcal/mol
DOCKED: USER        Electrostatic Energy            =  -0.79 kcal/mol
DOCKED: USER        Moving Ligand-Fixed Receptor    = -11.01 kcal/mol
DOCKED: USER        Moving Ligand-Moving Receptor   =  +0.00 kcal/mol
DOCKED: USER    (2) Final Total Internal Energy     =  -1.40 kcal/mol
DOCKED: USER    (3) Torsional Free Energy           =  +2.68 kcal/mol
DOCKED: USER    (4) Unbound System's Energy         =  -1.40 kcal/mol
DOCKED: USER
DOCKED: USER
DOCKED: REMARK SMILES CC/C(O)=[N+](\c1ccccc1)[C@H]1CC[N@H+](C(=O)[C@@H](N)C2Cc3ccccc3C2)CC1
DOCKED: REMARK SMILES IDX 12 1 13 2 14 3 15 4 29 6 30 7 5 8 3 9 4 10 2 12 1 13 6 14
DOCKED: REMARK SMILES IDX 7 15 11 16 8 17 10 18 9 19 16 20 17 21 18 22 19 23 20 26
DOCKED: REMARK SMILES IDX 21 27 28 28 22 29 27 30 23 31 26 32 24 33 25 34
DOCKED: REMARK H PARENT 15 5 4 11 19 24 19 25
DOCKED: USER                              x       y       z     vdW  Elec       q    Type
DOCKED: USER                           _______ _______ _______ _____ _____    ______ ____
DOCKED: ROOT
DOCKED: ATOM      1  C   UNL     1     140.846  76.308 221.230 -0.21 -0.10    +0.281 C  
DOCKED: ATOM      2  C   UNL     1     140.751  75.286 220.058 -0.13 -0.04    +0.139 C  
DOCKED: ATOM      3  C   UNL     1     139.449  74.457 220.076 -0.04 -0.06    +0.277 C  
DOCKED: ATOM      4  N   UNL     1     138.979  74.118 221.439 -0.12 +0.06    -0.270 N  
DOCKED: ATOM      5  H   UNL     1     138.022  73.711 221.311 +0.07 -0.09    +0.356 HD 
DOCKED: ATOM      6  C   UNL     1     138.814  75.295 222.344 -0.11 -0.07    +0.277 C  
DOCKED: ATOM      7  C   UNL     1     139.454  76.592 221.812 -0.26 -0.03    +0.139 C  
DOCKED: ENDROOT
DOCKED: BRANCH   1   8
DOCKED: ATOM      8  N   UNL     1     141.536  77.578 220.874 -0.22 +0.09    -0.162 N  
DOCKED: BRANCH   8   9
DOCKED: ATOM      9  C   UNL     1     142.111  77.754 219.693 -0.13 -0.22    +0.339 C  
DOCKED: BRANCH   9  10
DOCKED: ATOM     10  O   UNL     1     143.315  77.121 219.351 -0.18 +0.37    -0.463 OA 
DOCKED: ATOM     11  H   UNL     1     144.241  77.469 219.565 -0.40 -0.33    +0.299 HD 
DOCKED: ENDBRANCH   9  10
DOCKED: BRANCH   9  12
DOCKED: ATOM     12  C   UNL     1     141.499  78.674 218.649 -0.17 -0.08    +0.150 C  
DOCKED: ATOM     13  C   UNL     1     142.505  79.656 218.048 -0.32 -0.02    +0.019 C  
DOCKED: ENDBRANCH   9  12
DOCKED: ENDBRANCH   8   9
DOCKED: BRANCH   8  14
DOCKED: ATOM     14  C   UNL     1     141.680  78.603 221.883 -0.29 -0.11    +0.208 A  
DOCKED: ATOM     15  C   UNL     1     141.857  79.944 221.510 -0.38 -0.03    +0.079 A  
DOCKED: ATOM     16  C   UNL     1     141.628  78.265 223.245 -0.45 -0.03    +0.079 A  
DOCKED: ATOM     17  C   UNL     1     141.996  80.933 222.488 -0.53 -0.00    +0.007 A  
DOCKED: ATOM     18  C   UNL     1     141.768  79.256 224.221 -0.54 -0.00    +0.007 A  
DOCKED: ATOM     19  C   UNL     1     141.955  80.590 223.842 -0.62 -0.00    +0.000 A  
DOCKED: ENDBRANCH   8  14
DOCKED: ENDBRANCH   1   8
DOCKED: BRANCH   4  20
DOCKED: ATOM     20  C   UNL     1     139.818  73.084 222.027 -0.16 -0.05    +0.329 C  
DOCKED: ATOM     21  O   UNL     1     140.970  73.336 222.356 -0.62 -0.01    -0.229 OA 
DOCKED: BRANCH  20  22
DOCKED: ATOM     22  C   UNL     1     139.296  71.674 222.226 -0.18 -0.04    +0.186 C  
DOCKED: BRANCH  22  23
DOCKED: ATOM     23  N   UNL     1     140.254  70.731 221.640 -0.06 +0.05    -0.316 NA 
DOCKED: ATOM     24  H   UNL     1     141.198  71.180 221.571 +0.04 -0.01    +0.119 HD 
DOCKED: ATOM     25  H   UNL     1     140.348  69.898 222.266 +0.01 -0.02    +0.119 HD 
DOCKED: ENDBRANCH  22  23
DOCKED: BRANCH  22  26
DOCKED: ATOM     26  C   UNL     1     139.056  71.387 223.733 -0.28 -0.01    +0.028 C  
DOCKED: ATOM     27  C   UNL     1     138.560  69.942 223.997 -0.29 -0.01    +0.042 C  
DOCKED: ATOM     28  C   UNL     1     140.329  71.572 224.596 -0.42 -0.01    +0.042 C  
DOCKED: ATOM     29  C   UNL     1     139.294  69.538 225.217 -0.38 +0.01    -0.044 A  
DOCKED: ATOM     30  C   UNL     1     140.269  70.444 225.553 -0.49 +0.01    -0.044 A  
DOCKED: ATOM     31  C   UNL     1     139.103  68.373 225.964 -0.50 -0.00    +0.004 A  
DOCKED: ATOM     32  C   UNL     1     141.103  70.234 226.655 -0.58 -0.00    +0.004 A  
DOCKED: ATOM     33  C   UNL     1     139.927  68.144 227.079 -0.66 -0.00    +0.000 A  
DOCKED: ATOM     34  C   UNL     1     140.924  69.075 227.424 -0.61 -0.00    +0.000 A  
DOCKED: ENDBRANCH  22  26
DOCKED: ENDBRANCH  20  22
DOCKED: ENDBRANCH   4  20
DOCKED: TORSDOF 9
DOCKED: TER
DOCKED: ENDMDL
________________________________________________________________________________


    FINAL DOCKED STATE:
    ________________________


Run:   19 / 20
Time taken for this run:   0.035s

DOCKED: MODEL        19
DOCKED: USER    Run = 19
DOCKED: USER
DOCKED: USER    Estimated Free Energy of Binding    =  -7.28 kcal/mol  [=(1)+(2)+(3)-(4)]
DOCKED: USER
DOCKED: USER    (1) Final Intermolecular Energy     =  -9.97 kcal/mol
DOCKED: USER        vdW + Hbond + desolv Energy     =  -9.13 kcal/mol
DOCKED: USER        Electrostatic Energy            =  -0.84 kcal/mol
DOCKED: USER        Moving Ligand-Fixed Receptor    =  -9.97 kcal/mol
DOCKED: USER        Moving Ligand-Moving Receptor   =  +0.00 kcal/mol
DOCKED: USER    (2) Final Total Internal Energy     =  -1.69 kcal/mol
DOCKED: USER    (3) Torsional Free Energy           =  +2.68 kcal/mol
DOCKED: USER    (4) Unbound System's Energy         =  -1.69 kcal/mol
DOCKED: USER
DOCKED: USER
DOCKED: REMARK SMILES CC/C(O)=[N+](\c1ccccc1)[C@H]1CC[N@H+](C(=O)[C@@H](N)C2Cc3ccccc3C2)CC1
DOCKED: REMARK SMILES IDX 12 1 13 2 14 3 15 4 29 6 30 7 5 8 3 9 4 10 2 12 1 13 6 14
DOCKED: REMARK SMILES IDX 7 15 11 16 8 17 10 18 9 19 16 20 17 21 18 22 19 23 20 26
DOCKED: REMARK SMILES IDX 21 27 28 28 22 29 27 30 23 31 26 32 24 33 25 34
DOCKED: REMARK H PARENT 15 5 4 11 19 24 19 25
DOCKED: USER                              x       y       z     vdW  Elec       q    Type
DOCKED: USER                           _______ _______ _______ _____ _____    ______ ____
DOCKED: ROOT
DOCKED: ATOM      1  C   UNL     1     141.492  76.213 220.586 -0.17 -0.13    +0.281 C  
DOCKED: ATOM      2  C   UNL     1     140.467  76.920 221.523 -0.27 -0.05    +0.139 C  
DOCKED: ATOM      3  C   UNL     1     139.816  78.166 220.882 -0.08 -0.08    +0.277 C  
DOCKED: ATOM      4  N   UNL     1     140.735  78.939 220.016 -0.07 +0.11    -0.270 N  
DOCKED: ATOM      5  H   UNL     1     140.132  79.641 219.526 +0.10 -0.12    +0.356 HD 
DOCKED: ATOM      6  C   UNL     1     141.393  78.133 218.943 -0.12 -0.14    +0.277 C  
DOCKED: ATOM      7  C   UNL     1     141.249  76.610 219.123 -0.12 -0.06    +0.139 C  
DOCKED: ENDROOT
DOCKED: BRANCH   1   8
DOCKED: ATOM      8  N   UNL     1     141.525  74.732 220.731 -0.20 +0.04    -0.162 N  
DOCKED: BRANCH   8   9
DOCKED: ATOM      9  C   UNL     1     140.437  74.035 221.028 -0.14 -0.06    +0.339 C  
DOCKED: BRANCH   9  10
DOCKED: ATOM     10  O   UNL     1     140.060  73.774 222.354 -0.75 +0.02    -0.463 OA 
DOCKED: ATOM     11  H   UNL     1     139.123  73.863 222.725 -0.46 -0.10    +0.299 HD 
DOCKED: ENDBRANCH   9  10
DOCKED: BRANCH   9  12
DOCKED: ATOM     12  C   UNL     1     139.548  73.460 219.936 -0.06 -0.03    +0.150 C  
DOCKED: ATOM     13  C   UNL     1     139.502  71.933 219.940 -0.06 -0.00    +0.019 C  
DOCKED: ENDBRANCH   9  12
DOCKED: ENDBRANCH   8   9
DOCKED: BRANCH   8  14
DOCKED: ATOM     14  C   UNL     1     142.796  74.049 220.659 -0.19 -0.06    +0.208 A  
DOCKED: ATOM     15  C   UNL     1     142.858  72.653 220.783 -0.24 -0.01    +0.079 A  
DOCKED: ATOM     16  C   UNL     1     143.978  74.778 220.445 -0.34 -0.04    +0.079 A  
DOCKED: ATOM     17  C   UNL     1     144.090  71.995 220.712 -0.33 -0.00    +0.007 A  
DOCKED: ATOM     18  C   UNL     1     145.208  74.117 220.375 -0.54 -0.00    +0.007 A  
DOCKED: ATOM     19  C   UNL     1     145.264  72.726 220.512 -0.52 -0.00    +0.000 A  
DOCKED: ENDBRANCH   8  14
DOCKED: ENDBRANCH   1   8
DOCKED: BRANCH   4  20
DOCKED: ATOM     20  C   UNL     1     141.698  79.676 220.821 -0.17 -0.16    +0.329 C  
DOCKED: ATOM     21  O   UNL     1     142.434  80.504 220.299 -0.19 +0.12    -0.229 OA 
DOCKED: BRANCH  20  22
DOCKED: ATOM     22  C   UNL     1     141.828  79.422 222.310 -0.40 -0.08    +0.186 C  
DOCKED: BRANCH  22  23
DOCKED: ATOM     23  N   UNL     1     143.241  79.545 222.686 -0.23 +0.17    -0.316 NA 
DOCKED: ATOM     24  H   UNL     1     143.695  78.601 222.677 -0.45 -0.11    +0.119 HD 
DOCKED: ATOM     25  H   UNL     1     143.736  80.139 221.982 -0.49 -0.07    +0.119 HD 
DOCKED: ENDBRANCH  22  23
DOCKED: BRANCH  22  26
DOCKED: ATOM     26  C   UNL     1     140.933  80.404 223.112 -0.48 -0.01    +0.028 C  
DOCKED: ATOM     27  C   UNL     1     140.267  81.479 222.214 -0.31 -0.01    +0.042 C  
DOCKED: ATOM     28  C   UNL     1     139.779  79.697 223.866 -0.40 -0.01    +0.042 C  
DOCKED: ATOM     29  C   UNL     1     138.896  81.593 222.761 -0.22 +0.01    -0.044 A  
DOCKED: ATOM     30  C   UNL     1     138.628  80.610 223.681 -0.36 +0.01    -0.044 A  
DOCKED: ATOM     31  C   UNL     1     137.926  82.530 222.403 -0.16 -0.00    +0.004 A  
DOCKED: ATOM     32  C   UNL     1     137.376  80.515 224.294 -0.34 -0.00    +0.004 A  
DOCKED: ATOM     33  C   UNL     1     136.661  82.458 223.011 -0.14 -0.00    +0.000 A  
DOCKED: ATOM     34  C   UNL     1     136.388  81.452 223.956 -0.21 -0.00    +0.000 A  
DOCKED: ENDBRANCH  22  26
DOCKED: ENDBRANCH  20  22
DOCKED: ENDBRANCH   4  20
DOCKED: TORSDOF 9
DOCKED: TER
DOCKED: ENDMDL
________________________________________________________________________________


    FINAL DOCKED STATE:
    ________________________


Run:   20 / 20
Time taken for this run:   0.035s

DOCKED: MODEL        20
DOCKED: USER    Run = 20
DOCKED: USER
DOCKED: USER    Estimated Free Energy of Binding    =  -7.69 kcal/mol  [=(1)+(2)+(3)-(4)]
DOCKED: USER
DOCKED: USER    (1) Final Intermolecular Energy     = -10.38 kcal/mol
DOCKED: USER        vdW + Hbond + desolv Energy     =  -9.69 kcal/mol
DOCKED: USER        Electrostatic Energy            =  -0.69 kcal/mol
DOCKED: USER        Moving Ligand-Fixed Receptor    = -10.38 kcal/mol
DOCKED: USER        Moving Ligand-Moving Receptor   =  +0.00 kcal/mol
DOCKED: USER    (2) Final Total Internal Energy     =  -1.80 kcal/mol
DOCKED: USER    (3) Torsional Free Energy           =  +2.68 kcal/mol
DOCKED: USER    (4) Unbound System's Energy         =  -1.80 kcal/mol
DOCKED: USER
DOCKED: USER
DOCKED: REMARK SMILES CC/C(O)=[N+](\c1ccccc1)[C@H]1CC[N@H+](C(=O)[C@@H](N)C2Cc3ccccc3C2)CC1
DOCKED: REMARK SMILES IDX 12 1 13 2 14 3 15 4 29 6 30 7 5 8 3 9 4 10 2 12 1 13 6 14
DOCKED: REMARK SMILES IDX 7 15 11 16 8 17 10 18 9 19 16 20 17 21 18 22 19 23 20 26
DOCKED: REMARK SMILES IDX 21 27 28 28 22 29 27 30 23 31 26 32 24 33 25 34
DOCKED: REMARK H PARENT 15 5 4 11 19 24 19 25
DOCKED: USER                              x       y       z     vdW  Elec       q    Type
DOCKED: USER                           _______ _______ _______ _____ _____    ______ ____
DOCKED: ROOT
DOCKED: ATOM      1  C   UNL     1     141.777  74.247 220.167 -0.13 -0.07    +0.281 C  
DOCKED: ATOM      2  C   UNL     1     142.219  72.821 220.612 -0.19 -0.02    +0.139 C  
DOCKED: ATOM      3  C   UNL     1     141.116  71.756 220.423 -0.08 -0.04    +0.277 C  
DOCKED: ATOM      4  N   UNL     1     139.750  72.261 220.687 -0.05 +0.05    -0.270 N  
DOCKED: ATOM      5  H   UNL     1     139.104  71.501 220.366 +0.06 -0.06    +0.356 HD 
DOCKED: ATOM      6  C   UNL     1     139.382  73.479 219.904 -0.03 -0.06    +0.277 C  
DOCKED: ATOM      7  C   UNL     1     140.576  74.168 219.215 -0.05 -0.03    +0.139 C  
DOCKED: ENDROOT
DOCKED: BRANCH   1   8
DOCKED: ATOM      8  N   UNL     1     142.870  75.061 219.568 -0.21 +0.07    -0.162 N  
DOCKED: BRANCH   8   9
DOCKED: ATOM      9  C   UNL     1     144.084  74.566 219.371 -0.14 -0.14    +0.339 C  
DOCKED: BRANCH   9  10
DOCKED: ATOM     10  O   UNL     1     144.522  74.154 218.103 -0.04 +0.14    -0.463 OA 
DOCKED: ATOM     11  H   UNL     1     145.207  74.637 217.535 -0.46 -0.15    +0.299 HD 
DOCKED: ENDBRANCH   9  10
DOCKED: BRANCH   9  12
DOCKED: ATOM     12  C   UNL     1     145.061  74.398 220.523 -0.34 -0.05    +0.150 C  
DOCKED: ATOM     13  C   UNL     1     145.898  73.123 220.421 -0.60 +0.00    +0.019 C  
DOCKED: ENDBRANCH   9  12
DOCKED: ENDBRANCH   8   9
DOCKED: BRANCH   8  14
DOCKED: ATOM     14  C   UNL     1     142.634  76.461 219.300 -0.24 -0.12    +0.208 A  
DOCKED: ATOM     15  C   UNL     1     142.027  77.275 220.269 -0.27 -0.05    +0.079 A  
DOCKED: ATOM     16  C   UNL     1     143.026  77.022 218.073 -0.27 -0.05    +0.079 A  
DOCKED: ATOM     17  C   UNL     1     141.801  78.630 220.006 -0.29 -0.00    +0.007 A  
DOCKED: ATOM     18  C   UNL     1     142.797  78.376 217.814 -0.30 -0.01    +0.007 A  
DOCKED: ATOM     19  C   UNL     1     142.181  79.179 218.779 -0.31 -0.00    +0.000 A  
DOCKED: ENDBRANCH   8  14
DOCKED: ENDBRANCH   1   8
DOCKED: BRANCH   4  20
DOCKED: ATOM     20  C   UNL     1     139.537  72.439 222.116 -0.16 -0.06    +0.329 C  
DOCKED: ATOM     21  O   UNL     1     139.911  73.463 222.673 -0.76 +0.01    -0.229 OA 
DOCKED: BRANCH  20  22
DOCKED: ATOM     22  C   UNL     1     138.871  71.359 222.946 -0.20 -0.04    +0.186 C  
DOCKED: BRANCH  22  23
DOCKED: ATOM     23  N   UNL     1     138.171  70.437 222.045 -0.04 +0.06    -0.316 NA 
DOCKED: ATOM     24  H   UNL     1     138.377  69.448 222.317 +0.03 -0.02    +0.119 HD 
DOCKED: ATOM     25  H   UNL     1     137.138  70.580 222.138 +0.03 -0.02    +0.119 HD 
DOCKED: ENDBRANCH  22  23
DOCKED: BRANCH  22  26
DOCKED: ATOM     26  C   UNL     1     139.918  70.620 223.823 -0.34 -0.00    +0.028 C  
DOCKED: ATOM     27  C   UNL     1     140.445  71.491 224.992 -0.47 -0.01    +0.042 C  
DOCKED: ATOM     28  C   UNL     1     139.365  69.323 224.466 -0.33 -0.01    +0.042 C  
DOCKED: ATOM     29  C   UNL     1     140.525  70.544 226.127 -0.54 +0.01    -0.044 A  
DOCKED: ATOM     30  C   UNL     1     139.934  69.341 225.833 -0.45 +0.01    -0.044 A  
DOCKED: ATOM     31  C   UNL     1     141.081  70.788 227.385 -0.66 -0.00    +0.004 A  
DOCKED: ATOM     32  C   UNL     1     139.869  68.316 226.781 -0.63 -0.00    +0.004 A  
DOCKED: ATOM     33  C   UNL     1     141.032  69.770 228.352 -0.57 -0.00    +0.000 A  
DOCKED: ATOM     34  C   UNL     1     140.428  68.536 228.049 -0.67 -0.00    +0.000 A  
DOCKED: ENDBRANCH  22  26
DOCKED: ENDBRANCH  20  22
DOCKED: ENDBRANCH   4  20
DOCKED: TORSDOF 9
DOCKED: TER
DOCKED: ENDMDL
________________________________________________________________________________


    CLUSTERING HISTOGRAM
    ____________________


________________________________________________________________________________
     |           |     |           |     |
Clus | Lowest    | Run | Mean      | Num | Histogram
-ter | Binding   |     | Binding   | in  |
Rank | Energy    |     | Energy    | Clus|    5    10   15   20   25   30   35
_____|___________|_____|___________|_____|____:____|____:____|____:____|____:___
   1 |     -8.56 |  11 |     -8.34 |   6 |######
   2 |     -7.69 |  20 |     -7.69 |   1 |#
   3 |     -7.28 |  19 |     -7.28 |   1 |#
   4 |     -6.93 |   8 |     -6.81 |   3 |###
   5 |     -6.81 |   7 |     -6.49 |   9 |#########
_____|___________|_____|___________|_____|______________________________________


    RMSD TABLE
    __________


_______________________________________________________________________
     |      |      |           |         |                 |
Rank | Sub- | Run  | Binding   | Cluster | Reference       | Grep
     | Rank |      | Energy    | RMSD    | RMSD            | Pattern
_____|______|______|___________|_________|_________________|___________
   1      1     11       -8.56      0.00    271.13           RANKING
   1      2     13       -8.53      0.27    271.18           RANKING
   1      3      1       -8.39      0.60    271.19           RANKING
   1      4      6       -8.34      0.89    271.09           RANKING
   1      5     18       -8.33      0.92    271.13           RANKING
   1      6     14       -7.90      1.09    270.94           RANKING
   2      1     20       -7.69      0.00    270.45           RANKING
   3      1     19       -7.28      0.00    271.30           RANKING
   4      1      8       -6.93      0.00    270.27           RANKING
   4      2     15       -6.78      1.93    270.65           RANKING
   4      3     10       -6.71      1.53    270.34           RANKING
   5      1      7       -6.81      0.00    269.90           RANKING
   5      2      3       -6.54      1.79    270.52           RANKING
   5      3      9       -6.54      1.79    270.52           RANKING
   5      4      4       -6.53      1.78    270.52           RANKING
   5      5     12       -6.53      1.77    270.51           RANKING
   5      6      2       -6.52      1.79    270.50           RANKING
   5      7     17       -6.49      1.78    270.54           RANKING
   5      8     16       -6.26      1.76    270.52           RANKING
   5      9      5       -6.23      1.74    270.51           RANKING

Run time 0.660 sec
Idle time 0.000 sec
