AutoDock-GPU version: v1.6

**********************************************************
**    AutoDock-GPU AUTODOCKTOOLS-COMPATIBLE DLG FILE    **
**********************************************************


    DOCKING PARAMETERS
    ________________________


Ligand file:                               /home/a/REINVENT4/ReinventStudies/scoringData/graph-dock-34dfml/graph-DockGPU/node-autodockgpu/inputs/MCZRVQBLWAUNOI-GTRIPGICNA-P.pdbqt
Grid fld file:                             /home/a/REINVENT4/ReinventStudies/mols/Rad51/maps/rad51_receptor.maps.fld

Random seed:                               42
Number of runs:                            20
Number of energy evaluations:              2040163
Number of generations:                     42000
Size of population:                        150
Rate of crossover:                         80.000000%
Tournament selection probability limit:    60.000000%
Rate of mutation:                          2.000000%
Maximal allowed delta movement:            +/- 6.000000A
Maximal allowed delta angle:               +/- 90.000000

Rate of local search:                      100.000000%
Maximal number of local search iterations: 300
Rho lower bound:                           0.010000
Spread of local search delta movement:     2.000000A
Spread of local search delta angle:        74.999999
Limit of consecutive successes/failures:   4

Handle symmetry during clustering:         YES
RMSD tolerance:                            2.000000A

Program call in command line was:          /home/a/REINVENT4/ReinventStudies/adgpu-v1.6_linux_x64_cuda12_128wi --filelist batch.txt --heuristics 1 --nrun 20 --psize 150 --lsit 300 --seed 42 --heurmax 12000000 


    GRID PARAMETERS
    ________________________


Receptor name:                             rad51_receptor
Number of grid points (x, y, z):           53, 53, 53
Grid center (x, y, z):                     139.950000, 75.640000, 221.970000A
Grid size (x, y, z):                       19.500000, 19.500000, 19.500000A
Grid spacing:                              0.375000A


    LIGAND PARAMETERS
    ________________________


Ligand name:                               /home/a/REINVENT4/ReinventStudies/scoringData/graph-dock-34dfml/graph-DockGPU/node-autodockgpu/inputs/MCZRVQBLWAUNOI-GTRIPGICNA-P
Number of atoms:                           34
Number of rotatable bonds:                 9
Number of atom types:                      5


    DUMMY DATA (only for ADT-compatibility)
    ________________________


DPF> outlev 1
DPF> ga_run 20
DPF> fld /home/a/REINVENT4/ReinventStudies/mols/Rad51/maps/rad51_receptor.maps.fld
DPF> move /home/a/REINVENT4/ReinventStudies/scoringData/graph-dock-34dfml/graph-DockGPU/node-autodockgpu/inputs/MCZRVQBLWAUNOI-GTRIPGICNA-P.pdbqt


    COUNTER STATES
    ________________________


Number of energy evaluations performed:    865769
Number of generations used:                40


    INPUT LIGAND PDBQT FILE:
    ________________________


INPUT-LIGAND-PDBQT: REMARK SMILES CCC(=O)N(c1ccccc1)C1CC[N+](=C(O)[C@@H]([NH3+])C2Cc3ccccc3C2)CC1
INPUT-LIGAND-PDBQT: REMARK SMILES IDX 12 1 13 2 14 3 15 4 29 5 30 6 5 7 3 8 4 9 2 10 1 11 6 12
INPUT-LIGAND-PDBQT: REMARK SMILES IDX 7 13 11 14 8 15 10 16 9 17 16 18 17 19 18 21 19 22 20 26
INPUT-LIGAND-PDBQT: REMARK SMILES IDX 21 27 28 28 22 29 27 30 23 31 26 32 24 33 25 34
INPUT-LIGAND-PDBQT: REMARK H PARENT 17 20 19 23 19 24 19 25
INPUT-LIGAND-PDBQT: ROOT
INPUT-LIGAND-PDBQT: ATOM      1  C   UNL     1       0.915   0.582  -2.828  1.00  0.00     0.103 C 
INPUT-LIGAND-PDBQT: ATOM      2  C   UNL     1       1.258  -0.573  -1.896  1.00  0.00     0.098 C 
INPUT-LIGAND-PDBQT: ATOM      3  C   UNL     1       0.412  -0.623  -0.623  1.00  0.00     0.356 C 
INPUT-LIGAND-PDBQT: ATOM      4  N   UNL     1      -0.989  -0.153  -0.751  1.00  0.00    -0.197 N 
INPUT-LIGAND-PDBQT: ATOM      5  C   UNL     1      -1.540   0.372  -2.025  1.00  0.00     0.356 C 
INPUT-LIGAND-PDBQT: ATOM      6  C   UNL     1      -0.562   0.532  -3.202  1.00  0.00     0.098 C 
INPUT-LIGAND-PDBQT: ENDROOT
INPUT-LIGAND-PDBQT: BRANCH   1   7
INPUT-LIGAND-PDBQT: ATOM      7  N   UNL     1       1.359   1.907  -2.336  1.00  0.00    -0.309 N 
INPUT-LIGAND-PDBQT: BRANCH   7   8
INPUT-LIGAND-PDBQT: ATOM      8  C   UNL     1       0.878   2.506  -1.121  1.00  0.00     0.226 C 
INPUT-LIGAND-PDBQT: ATOM      9  O   UNL     1       1.528   2.351  -0.053  1.00  0.00    -0.275 OA
INPUT-LIGAND-PDBQT: BRANCH   8  10
INPUT-LIGAND-PDBQT: ATOM     10  C   UNL     1      -0.315   3.414  -1.128  1.00  0.00     0.097 C 
INPUT-LIGAND-PDBQT: ATOM     11  C   UNL     1       0.066   4.832  -0.713  1.00  0.00     0.014 C 
INPUT-LIGAND-PDBQT: ENDBRANCH   8  10
INPUT-LIGAND-PDBQT: ENDBRANCH   7   8
INPUT-LIGAND-PDBQT: BRANCH   7  12
INPUT-LIGAND-PDBQT: ATOM     12  C   UNL     1       2.405   2.597  -3.039  1.00  0.00     0.044 A 
INPUT-LIGAND-PDBQT: ATOM     13  C   UNL     1       2.145   3.828  -3.661  1.00  0.00     0.026 A 
INPUT-LIGAND-PDBQT: ATOM     14  C   UNL     1       3.693   2.044  -3.114  1.00  0.00     0.026 A 
INPUT-LIGAND-PDBQT: ATOM     15  C   UNL     1       3.166   4.506  -4.332  1.00  0.00     0.002 A 
INPUT-LIGAND-PDBQT: ATOM     16  C   UNL     1       4.713   2.724  -3.786  1.00  0.00     0.002 A 
INPUT-LIGAND-PDBQT: ATOM     17  C   UNL     1       4.450   3.956  -4.393  1.00  0.00     0.000 A 
INPUT-LIGAND-PDBQT: ENDBRANCH   7  12
INPUT-LIGAND-PDBQT: ENDBRANCH   1   7
INPUT-LIGAND-PDBQT: BRANCH   4  18
INPUT-LIGAND-PDBQT: ATOM     18  C   UNL     1      -1.787  -0.179   0.311  1.00  0.00     0.394 C 
INPUT-LIGAND-PDBQT: BRANCH  18  19
INPUT-LIGAND-PDBQT: ATOM     19  O   UNL     1      -3.132   0.218   0.231  1.00  0.00    -0.459 OA
INPUT-LIGAND-PDBQT: ATOM     20  H   UNL     1      -3.628   0.443  -0.620  1.00  0.00     0.299 HD
INPUT-LIGAND-PDBQT: ENDBRANCH  18  19
INPUT-LIGAND-PDBQT: BRANCH  18  21
INPUT-LIGAND-PDBQT: ATOM     21  C   UNL     1      -1.325  -0.592   1.712  1.00  0.00     0.322 C 
INPUT-LIGAND-PDBQT: BRANCH  21  22
INPUT-LIGAND-PDBQT: ATOM     22  N   UNL     1      -1.193   0.611   2.546  1.00  0.00    -0.343 N 
INPUT-LIGAND-PDBQT: ATOM     23  H   UNL     1      -0.797   0.371   3.482  1.00  0.00     0.345 HD
INPUT-LIGAND-PDBQT: ATOM     24  H   UNL     1      -0.539   1.287   2.086  1.00  0.00     0.345 HD
INPUT-LIGAND-PDBQT: ATOM     25  H   UNL     1      -2.123   1.075   2.674  1.00  0.00     0.345 HD
INPUT-LIGAND-PDBQT: ENDBRANCH  21  22
INPUT-LIGAND-PDBQT: BRANCH  21  26
INPUT-LIGAND-PDBQT: ATOM     26  C   UNL     1      -2.332  -1.597   2.339  1.00  0.00     0.071 C 
INPUT-LIGAND-PDBQT: ATOM     27  C   UNL     1      -1.888  -2.127   3.728  1.00  0.00     0.046 C 
INPUT-LIGAND-PDBQT: ATOM     28  C   UNL     1      -2.553  -2.851   1.453  1.00  0.00     0.046 C 
INPUT-LIGAND-PDBQT: ATOM     29  C   UNL     1      -2.259  -3.561   3.689  1.00  0.00    -0.044 A 
INPUT-LIGAND-PDBQT: ATOM     30  C   UNL     1      -2.625  -3.962   2.429  1.00  0.00    -0.044 A 
INPUT-LIGAND-PDBQT: ATOM     31  C   UNL     1      -2.239  -4.462   4.757  1.00  0.00     0.004 A 
INPUT-LIGAND-PDBQT: ATOM     32  C   UNL     1      -2.994  -5.285   2.170  1.00  0.00     0.004 A 
INPUT-LIGAND-PDBQT: ATOM     33  C   UNL     1      -2.613  -5.794   4.522  1.00  0.00     0.000 A 
INPUT-LIGAND-PDBQT: ATOM     34  C   UNL     1      -2.989  -6.205   3.229  1.00  0.00     0.000 A 
INPUT-LIGAND-PDBQT: ENDBRANCH  21  26
INPUT-LIGAND-PDBQT: ENDBRANCH  18  21
INPUT-LIGAND-PDBQT: ENDBRANCH   4  18
INPUT-LIGAND-PDBQT: TORSDOF 9


    FINAL DOCKED STATE:
    ________________________


Run:   1 / 20
Time taken for this run:   0.044s

DOCKED: MODEL        1
DOCKED: USER    Run = 1
DOCKED: USER
DOCKED: USER    Estimated Free Energy of Binding    =  -7.98 kcal/mol  [=(1)+(2)+(3)-(4)]
DOCKED: USER
DOCKED: USER    (1) Final Intermolecular Energy     = -10.67 kcal/mol
DOCKED: USER        vdW + Hbond + desolv Energy     =  -8.91 kcal/mol
DOCKED: USER        Electrostatic Energy            =  -1.75 kcal/mol
DOCKED: USER        Moving Ligand-Fixed Receptor    = -10.67 kcal/mol
DOCKED: USER        Moving Ligand-Moving Receptor   =  +0.00 kcal/mol
DOCKED: USER    (2) Final Total Internal Energy     =  -2.66 kcal/mol
DOCKED: USER    (3) Torsional Free Energy           =  +2.68 kcal/mol
DOCKED: USER    (4) Unbound System's Energy         =  -2.66 kcal/mol
DOCKED: USER
DOCKED: USER
DOCKED: REMARK SMILES CCC(=O)N(c1ccccc1)C1CC[N+](=C(O)[C@@H]([NH3+])C2Cc3ccccc3C2)CC1
DOCKED: REMARK SMILES IDX 12 1 13 2 14 3 15 4 29 5 30 6 5 7 3 8 4 9 2 10 1 11 6 12
DOCKED: REMARK SMILES IDX 7 13 11 14 8 15 10 16 9 17 16 18 17 19 18 21 19 22 20 26
DOCKED: REMARK SMILES IDX 21 27 28 28 22 29 27 30 23 31 26 32 24 33 25 34
DOCKED: REMARK H PARENT 17 20 19 23 19 24 19 25
DOCKED: USER                              x       y       z     vdW  Elec       q    Type
DOCKED: USER                           _______ _______ _______ _____ _____    ______ ____
DOCKED: ROOT
DOCKED: ATOM      1  C   UNL     1     140.462  73.893 219.043 -0.04 -0.02    +0.103 C  
DOCKED: ATOM      2  C   UNL     1     139.354  74.890 218.724 -0.02 -0.02    +0.098 C  
DOCKED: ATOM      3  C   UNL     1     139.855  76.291 218.370 +0.00 -0.10    +0.356 C  
DOCKED: ATOM      4  N   UNL     1     141.154  76.359 217.657 -0.03 +0.08    -0.197 N  
DOCKED: ATOM      5  C   UNL     1     141.949  75.149 217.332 -0.01 -0.12    +0.356 C  
DOCKED: ATOM      6  C   UNL     1     141.437  73.804 217.875 -0.02 -0.02    +0.098 C  
DOCKED: ENDROOT
DOCKED: BRANCH   1   7
DOCKED: ATOM      7  N   UNL     1     141.120  74.120 220.351 -0.08 +0.07    -0.309 N  
DOCKED: BRANCH   7   8
DOCKED: ATOM      8  C   UNL     1     140.403  74.426 221.559 -0.22 -0.03    +0.226 C  
DOCKED: ATOM      9  O   UNL     1     140.090  73.494 222.347 -0.81 +0.02    -0.275 OA 
DOCKED: BRANCH   8  10
DOCKED: ATOM     10  C   UNL     1     140.132  75.845 221.957 -0.32 -0.02    +0.097 C  
DOCKED: ATOM     11  C   UNL     1     138.667  76.044 222.335 -0.31 -0.00    +0.014 C  
DOCKED: ENDBRANCH   8  10
DOCKED: ENDBRANCH   7   8
DOCKED: BRANCH   7  12
DOCKED: ATOM     12  C   UNL     1     142.539  73.922 220.461 -0.27 -0.01    +0.044 A  
DOCKED: ATOM     13  C   UNL     1     143.415  75.012 220.341 -0.31 -0.01    +0.026 A  
DOCKED: ATOM     14  C   UNL     1     143.060  72.638 220.684 -0.28 -0.00    +0.026 A  
DOCKED: ATOM     15  C   UNL     1     144.794  74.822 220.463 -0.40 -0.00    +0.002 A  
DOCKED: ATOM     16  C   UNL     1     144.440  72.450 220.805 -0.40 -0.00    +0.002 A  
DOCKED: ATOM     17  C   UNL     1     145.307  73.542 220.697 -0.61 -0.00    +0.000 A  
DOCKED: ENDBRANCH   7  12
DOCKED: ENDBRANCH   1   7
DOCKED: BRANCH   4  18
DOCKED: ATOM     18  C   UNL     1     141.646  77.543 217.307 -0.06 -0.22    +0.394 C  
DOCKED: BRANCH  18  19
DOCKED: ATOM     19  O   UNL     1     141.481  78.053 216.009 -0.03 +0.28    -0.459 OA 
DOCKED: ATOM     20  H   UNL     1     141.364  77.501 215.171 +0.04 -0.15    +0.299 HD 
DOCKED: ENDBRANCH  18  19
DOCKED: BRANCH  18  21
DOCKED: ATOM     21  C   UNL     1     142.464  78.435 218.245 -0.18 -0.25    +0.322 C  
DOCKED: BRANCH  21  22
DOCKED: ATOM     22  N   UNL     1     142.950  79.601 217.493 -0.04 +0.45    -0.343 N  
DOCKED: ATOM     23  H   UNL     1     143.877  79.916 217.857 -0.36 -0.61    +0.345 HD 
DOCKED: ATOM     24  H   UNL     1     143.073  79.343 216.486 -0.42 -0.67    +0.345 HD 
DOCKED: ATOM     25  H   UNL     1     142.267  80.392 217.558 +0.08 -0.31    +0.345 HD 
DOCKED: ENDBRANCH  21  22
DOCKED: BRANCH  21  26
DOCKED: ATOM     26  C   UNL     1     141.602  78.876 219.461 -0.24 -0.04    +0.071 C  
DOCKED: ATOM     27  C   UNL     1     141.882  80.332 219.918 -0.28 -0.02    +0.046 C  
DOCKED: ATOM     28  C   UNL     1     141.829  77.984 220.709 -0.30 -0.03    +0.046 C  
DOCKED: ATOM     29  C   UNL     1     141.847  80.246 221.397 -0.39 +0.02    -0.044 A  
DOCKED: ATOM     30  C   UNL     1     141.820  78.946 221.835 -0.42 +0.02    -0.044 A  
DOCKED: ATOM     31  C   UNL     1     141.862  81.312 222.300 -0.49 -0.00    +0.004 A  
DOCKED: ATOM     32  C   UNL     1     141.803  78.642 223.199 -0.57 -0.00    +0.004 A  
DOCKED: ATOM     33  C   UNL     1     141.839  81.031 223.675 -0.60 -0.00    +0.000 A  
DOCKED: ATOM     34  C   UNL     1     141.810  79.697 224.123 -0.51 -0.00    +0.000 A  
DOCKED: ENDBRANCH  21  26
DOCKED: ENDBRANCH  18  21
DOCKED: ENDBRANCH   4  18
DOCKED: TORSDOF 9
DOCKED: TER
DOCKED: ENDMDL
________________________________________________________________________________


    FINAL DOCKED STATE:
    ________________________


Run:   2 / 20
Time taken for this run:   0.044s

DOCKED: MODEL        2
DOCKED: USER    Run = 2
DOCKED: USER
DOCKED: USER    Estimated Free Energy of Binding    =  -7.90 kcal/mol  [=(1)+(2)+(3)-(4)]
DOCKED: USER
DOCKED: USER    (1) Final Intermolecular Energy     = -10.59 kcal/mol
DOCKED: USER        vdW + Hbond + desolv Energy     =  -8.80 kcal/mol
DOCKED: USER        Electrostatic Energy            =  -1.78 kcal/mol
DOCKED: USER        Moving Ligand-Fixed Receptor    = -10.59 kcal/mol
DOCKED: USER        Moving Ligand-Moving Receptor   =  +0.00 kcal/mol
DOCKED: USER    (2) Final Total Internal Energy     =  -2.58 kcal/mol
DOCKED: USER    (3) Torsional Free Energy           =  +2.68 kcal/mol
DOCKED: USER    (4) Unbound System's Energy         =  -2.58 kcal/mol
DOCKED: USER
DOCKED: USER
DOCKED: REMARK SMILES CCC(=O)N(c1ccccc1)C1CC[N+](=C(O)[C@@H]([NH3+])C2Cc3ccccc3C2)CC1
DOCKED: REMARK SMILES IDX 12 1 13 2 14 3 15 4 29 5 30 6 5 7 3 8 4 9 2 10 1 11 6 12
DOCKED: REMARK SMILES IDX 7 13 11 14 8 15 10 16 9 17 16 18 17 19 18 21 19 22 20 26
DOCKED: REMARK SMILES IDX 21 27 28 28 22 29 27 30 23 31 26 32 24 33 25 34
DOCKED: REMARK H PARENT 17 20 19 23 19 24 19 25
DOCKED: USER                              x       y       z     vdW  Elec       q    Type
DOCKED: USER                           _______ _______ _______ _____ _____    ______ ____
DOCKED: ROOT
DOCKED: ATOM      1  C   UNL     1     140.732  73.788 218.885 -0.04 -0.02    +0.103 C  
DOCKED: ATOM      2  C   UNL     1     139.529  74.667 218.566 -0.02 -0.02    +0.098 C  
DOCKED: ATOM      3  C   UNL     1     139.879  76.128 218.283 +0.00 -0.10    +0.356 C  
DOCKED: ATOM      4  N   UNL     1     141.183  76.371 217.618 -0.03 +0.08    -0.197 N  
DOCKED: ATOM      5  C   UNL     1     142.119  75.271 217.276 -0.02 -0.13    +0.356 C  
DOCKED: ATOM      6  C   UNL     1     141.746  73.856 217.749 -0.03 -0.02    +0.098 C  
DOCKED: ENDROOT
DOCKED: BRANCH   1   7
DOCKED: ATOM      7  N   UNL     1     141.321  74.032 220.223 -0.07 +0.07    -0.309 N  
DOCKED: BRANCH   7   8
DOCKED: ATOM      8  C   UNL     1     140.540  74.329 221.393 -0.21 -0.03    +0.226 C  
DOCKED: ATOM      9  O   UNL     1     140.368  73.438 222.266 -0.77 +0.01    -0.275 OA 
DOCKED: BRANCH   8  10
DOCKED: ATOM     10  C   UNL     1     140.033  75.716 221.650 -0.30 -0.02    +0.097 C  
DOCKED: ATOM     11  C   UNL     1     138.551  75.705 222.014 -0.28 -0.00    +0.014 C  
DOCKED: ENDBRANCH   8  10
DOCKED: ENDBRANCH   7   8
DOCKED: BRANCH   7  12
DOCKED: ATOM     12  C   UNL     1     142.736  73.862 220.403 -0.28 -0.01    +0.044 A  
DOCKED: ATOM     13  C   UNL     1     143.266  72.589 220.668 -0.29 -0.00    +0.026 A  
DOCKED: ATOM     14  C   UNL     1     143.599  74.965 220.321 -0.33 -0.01    +0.026 A  
DOCKED: ATOM     15  C   UNL     1     144.643  72.421 220.829 -0.40 -0.00    +0.002 A  
DOCKED: ATOM     16  C   UNL     1     144.977  74.795 220.482 -0.35 -0.00    +0.002 A  
DOCKED: ATOM     17  C   UNL     1     145.499  73.522 220.734 -0.64 -0.00    +0.000 A  
DOCKED: ENDBRANCH   7  12
DOCKED: ENDBRANCH   1   7
DOCKED: BRANCH   4  18
DOCKED: ATOM     18  C   UNL     1     141.548  77.615 217.330 -0.06 -0.21    +0.394 C  
DOCKED: BRANCH  18  19
DOCKED: ATOM     19  O   UNL     1     141.177  78.230 216.123 -0.02 +0.26    -0.459 OA 
DOCKED: ATOM     20  H   UNL     1     141.041  77.758 215.241 +0.03 -0.15    +0.299 HD 
DOCKED: ENDBRANCH  18  19
DOCKED: BRANCH  18  21
DOCKED: ATOM     21  C   UNL     1     142.430  78.475 218.241 -0.18 -0.25    +0.322 C  
DOCKED: BRANCH  21  22
DOCKED: ATOM     22  N   UNL     1     142.945  79.615 217.470 -0.03 +0.46    -0.343 N  
DOCKED: ATOM     23  H   UNL     1     143.913  79.861 217.774 -0.38 -0.65    +0.345 HD 
DOCKED: ATOM     24  H   UNL     1     142.984  79.364 216.454 -0.42 -0.63    +0.345 HD 
DOCKED: ATOM     25  H   UNL     1     142.325  80.451 217.587 +0.08 -0.31    +0.345 HD 
DOCKED: ENDBRANCH  21  22
DOCKED: BRANCH  21  26
DOCKED: ATOM     26  C   UNL     1     141.621  78.959 219.477 -0.24 -0.04    +0.071 C  
DOCKED: ATOM     27  C   UNL     1     142.049  80.362 219.982 -0.23 -0.02    +0.046 C  
DOCKED: ATOM     28  C   UNL     1     141.762  78.005 220.692 -0.30 -0.03    +0.046 C  
DOCKED: ATOM     29  C   UNL     1     142.010  80.228 221.457 -0.40 +0.02    -0.044 A  
DOCKED: ATOM     30  C   UNL     1     141.854  78.923 221.850 -0.42 +0.02    -0.044 A  
DOCKED: ATOM     31  C   UNL     1     142.137  81.256 222.396 -0.49 -0.00    +0.004 A  
DOCKED: ATOM     32  C   UNL     1     141.812  78.576 223.203 -0.55 -0.00    +0.004 A  
DOCKED: ATOM     33  C   UNL     1     142.090  80.931 223.760 -0.63 -0.00    +0.000 A  
DOCKED: ATOM     34  C   UNL     1     141.929  79.592 224.163 -0.51 -0.00    +0.000 A  
DOCKED: ENDBRANCH  21  26
DOCKED: ENDBRANCH  18  21
DOCKED: ENDBRANCH   4  18
DOCKED: TORSDOF 9
DOCKED: TER
DOCKED: ENDMDL
________________________________________________________________________________


    FINAL DOCKED STATE:
    ________________________


Run:   3 / 20
Time taken for this run:   0.044s

DOCKED: MODEL        3
DOCKED: USER    Run = 3
DOCKED: USER
DOCKED: USER    Estimated Free Energy of Binding    =  -7.83 kcal/mol  [=(1)+(2)+(3)-(4)]
DOCKED: USER
DOCKED: USER    (1) Final Intermolecular Energy     = -10.51 kcal/mol
DOCKED: USER        vdW + Hbond + desolv Energy     =  -8.52 kcal/mol
DOCKED: USER        Electrostatic Energy            =  -1.99 kcal/mol
DOCKED: USER        Moving Ligand-Fixed Receptor    = -10.51 kcal/mol
DOCKED: USER        Moving Ligand-Moving Receptor   =  +0.00 kcal/mol
DOCKED: USER    (2) Final Total Internal Energy     =  -2.56 kcal/mol
DOCKED: USER    (3) Torsional Free Energy           =  +2.68 kcal/mol
DOCKED: USER    (4) Unbound System's Energy         =  -2.56 kcal/mol
DOCKED: USER
DOCKED: USER
DOCKED: REMARK SMILES CCC(=O)N(c1ccccc1)C1CC[N+](=C(O)[C@@H]([NH3+])C2Cc3ccccc3C2)CC1
DOCKED: REMARK SMILES IDX 12 1 13 2 14 3 15 4 29 5 30 6 5 7 3 8 4 9 2 10 1 11 6 12
DOCKED: REMARK SMILES IDX 7 13 11 14 8 15 10 16 9 17 16 18 17 19 18 21 19 22 20 26
DOCKED: REMARK SMILES IDX 21 27 28 28 22 29 27 30 23 31 26 32 24 33 25 34
DOCKED: REMARK H PARENT 17 20 19 23 19 24 19 25
DOCKED: USER                              x       y       z     vdW  Elec       q    Type
DOCKED: USER                           _______ _______ _______ _____ _____    ______ ____
DOCKED: ROOT
DOCKED: ATOM      1  C   UNL     1     139.094  81.210 221.214 -0.13 -0.02    +0.103 C  
DOCKED: ATOM      2  C   UNL     1     140.133  82.267 220.865 -0.21 -0.02    +0.098 C  
DOCKED: ATOM      3  C   UNL     1     141.278  81.756 219.988 -0.14 -0.11    +0.356 C  
DOCKED: ATOM      4  N   UNL     1     140.929  80.696 219.011 -0.11 +0.08    -0.197 N  
DOCKED: ATOM      5  C   UNL     1     139.561  80.130 218.905 -0.01 -0.11    +0.356 C  
DOCKED: ATOM      6  C   UNL     1     138.523  80.596 219.940 -0.05 -0.02    +0.098 C  
DOCKED: ENDROOT
DOCKED: BRANCH   1   7
DOCKED: ATOM      7  N   UNL     1     139.562  80.206 222.199 -0.09 +0.06    -0.309 N  
DOCKED: BRANCH   7   8
DOCKED: ATOM      8  C   UNL     1     138.790  79.059 222.592 -0.19 -0.04    +0.226 C  
DOCKED: ATOM      9  O   UNL     1     137.741  79.219 223.271 -0.17 +0.04    -0.275 OA 
DOCKED: BRANCH   8  10
DOCKED: ATOM     10  C   UNL     1     139.144  77.687 222.103 -0.25 -0.02    +0.097 C  
DOCKED: ATOM     11  C   UNL     1     138.198  76.634 222.674 -0.29 -0.00    +0.014 C  
DOCKED: ENDBRANCH   8  10
DOCKED: ENDBRANCH   7   8
DOCKED: BRANCH   7  12
DOCKED: ATOM     12  C   UNL     1     140.897  80.309 222.718 -0.41 -0.01    +0.044 A  
DOCKED: ATOM     13  C   UNL     1     141.905  79.451 222.251 -0.49 -0.01    +0.026 A  
DOCKED: ATOM     14  C   UNL     1     141.204  81.264 223.700 -0.45 -0.00    +0.026 A  
DOCKED: ATOM     15  C   UNL     1     143.207  79.561 222.745 -0.44 -0.00    +0.002 A  
DOCKED: ATOM     16  C   UNL     1     142.508  81.372 224.194 -0.61 -0.00    +0.002 A  
DOCKED: ATOM     17  C   UNL     1     143.510  80.522 223.715 -0.55 -0.00    +0.000 A  
DOCKED: ENDBRANCH   7  12
DOCKED: ENDBRANCH   1   7
DOCKED: BRANCH   4  18
DOCKED: ATOM     18  C   UNL     1     141.870  80.212 218.208 -0.14 -0.26    +0.394 C  
DOCKED: BRANCH  18  19
DOCKED: ATOM     19  O   UNL     1     142.819  81.049 217.598 -0.18 +0.47    -0.459 OA 
DOCKED: ATOM     20  H   UNL     1     143.748  80.773 217.313 -0.38 -0.60    +0.299 HD 
DOCKED: ENDBRANCH  18  19
DOCKED: BRANCH  18  21
DOCKED: ATOM     21  C   UNL     1     141.990  78.731 217.834 -0.15 -0.23    +0.322 C  
DOCKED: BRANCH  21  22
DOCKED: ATOM     22  N   UNL     1     142.971  78.590 216.749 +0.07 +0.45    -0.343 N  
DOCKED: ATOM     23  H   UNL     1     142.752  77.757 216.158 +0.05 -0.32    +0.345 HD 
DOCKED: ATOM     24  H   UNL     1     142.938  79.436 216.134 -0.39 -0.64    +0.345 HD 
DOCKED: ATOM     25  H   UNL     1     143.939  78.492 217.137 -0.32 -0.60    +0.345 HD 
DOCKED: ENDBRANCH  21  22
DOCKED: BRANCH  21  26
DOCKED: ATOM     26  C   UNL     1     142.406  77.893 219.075 -0.24 -0.05    +0.071 C  
DOCKED: ATOM     27  C   UNL     1     143.372  76.727 218.734 -0.27 -0.03    +0.046 C  
DOCKED: ATOM     28  C   UNL     1     141.193  77.247 219.794 -0.21 -0.02    +0.046 C  
DOCKED: ATOM     29  C   UNL     1     142.890  75.615 219.587 -0.33 +0.02    -0.044 A  
DOCKED: ATOM     30  C   UNL     1     141.683  75.902 220.172 -0.25 +0.02    -0.044 A  
DOCKED: ATOM     31  C   UNL     1     143.521  74.386 219.798 -0.35 -0.00    +0.004 A  
DOCKED: ATOM     32  C   UNL     1     141.043  74.977 221.001 -0.30 -0.00    +0.004 A  
DOCKED: ATOM     33  C   UNL     1     142.901  73.444 220.633 -0.29 -0.00    +0.000 A  
DOCKED: ATOM     34  C   UNL     1     141.662  73.740 221.234 -0.26 -0.00    +0.000 A  
DOCKED: ENDBRANCH  21  26
DOCKED: ENDBRANCH  18  21
DOCKED: ENDBRANCH   4  18
DOCKED: TORSDOF 9
DOCKED: TER
DOCKED: ENDMDL
________________________________________________________________________________


    FINAL DOCKED STATE:
    ________________________


Run:   4 / 20
Time taken for this run:   0.044s

DOCKED: MODEL        4
DOCKED: USER    Run = 4
DOCKED: USER
DOCKED: USER    Estimated Free Energy of Binding    =  -7.30 kcal/mol  [=(1)+(2)+(3)-(4)]
DOCKED: USER
DOCKED: USER    (1) Final Intermolecular Energy     =  -9.98 kcal/mol
DOCKED: USER        vdW + Hbond + desolv Energy     =  -7.76 kcal/mol
DOCKED: USER        Electrostatic Energy            =  -2.22 kcal/mol
DOCKED: USER        Moving Ligand-Fixed Receptor    =  -9.98 kcal/mol
DOCKED: USER        Moving Ligand-Moving Receptor   =  +0.00 kcal/mol
DOCKED: USER    (2) Final Total Internal Energy     =  -3.06 kcal/mol
DOCKED: USER    (3) Torsional Free Energy           =  +2.68 kcal/mol
DOCKED: USER    (4) Unbound System's Energy         =  -3.06 kcal/mol
DOCKED: USER
DOCKED: USER
DOCKED: REMARK SMILES CCC(=O)N(c1ccccc1)C1CC[N+](=C(O)[C@@H]([NH3+])C2Cc3ccccc3C2)CC1
DOCKED: REMARK SMILES IDX 12 1 13 2 14 3 15 4 29 5 30 6 5 7 3 8 4 9 2 10 1 11 6 12
DOCKED: REMARK SMILES IDX 7 13 11 14 8 15 10 16 9 17 16 18 17 19 18 21 19 22 20 26
DOCKED: REMARK SMILES IDX 21 27 28 28 22 29 27 30 23 31 26 32 24 33 25 34
DOCKED: REMARK H PARENT 17 20 19 23 19 24 19 25
DOCKED: USER                              x       y       z     vdW  Elec       q    Type
DOCKED: USER                           _______ _______ _______ _____ _____    ______ ____
DOCKED: ROOT
DOCKED: ATOM      1  C   UNL     1     139.499  81.799 220.641 -0.13 -0.02    +0.103 C  
DOCKED: ATOM      2  C   UNL     1     140.754  82.603 220.325 -0.23 -0.02    +0.098 C  
DOCKED: ATOM      3  C   UNL     1     141.710  81.914 219.351 -0.06 -0.13    +0.356 C  
DOCKED: ATOM      4  N   UNL     1     141.082  81.065 218.309 -0.10 +0.09    -0.197 N  
DOCKED: ATOM      5  C   UNL     1     139.614  80.858 218.229 -0.01 -0.11    +0.356 C  
DOCKED: ATOM      6  C   UNL     1     138.755  81.463 219.353 -0.05 -0.02    +0.098 C  
DOCKED: ENDROOT
DOCKED: BRANCH   1   7
DOCKED: ATOM      7  N   UNL     1     139.736  80.626 221.514 -0.06 +0.07    -0.309 N  
DOCKED: BRANCH   7   8
DOCKED: ATOM      8  C   UNL     1     138.890  79.464 221.532 -0.10 -0.05    +0.226 C  
DOCKED: ATOM      9  O   UNL     1     138.552  78.925 220.445 -0.03 +0.06    -0.275 OA 
DOCKED: BRANCH   8  10
DOCKED: ATOM     10  C   UNL     1     138.505  78.811 222.825 -0.24 -0.02    +0.097 C  
DOCKED: ATOM     11  C   UNL     1     138.448  77.293 222.683 -0.29 -0.00    +0.014 C  
DOCKED: ENDBRANCH   8  10
DOCKED: ENDBRANCH   7   8
DOCKED: BRANCH   7  12
DOCKED: ATOM     12  C   UNL     1     140.930  80.581 222.312 -0.38 -0.01    +0.044 A  
DOCKED: ATOM     13  C   UNL     1     141.926  79.630 222.040 -0.47 -0.01    +0.026 A  
DOCKED: ATOM     14  C   UNL     1     141.109  81.484 223.372 -0.36 -0.00    +0.026 A  
DOCKED: ATOM     15  C   UNL     1     143.094  79.596 222.807 -0.51 -0.00    +0.002 A  
DOCKED: ATOM     16  C   UNL     1     142.277  81.449 224.138 -0.59 -0.00    +0.002 A  
DOCKED: ATOM     17  C   UNL     1     143.271  80.506 223.854 -0.63 -0.00    +0.000 A  
DOCKED: ENDBRANCH   7  12
DOCKED: ENDBRANCH   1   7
DOCKED: BRANCH   4  18
DOCKED: ATOM     18  C   UNL     1     141.850  80.445 217.420 -0.12 -0.30    +0.394 C  
DOCKED: BRANCH  18  19
DOCKED: ATOM     19  O   UNL     1     142.627  81.159 216.494 -0.06 +0.55    -0.459 OA 
DOCKED: ATOM     20  H   UNL     1     143.614  81.020 216.324 -0.38 -0.76    +0.299 HD 
DOCKED: ENDBRANCH  18  19
DOCKED: BRANCH  18  21
DOCKED: ATOM     21  C   UNL     1     141.933  78.921 217.284 -0.13 -0.25    +0.322 C  
DOCKED: BRANCH  21  22
DOCKED: ATOM     22  N   UNL     1     142.951  78.586 216.278 +0.21 +0.48    -0.343 N  
DOCKED: ATOM     23  H   UNL     1     142.952  79.287 215.504 -0.31 -0.62    +0.345 HD 
DOCKED: ATOM     24  H   UNL     1     143.899  78.597 216.721 -0.34 -0.76    +0.345 HD 
DOCKED: ATOM     25  H   UNL     1     142.776  77.633 215.880 +0.05 -0.31    +0.345 HD 
DOCKED: ENDBRANCH  21  22
DOCKED: BRANCH  21  26
DOCKED: ATOM     26  C   UNL     1     142.271  78.273 218.656 -0.27 -0.05    +0.071 C  
DOCKED: ATOM     27  C   UNL     1     143.272  77.092 218.549 -0.24 -0.03    +0.046 C  
DOCKED: ATOM     28  C   UNL     1     141.017  77.708 219.374 -0.17 -0.02    +0.046 C  
DOCKED: ATOM     29  C   UNL     1     142.745  76.100 219.515 -0.33 +0.02    -0.044 A  
DOCKED: ATOM     30  C   UNL     1     141.496  76.440 219.970 -0.22 +0.02    -0.044 A  
DOCKED: ATOM     31  C   UNL     1     143.374  74.926 219.939 -0.38 -0.00    +0.004 A  
DOCKED: ATOM     32  C   UNL     1     140.810  75.626 220.876 -0.28 -0.00    +0.004 A  
DOCKED: ATOM     33  C   UNL     1     142.708  74.098 220.855 -0.27 -0.00    +0.000 A  
DOCKED: ATOM     34  C   UNL     1     141.426  74.447 221.322 -0.28 -0.00    +0.000 A  
DOCKED: ENDBRANCH  21  26
DOCKED: ENDBRANCH  18  21
DOCKED: ENDBRANCH   4  18
DOCKED: TORSDOF 9
DOCKED: TER
DOCKED: ENDMDL
________________________________________________________________________________


    FINAL DOCKED STATE:
    ________________________


Run:   5 / 20
Time taken for this run:   0.044s

DOCKED: MODEL        5
DOCKED: USER    Run = 5
DOCKED: USER
DOCKED: USER    Estimated Free Energy of Binding    =  -7.33 kcal/mol  [=(1)+(2)+(3)-(4)]
DOCKED: USER
DOCKED: USER    (1) Final Intermolecular Energy     = -10.02 kcal/mol
DOCKED: USER        vdW + Hbond + desolv Energy     =  -8.29 kcal/mol
DOCKED: USER        Electrostatic Energy            =  -1.73 kcal/mol
DOCKED: USER        Moving Ligand-Fixed Receptor    = -10.02 kcal/mol
DOCKED: USER        Moving Ligand-Moving Receptor   =  +0.00 kcal/mol
DOCKED: USER    (2) Final Total Internal Energy     =  -2.88 kcal/mol
DOCKED: USER    (3) Torsional Free Energy           =  +2.68 kcal/mol
DOCKED: USER    (4) Unbound System's Energy         =  -2.88 kcal/mol
DOCKED: USER
DOCKED: USER
DOCKED: REMARK SMILES CCC(=O)N(c1ccccc1)C1CC[N+](=C(O)[C@@H]([NH3+])C2Cc3ccccc3C2)CC1
DOCKED: REMARK SMILES IDX 12 1 13 2 14 3 15 4 29 5 30 6 5 7 3 8 4 9 2 10 1 11 6 12
DOCKED: REMARK SMILES IDX 7 13 11 14 8 15 10 16 9 17 16 18 17 19 18 21 19 22 20 26
DOCKED: REMARK SMILES IDX 21 27 28 28 22 29 27 30 23 31 26 32 24 33 25 34
DOCKED: REMARK H PARENT 17 20 19 23 19 24 19 25
DOCKED: USER                              x       y       z     vdW  Elec       q    Type
DOCKED: USER                           _______ _______ _______ _____ _____    ______ ____
DOCKED: ROOT
DOCKED: ATOM      1  C   UNL     1     142.738  73.878 218.135 -0.08 -0.03    +0.103 C  
DOCKED: ATOM      2  C   UNL     1     141.342  74.251 217.653 -0.03 -0.03    +0.098 C  
DOCKED: ATOM      3  C   UNL     1     141.088  75.757 217.573 -0.00 -0.12    +0.356 C  
DOCKED: ATOM      4  N   UNL     1     142.255  76.597 217.211 -0.10 +0.10    -0.197 N  
DOCKED: ATOM      5  C   UNL     1     143.605  76.027 216.974 -0.11 -0.21    +0.356 C  
DOCKED: ATOM      6  C   UNL     1     143.790  74.523 217.240 -0.13 -0.03    +0.098 C  
DOCKED: ENDROOT
DOCKED: BRANCH   1   7
DOCKED: ATOM      7  N   UNL     1     142.961  74.116 219.580 -0.10 +0.09    -0.309 N  
DOCKED: BRANCH   7   8
DOCKED: ATOM      8  C   UNL     1     144.101  74.818 220.104 -0.30 -0.11    +0.226 C  
DOCKED: ATOM      9  O   UNL     1     144.127  76.077 220.062 -0.35 +0.21    -0.275 OA 
DOCKED: BRANCH   8  10
DOCKED: ATOM     10  C   UNL     1     145.202  74.085 220.810 -0.48 -0.03    +0.097 C  
DOCKED: ATOM     11  C   UNL     1     145.530  72.770 220.109 -0.51 +0.00    +0.014 C  
DOCKED: ENDBRANCH   8  10
DOCKED: ENDBRANCH   7   8
DOCKED: BRANCH   7  12
DOCKED: ATOM     12  C   UNL     1     141.943  73.727 220.516 -0.23 -0.01    +0.044 A  
DOCKED: ATOM     13  C   UNL     1     141.861  72.397 220.958 -0.23 -0.00    +0.026 A  
DOCKED: ATOM     14  C   UNL     1     141.019  74.671 220.992 -0.28 -0.01    +0.026 A  
DOCKED: ATOM     15  C   UNL     1     140.880  72.022 221.880 -0.28 -0.00    +0.002 A  
DOCKED: ATOM     16  C   UNL     1     140.039  74.293 221.914 -0.26 -0.00    +0.002 A  
DOCKED: ATOM     17  C   UNL     1     139.970  72.970 222.359 -0.30 -0.00    +0.000 A  
DOCKED: ENDBRANCH   7  12
DOCKED: ENDBRANCH   1   7
DOCKED: BRANCH   4  18
DOCKED: ATOM     18  C   UNL     1     142.107  77.914 217.110 -0.11 -0.28    +0.394 C  
DOCKED: BRANCH  18  19
DOCKED: ATOM     19  O   UNL     1     141.430  78.497 216.026 -0.03 +0.30    -0.459 OA 
DOCKED: ATOM     20  H   UNL     1     140.705  78.054 215.479 +0.03 -0.14    +0.299 HD 
DOCKED: ENDBRANCH  18  19
DOCKED: BRANCH  18  21
DOCKED: ATOM     21  C   UNL     1     142.682  78.914 218.117 -0.15 -0.30    +0.322 C  
DOCKED: BRANCH  21  22
DOCKED: ATOM     22  N   UNL     1     142.958  80.182 217.428 +0.04 +0.47    -0.343 N  
DOCKED: ATOM     23  H   UNL     1     142.289  80.923 217.734 +0.11 -0.28    +0.345 HD 
DOCKED: ATOM     24  H   UNL     1     143.925  80.508 217.664 -0.33 -0.66    +0.345 HD 
DOCKED: ATOM     25  H   UNL     1     142.887  80.061 216.390 -0.40 -0.63    +0.345 HD 
DOCKED: ENDBRANCH  21  22
DOCKED: BRANCH  21  26
DOCKED: ATOM     26  C   UNL     1     141.691  79.125 219.297 -0.25 -0.04    +0.071 C  
DOCKED: ATOM     27  C   UNL     1     141.910  80.462 220.052 -0.28 -0.02    +0.046 C  
DOCKED: ATOM     28  C   UNL     1     141.792  78.007 220.367 -0.29 -0.03    +0.046 C  
DOCKED: ATOM     29  C   UNL     1     141.718  80.095 221.475 -0.39 +0.02    -0.044 A  
DOCKED: ATOM     30  C   UNL     1     141.655  78.735 221.649 -0.38 +0.02    -0.044 A  
DOCKED: ATOM     31  C   UNL     1     141.628  80.968 222.562 -0.51 -0.00    +0.004 A  
DOCKED: ATOM     32  C   UNL     1     141.495  78.176 222.920 -0.47 -0.00    +0.004 A  
DOCKED: ATOM     33  C   UNL     1     141.460  80.429 223.847 -0.55 -0.00    +0.000 A  
DOCKED: ATOM     34  C   UNL     1     141.395  79.034 224.025 -0.57 -0.00    +0.000 A  
DOCKED: ENDBRANCH  21  26
DOCKED: ENDBRANCH  18  21
DOCKED: ENDBRANCH   4  18
DOCKED: TORSDOF 9
DOCKED: TER
DOCKED: ENDMDL
________________________________________________________________________________


    FINAL DOCKED STATE:
    ________________________


Run:   6 / 20
Time taken for this run:   0.044s

DOCKED: MODEL        6
DOCKED: USER    Run = 6
DOCKED: USER
DOCKED: USER    Estimated Free Energy of Binding    =  -7.93 kcal/mol  [=(1)+(2)+(3)-(4)]
DOCKED: USER
DOCKED: USER    (1) Final Intermolecular Energy     = -10.61 kcal/mol
DOCKED: USER        vdW + Hbond + desolv Energy     =  -8.90 kcal/mol
DOCKED: USER        Electrostatic Energy            =  -1.71 kcal/mol
DOCKED: USER        Moving Ligand-Fixed Receptor    = -10.61 kcal/mol
DOCKED: USER        Moving Ligand-Moving Receptor   =  +0.00 kcal/mol
DOCKED: USER    (2) Final Total Internal Energy     =  -2.67 kcal/mol
DOCKED: USER    (3) Torsional Free Energy           =  +2.68 kcal/mol
DOCKED: USER    (4) Unbound System's Energy         =  -2.67 kcal/mol
DOCKED: USER
DOCKED: USER
DOCKED: REMARK SMILES CCC(=O)N(c1ccccc1)C1CC[N+](=C(O)[C@@H]([NH3+])C2Cc3ccccc3C2)CC1
DOCKED: REMARK SMILES IDX 12 1 13 2 14 3 15 4 29 5 30 6 5 7 3 8 4 9 2 10 1 11 6 12
DOCKED: REMARK SMILES IDX 7 13 11 14 8 15 10 16 9 17 16 18 17 19 18 21 19 22 20 26
DOCKED: REMARK SMILES IDX 21 27 28 28 22 29 27 30 23 31 26 32 24 33 25 34
DOCKED: REMARK H PARENT 17 20 19 23 19 24 19 25
DOCKED: USER                              x       y       z     vdW  Elec       q    Type
DOCKED: USER                           _______ _______ _______ _____ _____    ______ ____
DOCKED: ROOT
DOCKED: ATOM      1  C   UNL     1     140.474  73.807 219.047 -0.04 -0.02    +0.103 C  
DOCKED: ATOM      2  C   UNL     1     139.344  74.778 218.731 -0.02 -0.02    +0.098 C  
DOCKED: ATOM      3  C   UNL     1     139.814  76.190 218.376 +0.00 -0.10    +0.356 C  
DOCKED: ATOM      4  N   UNL     1     141.109  76.287 217.660 -0.03 +0.07    -0.197 N  
DOCKED: ATOM      5  C   UNL     1     141.930  75.095 217.333 -0.01 -0.12    +0.356 C  
DOCKED: ATOM      6  C   UNL     1     141.448  73.738 217.877 -0.02 -0.02    +0.098 C  
DOCKED: ENDROOT
DOCKED: BRANCH   1   7
DOCKED: ATOM      7  N   UNL     1     141.130  74.047 220.353 -0.08 +0.07    -0.309 N  
DOCKED: BRANCH   7   8
DOCKED: ATOM      8  C   UNL     1     140.411  74.363 221.558 -0.22 -0.03    +0.226 C  
DOCKED: ATOM      9  O   UNL     1     140.101  73.438 222.355 -0.80 +0.02    -0.275 OA 
DOCKED: BRANCH   8  10
DOCKED: ATOM     10  C   UNL     1     140.135  75.785 221.942 -0.31 -0.02    +0.097 C  
DOCKED: ATOM     11  C   UNL     1     138.638  76.034 222.103 -0.29 -0.00    +0.014 C  
DOCKED: ENDBRANCH   8  10
DOCKED: ENDBRANCH   7   8
DOCKED: BRANCH   7  12
DOCKED: ATOM     12  C   UNL     1     142.549  73.854 220.467 -0.27 -0.01    +0.044 A  
DOCKED: ATOM     13  C   UNL     1     143.422  74.946 220.347 -0.33 -0.01    +0.026 A  
DOCKED: ATOM     14  C   UNL     1     143.074  72.572 220.693 -0.28 -0.00    +0.026 A  
DOCKED: ATOM     15  C   UNL     1     144.802  74.760 220.472 -0.42 -0.00    +0.002 A  
DOCKED: ATOM     16  C   UNL     1     144.454  72.388 220.818 -0.40 -0.00    +0.002 A  
DOCKED: ATOM     17  C   UNL     1     145.318  73.483 220.709 -0.61 -0.00    +0.000 A  
DOCKED: ENDBRANCH   7  12
DOCKED: ENDBRANCH   1   7
DOCKED: BRANCH   4  18
DOCKED: ATOM     18  C   UNL     1     141.574  77.481 217.309 -0.06 -0.21    +0.394 C  
DOCKED: BRANCH  18  19
DOCKED: ATOM     19  O   UNL     1     141.361  78.005 216.023 -0.02 +0.27    -0.459 OA 
DOCKED: ATOM     20  H   UNL     1     141.055  77.477 215.217 +0.03 -0.14    +0.299 HD 
DOCKED: ENDBRANCH  18  19
DOCKED: BRANCH  18  21
DOCKED: ATOM     21  C   UNL     1     142.411  78.373 218.231 -0.18 -0.25    +0.322 C  
DOCKED: BRANCH  21  22
DOCKED: ATOM     22  N   UNL     1     142.914  79.519 217.461 -0.05 +0.45    -0.343 N  
DOCKED: ATOM     23  H   UNL     1     143.832  79.844 217.837 -0.37 -0.60    +0.345 HD 
DOCKED: ATOM     24  H   UNL     1     143.059  79.235 216.464 -0.40 -0.65    +0.345 HD 
DOCKED: ATOM     25  H   UNL     1     142.230  80.312 217.490 +0.08 -0.31    +0.345 HD 
DOCKED: ENDBRANCH  21  22
DOCKED: BRANCH  21  26
DOCKED: ATOM     26  C   UNL     1     141.559  78.847 219.443 -0.24 -0.04    +0.071 C  
DOCKED: ATOM     27  C   UNL     1     141.846  80.313 219.860 -0.29 -0.02    +0.046 C  
DOCKED: ATOM     28  C   UNL     1     141.798  77.987 220.712 -0.30 -0.03    +0.046 C  
DOCKED: ATOM     29  C   UNL     1     141.824  80.266 221.341 -0.39 +0.02    -0.044 A  
DOCKED: ATOM     30  C   UNL     1     141.800  78.977 221.812 -0.42 +0.02    -0.044 A  
DOCKED: ATOM     31  C   UNL     1     141.849  81.355 222.216 -0.48 -0.00    +0.004 A  
DOCKED: ATOM     32  C   UNL     1     141.796  78.709 223.184 -0.57 -0.00    +0.004 A  
DOCKED: ATOM     33  C   UNL     1     141.837  81.110 223.597 -0.60 -0.00    +0.000 A  
DOCKED: ATOM     34  C   UNL     1     141.812  79.788 224.081 -0.51 -0.00    +0.000 A  
DOCKED: ENDBRANCH  21  26
DOCKED: ENDBRANCH  18  21
DOCKED: ENDBRANCH   4  18
DOCKED: TORSDOF 9
DOCKED: TER
DOCKED: ENDMDL
________________________________________________________________________________


    FINAL DOCKED STATE:
    ________________________


Run:   7 / 20
Time taken for this run:   0.044s

DOCKED: MODEL        7
DOCKED: USER    Run = 7
DOCKED: USER
DOCKED: USER    Estimated Free Energy of Binding    =  -7.94 kcal/mol  [=(1)+(2)+(3)-(4)]
DOCKED: USER
DOCKED: USER    (1) Final Intermolecular Energy     = -10.63 kcal/mol
DOCKED: USER        vdW + Hbond + desolv Energy     =  -8.87 kcal/mol
DOCKED: USER        Electrostatic Energy            =  -1.75 kcal/mol
DOCKED: USER        Moving Ligand-Fixed Receptor    = -10.63 kcal/mol
DOCKED: USER        Moving Ligand-Moving Receptor   =  +0.00 kcal/mol
DOCKED: USER    (2) Final Total Internal Energy     =  -2.66 kcal/mol
DOCKED: USER    (3) Torsional Free Energy           =  +2.68 kcal/mol
DOCKED: USER    (4) Unbound System's Energy         =  -2.66 kcal/mol
DOCKED: USER
DOCKED: USER
DOCKED: REMARK SMILES CCC(=O)N(c1ccccc1)C1CC[N+](=C(O)[C@@H]([NH3+])C2Cc3ccccc3C2)CC1
DOCKED: REMARK SMILES IDX 12 1 13 2 14 3 15 4 29 5 30 6 5 7 3 8 4 9 2 10 1 11 6 12
DOCKED: REMARK SMILES IDX 7 13 11 14 8 15 10 16 9 17 16 18 17 19 18 21 19 22 20 26
DOCKED: REMARK SMILES IDX 21 27 28 28 22 29 27 30 23 31 26 32 24 33 25 34
DOCKED: REMARK H PARENT 17 20 19 23 19 24 19 25
DOCKED: USER                              x       y       z     vdW  Elec       q    Type
DOCKED: USER                           _______ _______ _______ _____ _____    ______ ____
DOCKED: ROOT
DOCKED: ATOM      1  C   UNL     1     140.462  73.885 219.015 -0.04 -0.02    +0.103 C  
DOCKED: ATOM      2  C   UNL     1     139.347  74.870 218.690 -0.02 -0.02    +0.098 C  
DOCKED: ATOM      3  C   UNL     1     139.835  76.277 218.341 +0.00 -0.10    +0.356 C  
DOCKED: ATOM      4  N   UNL     1     141.138  76.360 217.636 -0.03 +0.08    -0.197 N  
DOCKED: ATOM      5  C   UNL     1     141.948  75.158 217.315 -0.01 -0.12    +0.356 C  
DOCKED: ATOM      6  C   UNL     1     141.446  73.807 217.853 -0.02 -0.02    +0.098 C  
DOCKED: ENDROOT
DOCKED: BRANCH   1   7
DOCKED: ATOM      7  N   UNL     1     141.110  74.118 220.327 -0.08 +0.07    -0.309 N  
DOCKED: BRANCH   7   8
DOCKED: ATOM      8  C   UNL     1     140.385  74.442 221.525 -0.22 -0.03    +0.226 C  
DOCKED: ATOM      9  O   UNL     1     140.109  73.530 222.349 -0.81 +0.01    -0.275 OA 
DOCKED: BRANCH   8  10
DOCKED: ATOM     10  C   UNL     1     140.061  75.865 221.870 -0.31 -0.02    +0.097 C  
DOCKED: ATOM     11  C   UNL     1     138.613  76.007 222.330 -0.30 -0.00    +0.014 C  
DOCKED: ENDBRANCH   8  10
DOCKED: ENDBRANCH   7   8
DOCKED: BRANCH   7  12
DOCKED: ATOM     12  C   UNL     1     142.525  73.906 220.453 -0.27 -0.01    +0.044 A  
DOCKED: ATOM     13  C   UNL     1     143.028  72.618 220.697 -0.28 -0.00    +0.026 A  
DOCKED: ATOM     14  C   UNL     1     143.416  74.985 220.339 -0.32 -0.01    +0.026 A  
DOCKED: ATOM     15  C   UNL     1     144.405  72.410 220.805 -0.40 -0.00    +0.002 A  
DOCKED: ATOM     16  C   UNL     1     144.794  74.774 220.447 -0.41 -0.00    +0.002 A  
DOCKED: ATOM     17  C   UNL     1     145.289  73.487 220.678 -0.61 -0.00    +0.000 A  
DOCKED: ENDBRANCH   7  12
DOCKED: ENDBRANCH   1   7
DOCKED: BRANCH   4  18
DOCKED: ATOM     18  C   UNL     1     141.620  77.548 217.290 -0.06 -0.22    +0.394 C  
DOCKED: BRANCH  18  19
DOCKED: ATOM     19  O   UNL     1     141.434  78.070 215.999 -0.03 +0.28    -0.459 OA 
DOCKED: ATOM     20  H   UNL     1     141.356  77.526 215.151 +0.04 -0.15    +0.299 HD 
DOCKED: ENDBRANCH  18  19
DOCKED: BRANCH  18  21
DOCKED: ATOM     21  C   UNL     1     142.447  78.436 218.225 -0.18 -0.25    +0.322 C  
DOCKED: BRANCH  21  22
DOCKED: ATOM     22  N   UNL     1     142.942  79.595 217.470 -0.04 +0.45    -0.343 N  
DOCKED: ATOM     23  H   UNL     1     143.082  79.350 216.464 -0.41 -0.68    +0.345 HD 
DOCKED: ATOM     24  H   UNL     1     142.239  80.370 217.515 +0.08 -0.31    +0.345 HD 
DOCKED: ATOM     25  H   UNL     1     143.847  79.938 217.870 -0.34 -0.59    +0.345 HD 
DOCKED: ENDBRANCH  21  22
DOCKED: BRANCH  21  26
DOCKED: ATOM     26  C   UNL     1     141.590  78.887 219.441 -0.24 -0.04    +0.071 C  
DOCKED: ATOM     27  C   UNL     1     141.868  80.349 219.880 -0.29 -0.02    +0.046 C  
DOCKED: ATOM     28  C   UNL     1     141.829  78.010 220.697 -0.30 -0.03    +0.046 C  
DOCKED: ATOM     29  C   UNL     1     141.841  80.280 221.360 -0.39 +0.02    -0.044 A  
DOCKED: ATOM     30  C   UNL     1     141.822  78.984 221.812 -0.42 +0.02    -0.044 A  
DOCKED: ATOM     31  C   UNL     1     141.858  81.356 222.251 -0.48 -0.00    +0.004 A  
DOCKED: ATOM     32  C   UNL     1     141.815  78.696 223.180 -0.57 -0.00    +0.004 A  
DOCKED: ATOM     33  C   UNL     1     141.844  81.091 223.629 -0.61 -0.00    +0.000 A  
DOCKED: ATOM     34  C   UNL     1     141.823  79.761 224.092 -0.51 -0.00    +0.000 A  
DOCKED: ENDBRANCH  21  26
DOCKED: ENDBRANCH  18  21
DOCKED: ENDBRANCH   4  18
DOCKED: TORSDOF 9
DOCKED: TER
DOCKED: ENDMDL
________________________________________________________________________________


    FINAL DOCKED STATE:
    ________________________


Run:   8 / 20
Time taken for this run:   0.044s

DOCKED: MODEL        8
DOCKED: USER    Run = 8
DOCKED: USER
DOCKED: USER    Estimated Free Energy of Binding    =  -7.92 kcal/mol  [=(1)+(2)+(3)-(4)]
DOCKED: USER
DOCKED: USER    (1) Final Intermolecular Energy     = -10.61 kcal/mol
DOCKED: USER        vdW + Hbond + desolv Energy     =  -8.88 kcal/mol
DOCKED: USER        Electrostatic Energy            =  -1.73 kcal/mol
DOCKED: USER        Moving Ligand-Fixed Receptor    = -10.61 kcal/mol
DOCKED: USER        Moving Ligand-Moving Receptor   =  +0.00 kcal/mol
DOCKED: USER    (2) Final Total Internal Energy     =  -2.67 kcal/mol
DOCKED: USER    (3) Torsional Free Energy           =  +2.68 kcal/mol
DOCKED: USER    (4) Unbound System's Energy         =  -2.67 kcal/mol
DOCKED: USER
DOCKED: USER
DOCKED: REMARK SMILES CCC(=O)N(c1ccccc1)C1CC[N+](=C(O)[C@@H]([NH3+])C2Cc3ccccc3C2)CC1
DOCKED: REMARK SMILES IDX 12 1 13 2 14 3 15 4 29 5 30 6 5 7 3 8 4 9 2 10 1 11 6 12
DOCKED: REMARK SMILES IDX 7 13 11 14 8 15 10 16 9 17 16 18 17 19 18 21 19 22 20 26
DOCKED: REMARK SMILES IDX 21 27 28 28 22 29 27 30 23 31 26 32 24 33 25 34
DOCKED: REMARK H PARENT 17 20 19 23 19 24 19 25
DOCKED: USER                              x       y       z     vdW  Elec       q    Type
DOCKED: USER                           _______ _______ _______ _____ _____    ______ ____
DOCKED: ROOT
DOCKED: ATOM      1  C   UNL     1     140.460  73.813 219.065 -0.04 -0.02    +0.103 C  
DOCKED: ATOM      2  C   UNL     1     139.351  74.806 218.744 -0.02 -0.02    +0.098 C  
DOCKED: ATOM      3  C   UNL     1     139.849  76.203 218.371 +0.00 -0.10    +0.356 C  
DOCKED: ATOM      4  N   UNL     1     141.142  76.264 217.647 -0.03 +0.07    -0.197 N  
DOCKED: ATOM      5  C   UNL     1     141.935  75.050 217.329 -0.01 -0.12    +0.356 C  
DOCKED: ATOM      6  C   UNL     1     141.427  73.711 217.890 -0.02 -0.02    +0.098 C  
DOCKED: ENDROOT
DOCKED: BRANCH   1   7
DOCKED: ATOM      7  N   UNL     1     141.129  74.054 220.365 -0.08 +0.07    -0.309 N  
DOCKED: BRANCH   7   8
DOCKED: ATOM      8  C   UNL     1     140.422  74.377 221.574 -0.22 -0.03    +0.226 C  
DOCKED: ATOM      9  O   UNL     1     140.120  73.458 222.381 -0.79 +0.01    -0.275 OA 
DOCKED: BRANCH   8  10
DOCKED: ATOM     10  C   UNL     1     140.148  75.802 221.950 -0.31 -0.02    +0.097 C  
DOCKED: ATOM     11  C   UNL     1     138.680  76.007 222.312 -0.31 -0.00    +0.014 C  
DOCKED: ENDBRANCH   8  10
DOCKED: ENDBRANCH   7   8
DOCKED: BRANCH   7  12
DOCKED: ATOM     12  C   UNL     1     142.547  73.852 220.467 -0.27 -0.01    +0.044 A  
DOCKED: ATOM     13  C   UNL     1     143.064  72.564 220.673 -0.28 -0.00    +0.026 A  
DOCKED: ATOM     14  C   UNL     1     143.427  74.941 220.368 -0.32 -0.01    +0.026 A  
DOCKED: ATOM     15  C   UNL     1     144.445  72.366 220.758 -0.39 -0.00    +0.002 A  
DOCKED: ATOM     16  C   UNL     1     144.808  74.741 220.453 -0.42 -0.00    +0.002 A  
DOCKED: ATOM     17  C   UNL     1     145.317  73.453 220.646 -0.61 -0.00    +0.000 A  
DOCKED: ENDBRANCH   7  12
DOCKED: ENDBRANCH   1   7
DOCKED: BRANCH   4  18
DOCKED: ATOM     18  C   UNL     1     141.632  77.443 217.280 -0.06 -0.21    +0.394 C  
DOCKED: BRANCH  18  19
DOCKED: ATOM     19  O   UNL     1     141.463  77.937 215.976 -0.02 +0.27    -0.459 OA 
DOCKED: ATOM     20  H   UNL     1     141.099  77.413 215.193 +0.03 -0.14    +0.299 HD 
DOCKED: ENDBRANCH  18  19
DOCKED: BRANCH  18  21
DOCKED: ATOM     21  C   UNL     1     142.450  78.350 218.205 -0.18 -0.25    +0.322 C  
DOCKED: BRANCH  21  22
DOCKED: ATOM     22  N   UNL     1     142.936  79.504 217.436 -0.02 +0.45    -0.343 N  
DOCKED: ATOM     23  H   UNL     1     143.086  79.246 216.436 -0.40 -0.67    +0.345 HD 
DOCKED: ATOM     24  H   UNL     1     142.222  80.270 217.465 +0.08 -0.31    +0.345 HD 
DOCKED: ATOM     25  H   UNL     1     143.833  79.864 217.838 -0.37 -0.60    +0.345 HD 
DOCKED: ENDBRANCH  21  22
DOCKED: BRANCH  21  26
DOCKED: ATOM     26  C   UNL     1     141.588  78.808 219.415 -0.24 -0.04    +0.071 C  
DOCKED: ATOM     27  C   UNL     1     141.843  80.281 219.829 -0.29 -0.02    +0.046 C  
DOCKED: ATOM     28  C   UNL     1     141.842  77.956 220.686 -0.29 -0.03    +0.046 C  
DOCKED: ATOM     29  C   UNL     1     141.820  80.236 221.310 -0.39 +0.02    -0.044 A  
DOCKED: ATOM     30  C   UNL     1     141.822  78.949 221.784 -0.42 +0.02    -0.044 A  
DOCKED: ATOM     31  C   UNL     1     141.821  81.328 222.182 -0.48 -0.00    +0.004 A  
DOCKED: ATOM     32  C   UNL     1     141.822  78.684 223.156 -0.57 -0.00    +0.004 A  
DOCKED: ATOM     33  C   UNL     1     141.813  81.086 223.565 -0.60 -0.00    +0.000 A  
DOCKED: ATOM     34  C   UNL     1     141.815  79.764 224.051 -0.53 -0.00    +0.000 A  
DOCKED: ENDBRANCH  21  26
DOCKED: ENDBRANCH  18  21
DOCKED: ENDBRANCH   4  18
DOCKED: TORSDOF 9
DOCKED: TER
DOCKED: ENDMDL
________________________________________________________________________________


    FINAL DOCKED STATE:
    ________________________


Run:   9 / 20
Time taken for this run:   0.044s

DOCKED: MODEL        9
DOCKED: USER    Run = 9
DOCKED: USER
DOCKED: USER    Estimated Free Energy of Binding    =  -7.61 kcal/mol  [=(1)+(2)+(3)-(4)]
DOCKED: USER
DOCKED: USER    (1) Final Intermolecular Energy     = -10.30 kcal/mol
DOCKED: USER        vdW + Hbond + desolv Energy     =  -8.64 kcal/mol
DOCKED: USER        Electrostatic Energy            =  -1.66 kcal/mol
DOCKED: USER        Moving Ligand-Fixed Receptor    = -10.30 kcal/mol
DOCKED: USER        Moving Ligand-Moving Receptor   =  +0.00 kcal/mol
DOCKED: USER    (2) Final Total Internal Energy     =  -2.82 kcal/mol
DOCKED: USER    (3) Torsional Free Energy           =  +2.68 kcal/mol
DOCKED: USER    (4) Unbound System's Energy         =  -2.82 kcal/mol
DOCKED: USER
DOCKED: USER
DOCKED: REMARK SMILES CCC(=O)N(c1ccccc1)C1CC[N+](=C(O)[C@@H]([NH3+])C2Cc3ccccc3C2)CC1
DOCKED: REMARK SMILES IDX 12 1 13 2 14 3 15 4 29 5 30 6 5 7 3 8 4 9 2 10 1 11 6 12
DOCKED: REMARK SMILES IDX 7 13 11 14 8 15 10 16 9 17 16 18 17 19 18 21 19 22 20 26
DOCKED: REMARK SMILES IDX 21 27 28 28 22 29 27 30 23 31 26 32 24 33 25 34
DOCKED: REMARK H PARENT 17 20 19 23 19 24 19 25
DOCKED: USER                              x       y       z     vdW  Elec       q    Type
DOCKED: USER                           _______ _______ _______ _____ _____    ______ ____
DOCKED: ROOT
DOCKED: ATOM      1  C   UNL     1     140.629  73.668 218.945 -0.04 -0.02    +0.103 C  
DOCKED: ATOM      2  C   UNL     1     139.450  74.579 218.628 -0.02 -0.02    +0.098 C  
DOCKED: ATOM      3  C   UNL     1     139.840  76.025 218.322 +0.00 -0.10    +0.356 C  
DOCKED: ATOM      4  N   UNL     1     141.143  76.219 217.639 -0.03 +0.07    -0.197 N  
DOCKED: ATOM      5  C   UNL     1     142.042  75.088 217.301 -0.01 -0.12    +0.356 C  
DOCKED: ATOM      6  C   UNL     1     141.631  73.690 217.797 -0.02 -0.02    +0.098 C  
DOCKED: ENDROOT
DOCKED: BRANCH   1   7
DOCKED: ATOM      7  N   UNL     1     141.240  73.911 220.272 -0.07 +0.07    -0.309 N  
DOCKED: BRANCH   7   8
DOCKED: ATOM      8  C   UNL     1     140.478  74.176 221.462 -0.21 -0.03    +0.226 C  
DOCKED: ATOM      9  O   UNL     1     140.604  75.285 222.047 -0.59 +0.04    -0.275 OA 
DOCKED: BRANCH   8  10
DOCKED: ATOM     10  C   UNL     1     139.444  73.205 221.948 -0.23 -0.02    +0.097 C  
DOCKED: ATOM     11  C   UNL     1     140.076  72.093 222.780 -0.33 -0.00    +0.014 C  
DOCKED: ENDBRANCH   8  10
DOCKED: ENDBRANCH   7   8
DOCKED: BRANCH   7  12
DOCKED: ATOM     12  C   UNL     1     142.662  73.772 220.421 -0.27 -0.01    +0.044 A  
DOCKED: ATOM     13  C   UNL     1     143.228  72.509 220.655 -0.28 -0.00    +0.026 A  
DOCKED: ATOM     14  C   UNL     1     143.497  74.898 220.339 -0.35 -0.01    +0.026 A  
DOCKED: ATOM     15  C   UNL     1     144.612  72.373 220.785 -0.39 -0.00    +0.002 A  
DOCKED: ATOM     16  C   UNL     1     144.881  74.759 220.469 -0.41 -0.00    +0.002 A  
DOCKED: ATOM     17  C   UNL     1     145.439  73.496 220.690 -0.63 -0.00    +0.000 A  
DOCKED: ENDBRANCH   7  12
DOCKED: ENDBRANCH   1   7
DOCKED: BRANCH   4  18
DOCKED: ATOM     18  C   UNL     1     141.543  77.448 217.331 -0.05 -0.21    +0.394 C  
DOCKED: BRANCH  18  19
DOCKED: ATOM     19  O   UNL     1     141.231  78.035 216.093 -0.02 +0.26    -0.459 OA 
DOCKED: ATOM     20  H   UNL     1     140.462  77.768 215.494 +0.03 -0.12    +0.299 HD 
DOCKED: ENDBRANCH  18  19
DOCKED: BRANCH  18  21
DOCKED: ATOM     21  C   UNL     1     142.404  78.319 218.251 -0.18 -0.24    +0.322 C  
DOCKED: BRANCH  21  22
DOCKED: ATOM     22  N   UNL     1     142.928  79.456 217.482 -0.06 +0.44    -0.343 N  
DOCKED: ATOM     23  H   UNL     1     142.314  80.293 217.593 +0.08 -0.32    +0.345 HD 
DOCKED: ATOM     24  H   UNL     1     143.881  79.709 217.834 -0.37 -0.61    +0.345 HD 
DOCKED: ATOM     25  H   UNL     1     142.997  79.213 216.465 -0.40 -0.61    +0.345 HD 
DOCKED: ENDBRANCH  21  22
DOCKED: BRANCH  21  26
DOCKED: ATOM     26  C   UNL     1     141.570  78.808 219.469 -0.24 -0.04    +0.071 C  
DOCKED: ATOM     27  C   UNL     1     142.066  80.157 220.053 -0.22 -0.02    +0.046 C  
DOCKED: ATOM     28  C   UNL     1     141.588  77.799 220.648 -0.30 -0.03    +0.046 C  
DOCKED: ATOM     29  C   UNL     1     141.947  79.968 221.518 -0.40 +0.02    -0.044 A  
DOCKED: ATOM     30  C   UNL     1     141.685  78.662 221.847 -0.40 +0.02    -0.044 A  
DOCKED: ATOM     31  C   UNL     1     142.097  80.946 222.504 -0.54 -0.00    +0.004 A  
DOCKED: ATOM     32  C   UNL     1     141.554  78.265 223.180 -0.52 -0.00    +0.004 A  
DOCKED: ATOM     33  C   UNL     1     141.962  80.572 223.850 -0.61 -0.00    +0.000 A  
DOCKED: ATOM     34  C   UNL     1     141.692  79.232 224.187 -0.55 -0.00    +0.000 A  
DOCKED: ENDBRANCH  21  26
DOCKED: ENDBRANCH  18  21
DOCKED: ENDBRANCH   4  18
DOCKED: TORSDOF 9
DOCKED: TER
DOCKED: ENDMDL
________________________________________________________________________________


    FINAL DOCKED STATE:
    ________________________


Run:   10 / 20
Time taken for this run:   0.044s

DOCKED: MODEL        10
DOCKED: USER    Run = 10
DOCKED: USER
DOCKED: USER    Estimated Free Energy of Binding    =  -7.91 kcal/mol  [=(1)+(2)+(3)-(4)]
DOCKED: USER
DOCKED: USER    (1) Final Intermolecular Energy     = -10.60 kcal/mol
DOCKED: USER        vdW + Hbond + desolv Energy     =  -8.83 kcal/mol
DOCKED: USER        Electrostatic Energy            =  -1.76 kcal/mol
DOCKED: USER        Moving Ligand-Fixed Receptor    = -10.60 kcal/mol
DOCKED: USER        Moving Ligand-Moving Receptor   =  +0.00 kcal/mol
DOCKED: USER    (2) Final Total Internal Energy     =  -2.67 kcal/mol
DOCKED: USER    (3) Torsional Free Energy           =  +2.68 kcal/mol
DOCKED: USER    (4) Unbound System's Energy         =  -2.67 kcal/mol
DOCKED: USER
DOCKED: USER
DOCKED: REMARK SMILES CCC(=O)N(c1ccccc1)C1CC[N+](=C(O)[C@@H]([NH3+])C2Cc3ccccc3C2)CC1
DOCKED: REMARK SMILES IDX 12 1 13 2 14 3 15 4 29 5 30 6 5 7 3 8 4 9 2 10 1 11 6 12
DOCKED: REMARK SMILES IDX 7 13 11 14 8 15 10 16 9 17 16 18 17 19 18 21 19 22 20 26
DOCKED: REMARK SMILES IDX 21 27 28 28 22 29 27 30 23 31 26 32 24 33 25 34
DOCKED: REMARK H PARENT 17 20 19 23 19 24 19 25
DOCKED: USER                              x       y       z     vdW  Elec       q    Type
DOCKED: USER                           _______ _______ _______ _____ _____    ______ ____
DOCKED: ROOT
DOCKED: ATOM      1  C   UNL     1     140.491  73.893 219.041 -0.04 -0.02    +0.103 C  
DOCKED: ATOM      2  C   UNL     1     139.363  74.866 218.723 -0.02 -0.02    +0.098 C  
DOCKED: ATOM      3  C   UNL     1     139.834  76.278 218.374 +0.00 -0.10    +0.356 C  
DOCKED: ATOM      4  N   UNL     1     141.133  76.377 217.665 -0.03 +0.08    -0.197 N  
DOCKED: ATOM      5  C   UNL     1     141.955  75.185 217.338 -0.01 -0.12    +0.356 C  
DOCKED: ATOM      6  C   UNL     1     141.471  73.827 217.875 -0.02 -0.02    +0.098 C  
DOCKED: ENDROOT
DOCKED: BRANCH   1   7
DOCKED: ATOM      7  N   UNL     1     141.140  74.130 220.351 -0.08 +0.07    -0.309 N  
DOCKED: BRANCH   7   8
DOCKED: ATOM      8  C   UNL     1     140.415  74.426 221.557 -0.22 -0.03    +0.226 C  
DOCKED: ATOM      9  O   UNL     1     140.147  73.497 222.364 -0.80 +0.01    -0.275 OA 
DOCKED: BRANCH   8  10
DOCKED: ATOM     10  C   UNL     1     140.081  75.840 221.928 -0.31 -0.02    +0.097 C  
DOCKED: ATOM     11  C   UNL     1     138.609  75.981 222.303 -0.30 -0.00    +0.014 C  
DOCKED: ENDBRANCH   8  10
DOCKED: ENDBRANCH   7   8
DOCKED: BRANCH   7  12
DOCKED: ATOM     12  C   UNL     1     142.561  73.951 220.467 -0.28 -0.01    +0.044 A  
DOCKED: ATOM     13  C   UNL     1     143.095  72.678 220.719 -0.28 -0.00    +0.026 A  
DOCKED: ATOM     14  C   UNL     1     143.426  75.049 220.334 -0.29 -0.01    +0.026 A  
DOCKED: ATOM     15  C   UNL     1     144.478  72.502 220.817 -0.41 -0.00    +0.002 A  
DOCKED: ATOM     16  C   UNL     1     144.810  74.871 220.433 -0.36 -0.00    +0.002 A  
DOCKED: ATOM     17  C   UNL     1     145.335  73.597 220.672 -0.62 -0.00    +0.000 A  
DOCKED: ENDBRANCH   7  12
DOCKED: ENDBRANCH   1   7
DOCKED: BRANCH   4  18
DOCKED: ATOM     18  C   UNL     1     141.600  77.572 217.319 -0.06 -0.22    +0.394 C  
DOCKED: BRANCH  18  19
DOCKED: ATOM     19  O   UNL     1     141.371  78.110 216.042 -0.02 +0.27    -0.459 OA 
DOCKED: ATOM     20  H   UNL     1     141.362  77.587 215.177 +0.04 -0.16    +0.299 HD 
DOCKED: ENDBRANCH  18  19
DOCKED: BRANCH  18  21
DOCKED: ATOM     21  C   UNL     1     142.455  78.449 218.238 -0.18 -0.25    +0.322 C  
DOCKED: BRANCH  21  22
DOCKED: ATOM     22  N   UNL     1     142.953  79.601 217.473 -0.03 +0.46    -0.343 N  
DOCKED: ATOM     23  H   UNL     1     143.042  79.362 216.460 -0.42 -0.66    +0.345 HD 
DOCKED: ATOM     24  H   UNL     1     142.276  80.396 217.555 +0.08 -0.31    +0.345 HD 
DOCKED: ATOM     25  H   UNL     1     143.884  79.911 217.837 -0.37 -0.62    +0.345 HD 
DOCKED: ENDBRANCH  21  22
DOCKED: BRANCH  21  26
DOCKED: ATOM     26  C   UNL     1     141.625  78.914 219.468 -0.24 -0.04    +0.071 C  
DOCKED: ATOM     27  C   UNL     1     141.983  80.346 219.946 -0.25 -0.02    +0.046 C  
DOCKED: ATOM     28  C   UNL     1     141.817  77.991 220.700 -0.30 -0.03    +0.046 C  
DOCKED: ATOM     29  C   UNL     1     141.954  80.238 221.423 -0.40 +0.02    -0.044 A  
DOCKED: ATOM     30  C   UNL     1     141.864  78.934 221.841 -0.42 +0.02    -0.044 A  
DOCKED: ATOM     31  C   UNL     1     142.031  81.287 222.343 -0.48 -0.00    +0.004 A  
DOCKED: ATOM     32  C   UNL     1     141.843  78.609 223.200 -0.56 -0.00    +0.004 A  
DOCKED: ATOM     33  C   UNL     1     142.003  80.986 223.713 -0.62 -0.00    +0.000 A  
DOCKED: ATOM     34  C   UNL     1     141.910  79.648 224.141 -0.51 -0.00    +0.000 A  
DOCKED: ENDBRANCH  21  26
DOCKED: ENDBRANCH  18  21
DOCKED: ENDBRANCH   4  18
DOCKED: TORSDOF 9
DOCKED: TER
DOCKED: ENDMDL
________________________________________________________________________________


    FINAL DOCKED STATE:
    ________________________


Run:   11 / 20
Time taken for this run:   0.044s

DOCKED: MODEL        11
DOCKED: USER    Run = 11
DOCKED: USER
DOCKED: USER    Estimated Free Energy of Binding    =  -7.79 kcal/mol  [=(1)+(2)+(3)-(4)]
DOCKED: USER
DOCKED: USER    (1) Final Intermolecular Energy     = -10.48 kcal/mol
DOCKED: USER        vdW + Hbond + desolv Energy     =  -8.35 kcal/mol
DOCKED: USER        Electrostatic Energy            =  -2.12 kcal/mol
DOCKED: USER        Moving Ligand-Fixed Receptor    = -10.48 kcal/mol
DOCKED: USER        Moving Ligand-Moving Receptor   =  +0.00 kcal/mol
DOCKED: USER    (2) Final Total Internal Energy     =  -2.45 kcal/mol
DOCKED: USER    (3) Torsional Free Energy           =  +2.68 kcal/mol
DOCKED: USER    (4) Unbound System's Energy         =  -2.45 kcal/mol
DOCKED: USER
DOCKED: USER
DOCKED: REMARK SMILES CCC(=O)N(c1ccccc1)C1CC[N+](=C(O)[C@@H]([NH3+])C2Cc3ccccc3C2)CC1
DOCKED: REMARK SMILES IDX 12 1 13 2 14 3 15 4 29 5 30 6 5 7 3 8 4 9 2 10 1 11 6 12
DOCKED: REMARK SMILES IDX 7 13 11 14 8 15 10 16 9 17 16 18 17 19 18 21 19 22 20 26
DOCKED: REMARK SMILES IDX 21 27 28 28 22 29 27 30 23 31 26 32 24 33 25 34
DOCKED: REMARK H PARENT 17 20 19 23 19 24 19 25
DOCKED: USER                              x       y       z     vdW  Elec       q    Type
DOCKED: USER                           _______ _______ _______ _____ _____    ______ ____
DOCKED: ROOT
DOCKED: ATOM      1  C   UNL     1     139.002  80.346 221.120 -0.11 -0.02    +0.103 C  
DOCKED: ATOM      2  C   UNL     1     139.799  81.582 220.724 -0.15 -0.02    +0.098 C  
DOCKED: ATOM      3  C   UNL     1     141.041  81.283 219.883 -0.13 -0.12    +0.356 C  
DOCKED: ATOM      4  N   UNL     1     140.942  80.127 218.959 -0.10 +0.09    -0.197 N  
DOCKED: ATOM      5  C   UNL     1     139.727  79.279 218.872 -0.01 -0.12    +0.356 C  
DOCKED: ATOM      6  C   UNL     1     138.596  79.564 219.875 -0.04 -0.02    +0.098 C  
DOCKED: ENDROOT
DOCKED: BRANCH   1   7
DOCKED: ATOM      7  N   UNL     1     139.653  79.514 222.158 -0.09 +0.07    -0.309 N  
DOCKED: BRANCH   7   8
DOCKED: ATOM      8  C   UNL     1     139.163  78.227 222.569 -0.21 -0.04    +0.226 C  
DOCKED: ATOM      9  O   UNL     1     137.997  78.127 223.037 -0.18 +0.04    -0.275 OA 
DOCKED: BRANCH   8  10
DOCKED: ATOM     10  C   UNL     1     139.967  76.984 222.335 -0.34 -0.02    +0.097 C  
DOCKED: ATOM     11  C   UNL     1     139.090  75.845 221.823 -0.29 -0.00    +0.014 C  
DOCKED: ENDBRANCH   8  10
DOCKED: ENDBRANCH   7   8
DOCKED: BRANCH   7  12
DOCKED: ATOM     12  C   UNL     1     140.902  79.950 222.718 -0.41 -0.01    +0.044 A  
DOCKED: ATOM     13  C   UNL     1     142.107  79.363 222.301 -0.51 -0.01    +0.026 A  
DOCKED: ATOM     14  C   UNL     1     140.928  80.962 223.691 -0.44 -0.00    +0.026 A  
DOCKED: ATOM     15  C   UNL     1     143.323  79.798 222.835 -0.51 -0.00    +0.002 A  
DOCKED: ATOM     16  C   UNL     1     142.146  81.395 224.224 -0.56 -0.00    +0.002 A  
DOCKED: ATOM     17  C   UNL     1     143.343  80.815 223.795 -0.58 -0.00    +0.000 A  
DOCKED: ENDBRANCH   7  12
DOCKED: ENDBRANCH   1   7
DOCKED: BRANCH   4  18
DOCKED: ATOM     18  C   UNL     1     141.978  79.816 218.188 -0.15 -0.28    +0.394 C  
DOCKED: BRANCH  18  19
DOCKED: ATOM     19  O   UNL     1     142.957  80.765 217.852 -0.21 +0.48    -0.459 OA 
DOCKED: ATOM     20  H   UNL     1     143.859  80.559 217.445 -0.39 -0.63    +0.299 HD 
DOCKED: ENDBRANCH  18  19
DOCKED: BRANCH  18  21
DOCKED: ATOM     21  C   UNL     1     142.186  78.433 217.562 -0.16 -0.25    +0.322 C  
DOCKED: BRANCH  21  22
DOCKED: ATOM     22  N   UNL     1     142.919  78.587 216.297 +0.18 +0.48    -0.343 N  
DOCKED: ATOM     23  H   UNL     1     142.983  79.594 216.026 -0.39 -0.70    +0.345 HD 
DOCKED: ATOM     24  H   UNL     1     143.894  78.223 216.409 -0.26 -0.64    +0.345 HD 
DOCKED: ATOM     25  H   UNL     1     142.445  78.054 215.530 +0.04 -0.31    +0.345 HD 
DOCKED: ENDBRANCH  21  22
DOCKED: BRANCH  21  26
DOCKED: ATOM     26  C   UNL     1     142.957  77.506 218.543 -0.28 -0.05    +0.071 C  
DOCKED: ATOM     27  C   UNL     1     143.558  76.249 217.858 -0.19 -0.03    +0.046 C  
DOCKED: ATOM     28  C   UNL     1     142.061  76.979 219.694 -0.29 -0.03    +0.046 C  
DOCKED: ATOM     29  C   UNL     1     143.324  75.169 218.845 -0.27 +0.02    -0.044 A  
DOCKED: ATOM     30  C   UNL     1     142.494  75.573 219.861 -0.29 +0.02    -0.044 A  
DOCKED: ATOM     31  C   UNL     1     143.832  73.868 218.801 -0.22 -0.00    +0.004 A  
DOCKED: ATOM     32  C   UNL     1     142.130  74.698 220.888 -0.29 -0.00    +0.004 A  
DOCKED: ATOM     33  C   UNL     1     143.487  72.975 219.826 -0.27 -0.00    +0.000 A  
DOCKED: ATOM     34  C   UNL     1     142.635  73.389 220.868 -0.26 -0.00    +0.000 A  
DOCKED: ENDBRANCH  21  26
DOCKED: ENDBRANCH  18  21
DOCKED: ENDBRANCH   4  18
DOCKED: TORSDOF 9
DOCKED: TER
DOCKED: ENDMDL
________________________________________________________________________________


    FINAL DOCKED STATE:
    ________________________


Run:   12 / 20
Time taken for this run:   0.044s

DOCKED: MODEL        12
DOCKED: USER    Run = 12
DOCKED: USER
DOCKED: USER    Estimated Free Energy of Binding    =  -7.93 kcal/mol  [=(1)+(2)+(3)-(4)]
DOCKED: USER
DOCKED: USER    (1) Final Intermolecular Energy     = -10.62 kcal/mol
DOCKED: USER        vdW + Hbond + desolv Energy     =  -8.85 kcal/mol
DOCKED: USER        Electrostatic Energy            =  -1.77 kcal/mol
DOCKED: USER        Moving Ligand-Fixed Receptor    = -10.62 kcal/mol
DOCKED: USER        Moving Ligand-Moving Receptor   =  +0.00 kcal/mol
DOCKED: USER    (2) Final Total Internal Energy     =  -2.66 kcal/mol
DOCKED: USER    (3) Torsional Free Energy           =  +2.68 kcal/mol
DOCKED: USER    (4) Unbound System's Energy         =  -2.66 kcal/mol
DOCKED: USER
DOCKED: USER
DOCKED: REMARK SMILES CCC(=O)N(c1ccccc1)C1CC[N+](=C(O)[C@@H]([NH3+])C2Cc3ccccc3C2)CC1
DOCKED: REMARK SMILES IDX 12 1 13 2 14 3 15 4 29 5 30 6 5 7 3 8 4 9 2 10 1 11 6 12
DOCKED: REMARK SMILES IDX 7 13 11 14 8 15 10 16 9 17 16 18 17 19 18 21 19 22 20 26
DOCKED: REMARK SMILES IDX 21 27 28 28 22 29 27 30 23 31 26 32 24 33 25 34
DOCKED: REMARK H PARENT 17 20 19 23 19 24 19 25
DOCKED: USER                              x       y       z     vdW  Elec       q    Type
DOCKED: USER                           _______ _______ _______ _____ _____    ______ ____
DOCKED: ROOT
DOCKED: ATOM      1  C   UNL     1     140.439  73.907 219.053 -0.04 -0.02    +0.103 C  
DOCKED: ATOM      2  C   UNL     1     139.349  74.920 218.725 -0.02 -0.02    +0.098 C  
DOCKED: ATOM      3  C   UNL     1     139.875  76.308 218.356 +0.00 -0.10    +0.356 C  
DOCKED: ATOM      4  N   UNL     1     141.174  76.346 217.642 -0.03 +0.08    -0.197 N  
DOCKED: ATOM      5  C   UNL     1     141.948  75.119 217.330 -0.01 -0.12    +0.356 C  
DOCKED: ATOM      6  C   UNL     1     141.412  73.788 217.886 -0.02 -0.02    +0.098 C  
DOCKED: ENDROOT
DOCKED: BRANCH   1   7
DOCKED: ATOM      7  N   UNL     1     141.102  74.136 220.358 -0.08 +0.07    -0.309 N  
DOCKED: BRANCH   7   8
DOCKED: ATOM      8  C   UNL     1     140.390  74.449 221.567 -0.22 -0.03    +0.226 C  
DOCKED: ATOM      9  O   UNL     1     140.068  73.521 222.357 -0.81 +0.02    -0.275 OA 
DOCKED: BRANCH   8  10
DOCKED: ATOM     10  C   UNL     1     140.133  75.871 221.965 -0.32 -0.02    +0.097 C  
DOCKED: ATOM     11  C   UNL     1     138.667  76.089 222.327 -0.31 -0.00    +0.014 C  
DOCKED: ENDBRANCH   8  10
DOCKED: ENDBRANCH   7   8
DOCKED: BRANCH   7  12
DOCKED: ATOM     12  C   UNL     1     142.520  73.931 220.466 -0.27 -0.01    +0.044 A  
DOCKED: ATOM     13  C   UNL     1     143.400  75.018 220.351 -0.30 -0.01    +0.026 A  
DOCKED: ATOM     14  C   UNL     1     143.036  72.644 220.680 -0.28 -0.00    +0.026 A  
DOCKED: ATOM     15  C   UNL     1     144.779  74.822 220.470 -0.40 -0.00    +0.002 A  
DOCKED: ATOM     16  C   UNL     1     144.415  72.449 220.799 -0.40 -0.00    +0.002 A  
DOCKED: ATOM     17  C   UNL     1     145.286  73.539 220.696 -0.61 -0.00    +0.000 A  
DOCKED: ENDBRANCH   7  12
DOCKED: ENDBRANCH   1   7
DOCKED: BRANCH   4  18
DOCKED: ATOM     18  C   UNL     1     141.687  77.517 217.280 -0.07 -0.22    +0.394 C  
DOCKED: BRANCH  18  19
DOCKED: ATOM     19  O   UNL     1     141.559  78.002 215.968 -0.03 +0.29    -0.459 OA 
DOCKED: ATOM     20  H   UNL     1     141.739  77.473 215.126 +0.04 -0.17    +0.299 HD 
DOCKED: ENDBRANCH  18  19
DOCKED: BRANCH  18  21
DOCKED: ATOM     21  C   UNL     1     142.491  78.421 218.220 -0.19 -0.25    +0.322 C  
DOCKED: BRANCH  21  22
DOCKED: ATOM     22  N   UNL     1     142.951  79.600 217.472 -0.03 +0.46    -0.343 N  
DOCKED: ATOM     23  H   UNL     1     143.099  79.365 216.465 -0.42 -0.70    +0.345 HD 
DOCKED: ATOM     24  H   UNL     1     142.225  80.352 217.520 +0.09 -0.31    +0.345 HD 
DOCKED: ATOM     25  H   UNL     1     143.845  79.966 217.875 -0.34 -0.59    +0.345 HD 
DOCKED: ENDBRANCH  21  22
DOCKED: BRANCH  21  26
DOCKED: ATOM     26  C   UNL     1     141.623  78.840 219.440 -0.24 -0.04    +0.071 C  
DOCKED: ATOM     27  C   UNL     1     141.869  80.303 219.896 -0.29 -0.02    +0.046 C  
DOCKED: ATOM     28  C   UNL     1     141.881  77.954 220.687 -0.27 -0.03    +0.046 C  
DOCKED: ATOM     29  C   UNL     1     141.844  80.216 221.375 -0.39 +0.02    -0.044 A  
DOCKED: ATOM     30  C   UNL     1     141.853  78.915 221.813 -0.41 +0.02    -0.044 A  
DOCKED: ATOM     31  C   UNL     1     141.837  81.282 222.278 -0.49 -0.00    +0.004 A  
DOCKED: ATOM     32  C   UNL     1     141.851  78.611 223.177 -0.55 -0.00    +0.004 A  
DOCKED: ATOM     33  C   UNL     1     141.828  81.001 223.653 -0.60 -0.00    +0.000 A  
DOCKED: ATOM     34  C   UNL     1     141.836  79.666 224.102 -0.52 -0.00    +0.000 A  
DOCKED: ENDBRANCH  21  26
DOCKED: ENDBRANCH  18  21
DOCKED: ENDBRANCH   4  18
DOCKED: TORSDOF 9
DOCKED: TER
DOCKED: ENDMDL
________________________________________________________________________________


    FINAL DOCKED STATE:
    ________________________


Run:   13 / 20
Time taken for this run:   0.044s

DOCKED: MODEL        13
DOCKED: USER    Run = 13
DOCKED: USER
DOCKED: USER    Estimated Free Energy of Binding    =  -7.91 kcal/mol  [=(1)+(2)+(3)-(4)]
DOCKED: USER
DOCKED: USER    (1) Final Intermolecular Energy     = -10.60 kcal/mol
DOCKED: USER        vdW + Hbond + desolv Energy     =  -8.87 kcal/mol
DOCKED: USER        Electrostatic Energy            =  -1.72 kcal/mol
DOCKED: USER        Moving Ligand-Fixed Receptor    = -10.60 kcal/mol
DOCKED: USER        Moving Ligand-Moving Receptor   =  +0.00 kcal/mol
DOCKED: USER    (2) Final Total Internal Energy     =  -2.66 kcal/mol
DOCKED: USER    (3) Torsional Free Energy           =  +2.68 kcal/mol
DOCKED: USER    (4) Unbound System's Energy         =  -2.66 kcal/mol
DOCKED: USER
DOCKED: USER
DOCKED: REMARK SMILES CCC(=O)N(c1ccccc1)C1CC[N+](=C(O)[C@@H]([NH3+])C2Cc3ccccc3C2)CC1
DOCKED: REMARK SMILES IDX 12 1 13 2 14 3 15 4 29 5 30 6 5 7 3 8 4 9 2 10 1 11 6 12
DOCKED: REMARK SMILES IDX 7 13 11 14 8 15 10 16 9 17 16 18 17 19 18 21 19 22 20 26
DOCKED: REMARK SMILES IDX 21 27 28 28 22 29 27 30 23 31 26 32 24 33 25 34
DOCKED: REMARK H PARENT 17 20 19 23 19 24 19 25
DOCKED: USER                              x       y       z     vdW  Elec       q    Type
DOCKED: USER                           _______ _______ _______ _____ _____    ______ ____
DOCKED: ROOT
DOCKED: ATOM      1  C   UNL     1     140.427  73.833 219.053 -0.04 -0.02    +0.103 C  
DOCKED: ATOM      2  C   UNL     1     139.325  74.837 218.740 -0.02 -0.02    +0.098 C  
DOCKED: ATOM      3  C   UNL     1     139.834  76.232 218.375 +0.00 -0.10    +0.356 C  
DOCKED: ATOM      4  N   UNL     1     141.126  76.286 217.649 -0.03 +0.07    -0.197 N  
DOCKED: ATOM      5  C   UNL     1     141.908  75.068 217.322 -0.01 -0.12    +0.356 C  
DOCKED: ATOM      6  C   UNL     1     141.390  73.729 217.876 -0.02 -0.02    +0.098 C  
DOCKED: ENDROOT
DOCKED: BRANCH   1   7
DOCKED: ATOM      7  N   UNL     1     141.099  74.061 220.353 -0.08 +0.07    -0.309 N  
DOCKED: BRANCH   7   8
DOCKED: ATOM      8  C   UNL     1     140.399  74.397 221.563 -0.22 -0.03    +0.226 C  
DOCKED: ATOM      9  O   UNL     1     140.030  73.478 222.342 -0.81 +0.02    -0.275 OA 
DOCKED: BRANCH   8  10
DOCKED: ATOM     10  C   UNL     1     140.210  75.827 221.973 -0.31 -0.02    +0.097 C  
DOCKED: ATOM     11  C   UNL     1     138.732  76.160 222.153 -0.30 -0.00    +0.014 C  
DOCKED: ENDBRANCH   8  10
DOCKED: ENDBRANCH   7   8
DOCKED: BRANCH   7  12
DOCKED: ATOM     12  C   UNL     1     142.514  73.832 220.456 -0.27 -0.01    +0.044 A  
DOCKED: ATOM     13  C   UNL     1     143.413  74.905 220.348 -0.34 -0.01    +0.026 A  
DOCKED: ATOM     14  C   UNL     1     143.010  72.534 220.659 -0.27 -0.00    +0.026 A  
DOCKED: ATOM     15  C   UNL     1     144.788  74.684 220.463 -0.45 -0.00    +0.002 A  
DOCKED: ATOM     16  C   UNL     1     144.386  72.316 220.773 -0.38 -0.00    +0.002 A  
DOCKED: ATOM     17  C   UNL     1     145.274  73.391 220.677 -0.60 -0.00    +0.000 A  
DOCKED: ENDBRANCH   7  12
DOCKED: ENDBRANCH   1   7
DOCKED: BRANCH   4  18
DOCKED: ATOM     18  C   UNL     1     141.624  77.464 217.288 -0.06 -0.21    +0.394 C  
DOCKED: BRANCH  18  19
DOCKED: ATOM     19  O   UNL     1     141.464  77.963 215.984 -0.03 +0.27    -0.459 OA 
DOCKED: ATOM     20  H   UNL     1     140.582  78.192 215.548 +0.03 -0.14    +0.299 HD 
DOCKED: ENDBRANCH  18  19
DOCKED: BRANCH  18  21
DOCKED: ATOM     21  C   UNL     1     142.445  78.362 218.219 -0.18 -0.25    +0.322 C  
DOCKED: BRANCH  21  22
DOCKED: ATOM     22  N   UNL     1     142.947  79.512 217.454 -0.03 +0.45    -0.343 N  
DOCKED: ATOM     23  H   UNL     1     143.126  79.246 216.460 -0.40 -0.69    +0.345 HD 
DOCKED: ATOM     24  H   UNL     1     142.230  80.275 217.456 +0.08 -0.31    +0.345 HD 
DOCKED: ATOM     25  H   UNL     1     143.832  79.878 217.877 -0.34 -0.59    +0.345 HD 
DOCKED: ENDBRANCH  21  22
DOCKED: BRANCH  21  26
DOCKED: ATOM     26  C   UNL     1     141.578  78.828 219.422 -0.24 -0.04    +0.071 C  
DOCKED: ATOM     27  C   UNL     1     141.818  80.310 219.816 -0.30 -0.02    +0.046 C  
DOCKED: ATOM     28  C   UNL     1     141.842  77.997 220.705 -0.29 -0.03    +0.046 C  
DOCKED: ATOM     29  C   UNL     1     141.797  80.285 221.297 -0.38 +0.02    -0.044 A  
DOCKED: ATOM     30  C   UNL     1     141.812  79.005 221.789 -0.42 +0.02    -0.044 A  
DOCKED: ATOM     31  C   UNL     1     141.787  81.389 222.154 -0.47 -0.00    +0.004 A  
DOCKED: ATOM     32  C   UNL     1     141.814  78.759 223.165 -0.57 -0.00    +0.004 A  
DOCKED: ATOM     33  C   UNL     1     141.782  81.166 223.540 -0.60 -0.00    +0.000 A  
DOCKED: ATOM     34  C   UNL     1     141.796  79.852 224.044 -0.52 -0.00    +0.000 A  
DOCKED: ENDBRANCH  21  26
DOCKED: ENDBRANCH  18  21
DOCKED: ENDBRANCH   4  18
DOCKED: TORSDOF 9
DOCKED: TER
DOCKED: ENDMDL
________________________________________________________________________________


    FINAL DOCKED STATE:
    ________________________


Run:   14 / 20
Time taken for this run:   0.044s

DOCKED: MODEL        14
DOCKED: USER    Run = 14
DOCKED: USER
DOCKED: USER    Estimated Free Energy of Binding    =  -7.90 kcal/mol  [=(1)+(2)+(3)-(4)]
DOCKED: USER
DOCKED: USER    (1) Final Intermolecular Energy     = -10.59 kcal/mol
DOCKED: USER        vdW + Hbond + desolv Energy     =  -8.85 kcal/mol
DOCKED: USER        Electrostatic Energy            =  -1.74 kcal/mol
DOCKED: USER        Moving Ligand-Fixed Receptor    = -10.59 kcal/mol
DOCKED: USER        Moving Ligand-Moving Receptor   =  +0.00 kcal/mol
DOCKED: USER    (2) Final Total Internal Energy     =  -2.64 kcal/mol
DOCKED: USER    (3) Torsional Free Energy           =  +2.68 kcal/mol
DOCKED: USER    (4) Unbound System's Energy         =  -2.64 kcal/mol
DOCKED: USER
DOCKED: USER
DOCKED: REMARK SMILES CCC(=O)N(c1ccccc1)C1CC[N+](=C(O)[C@@H]([NH3+])C2Cc3ccccc3C2)CC1
DOCKED: REMARK SMILES IDX 12 1 13 2 14 3 15 4 29 5 30 6 5 7 3 8 4 9 2 10 1 11 6 12
DOCKED: REMARK SMILES IDX 7 13 11 14 8 15 10 16 9 17 16 18 17 19 18 21 19 22 20 26
DOCKED: REMARK SMILES IDX 21 27 28 28 22 29 27 30 23 31 26 32 24 33 25 34
DOCKED: REMARK H PARENT 17 20 19 23 19 24 19 25
DOCKED: USER                              x       y       z     vdW  Elec       q    Type
DOCKED: USER                           _______ _______ _______ _____ _____    ______ ____
DOCKED: ROOT
DOCKED: ATOM      1  C   UNL     1     140.560  73.795 219.043 -0.04 -0.02    +0.103 C  
DOCKED: ATOM      2  C   UNL     1     139.411  74.747 218.738 -0.02 -0.02    +0.098 C  
DOCKED: ATOM      3  C   UNL     1     139.853  76.166 218.377 +0.00 -0.10    +0.356 C  
DOCKED: ATOM      4  N   UNL     1     141.139  76.284 217.648 -0.03 +0.08    -0.197 N  
DOCKED: ATOM      5  C   UNL     1     141.976  75.106 217.313 -0.01 -0.12    +0.356 C  
DOCKED: ATOM      6  C   UNL     1     141.524  73.742 217.863 -0.02 -0.02    +0.098 C  
DOCKED: ENDROOT
DOCKED: BRANCH   1   7
DOCKED: ATOM      7  N   UNL     1     141.225  74.048 220.342 -0.08 +0.07    -0.309 N  
DOCKED: BRANCH   7   8
DOCKED: ATOM      8  C   UNL     1     140.515  74.380 221.547 -0.22 -0.03    +0.226 C  
DOCKED: ATOM      9  O   UNL     1     140.224  73.470 222.367 -0.79 +0.01    -0.275 OA 
DOCKED: BRANCH   8  10
DOCKED: ATOM     10  C   UNL     1     140.226  75.808 221.903 -0.31 -0.02    +0.097 C  
DOCKED: ATOM     11  C   UNL     1     138.761  75.997 222.287 -0.31 -0.00    +0.014 C  
DOCKED: ENDBRANCH   8  10
DOCKED: ENDBRANCH   7   8
DOCKED: BRANCH   7  12
DOCKED: ATOM     12  C   UNL     1     142.644  73.849 220.450 -0.28 -0.01    +0.044 A  
DOCKED: ATOM     13  C   UNL     1     143.166  72.556 220.609 -0.28 -0.00    +0.026 A  
DOCKED: ATOM     14  C   UNL     1     143.519  74.946 220.401 -0.31 -0.01    +0.026 A  
DOCKED: ATOM     15  C   UNL     1     144.547  72.362 220.699 -0.39 -0.00    +0.002 A  
DOCKED: ATOM     16  C   UNL     1     144.900  74.749 220.491 -0.39 -0.00    +0.002 A  
DOCKED: ATOM     17  C   UNL     1     145.414  73.457 220.637 -0.62 -0.00    +0.000 A  
DOCKED: ENDBRANCH   7  12
DOCKED: ENDBRANCH   1   7
DOCKED: BRANCH   4  18
DOCKED: ATOM     18  C   UNL     1     141.580  77.485 217.291 -0.06 -0.21    +0.394 C  
DOCKED: BRANCH  18  19
DOCKED: ATOM     19  O   UNL     1     141.340  78.007 216.009 -0.02 +0.26    -0.459 OA 
DOCKED: ATOM     20  H   UNL     1     140.746  77.588 215.307 +0.03 -0.13    +0.299 HD 
DOCKED: ENDBRANCH  18  19
DOCKED: BRANCH  18  21
DOCKED: ATOM     21  C   UNL     1     142.416  78.390 218.202 -0.18 -0.25    +0.322 C  
DOCKED: BRANCH  21  22
DOCKED: ATOM     22  N   UNL     1     142.910  79.532 217.419 -0.01 +0.45    -0.343 N  
DOCKED: ATOM     23  H   UNL     1     143.823  79.870 217.794 -0.38 -0.62    +0.345 HD 
DOCKED: ATOM     24  H   UNL     1     143.061  79.238 216.426 -0.40 -0.66    +0.345 HD 
DOCKED: ATOM     25  H   UNL     1     142.218  80.318 217.437 +0.08 -0.31    +0.345 HD 
DOCKED: ENDBRANCH  21  22
DOCKED: BRANCH  21  26
DOCKED: ATOM     26  C   UNL     1     141.568  78.869 219.413 -0.24 -0.04    +0.071 C  
DOCKED: ATOM     27  C   UNL     1     141.838  80.345 219.808 -0.30 -0.02    +0.046 C  
DOCKED: ATOM     28  C   UNL     1     141.826  78.030 220.692 -0.30 -0.03    +0.046 C  
DOCKED: ATOM     29  C   UNL     1     141.828  80.318 221.289 -0.38 +0.02    -0.044 A  
DOCKED: ATOM     30  C   UNL     1     141.824  79.036 221.778 -0.42 +0.02    -0.044 A  
DOCKED: ATOM     31  C   UNL     1     141.845  81.419 222.149 -0.47 -0.00    +0.004 A  
DOCKED: ATOM     32  C   UNL     1     141.833  78.787 223.154 -0.57 -0.00    +0.004 A  
DOCKED: ATOM     33  C   UNL     1     141.847  81.193 223.534 -0.60 -0.00    +0.000 A  
DOCKED: ATOM     34  C   UNL     1     141.842  79.878 224.035 -0.53 -0.00    +0.000 A  
DOCKED: ENDBRANCH  21  26
DOCKED: ENDBRANCH  18  21
DOCKED: ENDBRANCH   4  18
DOCKED: TORSDOF 9
DOCKED: TER
DOCKED: ENDMDL
________________________________________________________________________________


    FINAL DOCKED STATE:
    ________________________


Run:   15 / 20
Time taken for this run:   0.044s

DOCKED: MODEL        15
DOCKED: USER    Run = 15
DOCKED: USER
DOCKED: USER    Estimated Free Energy of Binding    =  -7.94 kcal/mol  [=(1)+(2)+(3)-(4)]
DOCKED: USER
DOCKED: USER    (1) Final Intermolecular Energy     = -10.63 kcal/mol
DOCKED: USER        vdW + Hbond + desolv Energy     =  -8.57 kcal/mol
DOCKED: USER        Electrostatic Energy            =  -2.05 kcal/mol
DOCKED: USER        Moving Ligand-Fixed Receptor    = -10.63 kcal/mol
DOCKED: USER        Moving Ligand-Moving Receptor   =  +0.00 kcal/mol
DOCKED: USER    (2) Final Total Internal Energy     =  -2.52 kcal/mol
DOCKED: USER    (3) Torsional Free Energy           =  +2.68 kcal/mol
DOCKED: USER    (4) Unbound System's Energy         =  -2.52 kcal/mol
DOCKED: USER
DOCKED: USER
DOCKED: REMARK SMILES CCC(=O)N(c1ccccc1)C1CC[N+](=C(O)[C@@H]([NH3+])C2Cc3ccccc3C2)CC1
DOCKED: REMARK SMILES IDX 12 1 13 2 14 3 15 4 29 5 30 6 5 7 3 8 4 9 2 10 1 11 6 12
DOCKED: REMARK SMILES IDX 7 13 11 14 8 15 10 16 9 17 16 18 17 19 18 21 19 22 20 26
DOCKED: REMARK SMILES IDX 21 27 28 28 22 29 27 30 23 31 26 32 24 33 25 34
DOCKED: REMARK H PARENT 17 20 19 23 19 24 19 25
DOCKED: USER                              x       y       z     vdW  Elec       q    Type
DOCKED: USER                           _______ _______ _______ _____ _____    ______ ____
DOCKED: ROOT
DOCKED: ATOM      1  C   UNL     1     139.134  81.183 221.251 -0.14 -0.02    +0.103 C  
DOCKED: ATOM      2  C   UNL     1     140.145  82.261 220.882 -0.21 -0.02    +0.098 C  
DOCKED: ATOM      3  C   UNL     1     141.301  81.765 220.013 -0.14 -0.11    +0.356 C  
DOCKED: ATOM      4  N   UNL     1     140.978  80.680 219.054 -0.11 +0.08    -0.197 N  
DOCKED: ATOM      5  C   UNL     1     139.625  80.077 218.959 -0.02 -0.11    +0.356 C  
DOCKED: ATOM      6  C   UNL     1     138.577  80.534 219.989 -0.05 -0.02    +0.098 C  
DOCKED: ENDROOT
DOCKED: BRANCH   1   7
DOCKED: ATOM      7  N   UNL     1     139.628  80.208 222.251 -0.10 +0.06    -0.309 N  
DOCKED: BRANCH   7   8
DOCKED: ATOM      8  C   UNL     1     138.876  79.062 222.683 -0.20 -0.04    +0.226 C  
DOCKED: ATOM      9  O   UNL     1     137.751  79.225 223.224 -0.17 +0.04    -0.275 OA 
DOCKED: BRANCH   8  10
DOCKED: ATOM     10  C   UNL     1     139.353  77.671 222.388 -0.28 -0.02    +0.097 C  
DOCKED: ATOM     11  C   UNL     1     138.191  76.682 222.361 -0.29 -0.00    +0.014 C  
DOCKED: ENDBRANCH   8  10
DOCKED: ENDBRANCH   7   8
DOCKED: BRANCH   7  12
DOCKED: ATOM     12  C   UNL     1     140.970  80.339 222.748 -0.42 -0.01    +0.044 A  
DOCKED: ATOM     13  C   UNL     1     141.268  81.288 223.737 -0.45 -0.00    +0.026 A  
DOCKED: ATOM     14  C   UNL     1     141.995  79.521 222.244 -0.50 -0.01    +0.026 A  
DOCKED: ATOM     15  C   UNL     1     142.570  81.405 224.230 -0.61 -0.00    +0.002 A  
DOCKED: ATOM     16  C   UNL     1     143.297  79.640 222.739 -0.44 -0.00    +0.002 A  
DOCKED: ATOM     17  C   UNL     1     143.584  80.580 223.733 -0.50 -0.00    +0.000 A  
DOCKED: ENDBRANCH   7  12
DOCKED: ENDBRANCH   1   7
DOCKED: BRANCH   4  18
DOCKED: ATOM     18  C   UNL     1     141.930  80.207 218.257 -0.15 -0.27    +0.394 C  
DOCKED: BRANCH  18  19
DOCKED: ATOM     19  O   UNL     1     142.920  81.044 217.715 -0.19 +0.47    -0.459 OA 
DOCKED: ATOM     20  H   UNL     1     143.794  80.736 217.314 -0.37 -0.63    +0.299 HD 
DOCKED: ENDBRANCH  18  19
DOCKED: BRANCH  18  21
DOCKED: ATOM     21  C   UNL     1     142.021  78.743 217.818 -0.16 -0.24    +0.322 C  
DOCKED: BRANCH  21  22
DOCKED: ATOM     22  N   UNL     1     142.943  78.642 216.677 +0.07 +0.46    -0.343 N  
DOCKED: ATOM     23  H   UNL     1     142.974  79.541 216.146 -0.40 -0.67    +0.345 HD 
DOCKED: ATOM     24  H   UNL     1     143.910  78.442 217.024 -0.32 -0.60    +0.345 HD 
DOCKED: ATOM     25  H   UNL     1     142.649  77.871 216.032 +0.05 -0.32    +0.345 HD 
DOCKED: ENDBRANCH  21  22
DOCKED: BRANCH  21  26
DOCKED: ATOM     26  C   UNL     1     142.498  77.853 219.000 -0.25 -0.05    +0.071 C  
DOCKED: ATOM     27  C   UNL     1     143.332  76.624 218.548 -0.30 -0.03    +0.046 C  
DOCKED: ATOM     28  C   UNL     1     141.319  77.286 219.833 -0.22 -0.02    +0.046 C  
DOCKED: ATOM     29  C   UNL     1     142.857  75.536 219.434 -0.30 +0.02    -0.044 A  
DOCKED: ATOM     30  C   UNL     1     141.742  75.902 220.144 -0.25 +0.02    -0.044 A  
DOCKED: ATOM     31  C   UNL     1     143.411  74.259 219.565 -0.31 -0.00    +0.004 A  
DOCKED: ATOM     32  C   UNL     1     141.122  75.012 221.026 -0.30 -0.00    +0.004 A  
DOCKED: ATOM     33  C   UNL     1     142.810  73.352 220.450 -0.29 -0.00    +0.000 A  
DOCKED: ATOM     34  C   UNL     1     141.665  73.728 221.179 -0.27 -0.00    +0.000 A  
DOCKED: ENDBRANCH  21  26
DOCKED: ENDBRANCH  18  21
DOCKED: ENDBRANCH   4  18
DOCKED: TORSDOF 9
DOCKED: TER
DOCKED: ENDMDL
________________________________________________________________________________


    FINAL DOCKED STATE:
    ________________________


Run:   16 / 20
Time taken for this run:   0.044s

DOCKED: MODEL        16
DOCKED: USER    Run = 16
DOCKED: USER
DOCKED: USER    Estimated Free Energy of Binding    =  -7.33 kcal/mol  [=(1)+(2)+(3)-(4)]
DOCKED: USER
DOCKED: USER    (1) Final Intermolecular Energy     = -10.02 kcal/mol
DOCKED: USER        vdW + Hbond + desolv Energy     =  -8.28 kcal/mol
DOCKED: USER        Electrostatic Energy            =  -1.73 kcal/mol
DOCKED: USER        Moving Ligand-Fixed Receptor    = -10.02 kcal/mol
DOCKED: USER        Moving Ligand-Moving Receptor   =  +0.00 kcal/mol
DOCKED: USER    (2) Final Total Internal Energy     =  -2.59 kcal/mol
DOCKED: USER    (3) Torsional Free Energy           =  +2.68 kcal/mol
DOCKED: USER    (4) Unbound System's Energy         =  -2.59 kcal/mol
DOCKED: USER
DOCKED: USER
DOCKED: REMARK SMILES CCC(=O)N(c1ccccc1)C1CC[N+](=C(O)[C@@H]([NH3+])C2Cc3ccccc3C2)CC1
DOCKED: REMARK SMILES IDX 12 1 13 2 14 3 15 4 29 5 30 6 5 7 3 8 4 9 2 10 1 11 6 12
DOCKED: REMARK SMILES IDX 7 13 11 14 8 15 10 16 9 17 16 18 17 19 18 21 19 22 20 26
DOCKED: REMARK SMILES IDX 21 27 28 28 22 29 27 30 23 31 26 32 24 33 25 34
DOCKED: REMARK H PARENT 17 20 19 23 19 24 19 25
DOCKED: USER                              x       y       z     vdW  Elec       q    Type
DOCKED: USER                           _______ _______ _______ _____ _____    ______ ____
DOCKED: ROOT
DOCKED: ATOM      1  C   UNL     1     141.144  73.418 218.733 -0.04 -0.02    +0.103 C  
DOCKED: ATOM      2  C   UNL     1     139.832  74.121 218.413 -0.02 -0.02    +0.098 C  
DOCKED: ATOM      3  C   UNL     1     139.963  75.631 218.210 +0.00 -0.10    +0.356 C  
DOCKED: ATOM      4  N   UNL     1     141.233  76.100 217.604 -0.03 +0.07    -0.197 N  
DOCKED: ATOM      5  C   UNL     1     142.334  75.174 217.244 -0.02 -0.13    +0.356 C  
DOCKED: ATOM      6  C   UNL     1     142.168  73.696 217.638 -0.03 -0.02    +0.098 C  
DOCKED: ENDROOT
DOCKED: BRANCH   1   7
DOCKED: ATOM      7  N   UNL     1     141.651  73.680 220.101 -0.07 +0.07    -0.309 N  
DOCKED: BRANCH   7   8
DOCKED: ATOM      8  C   UNL     1     140.800  73.826 221.250 -0.20 -0.03    +0.226 C  
DOCKED: ATOM      9  O   UNL     1     140.791  74.917 221.880 -0.62 +0.03    -0.275 OA 
DOCKED: BRANCH   8  10
DOCKED: ATOM     10  C   UNL     1     139.833  72.747 221.636 -0.22 -0.02    +0.097 C  
DOCKED: ATOM     11  C   UNL     1     140.331  71.966 222.849 -0.34 -0.00    +0.014 C  
DOCKED: ENDBRANCH   8  10
DOCKED: ENDBRANCH   7   8
DOCKED: BRANCH   7  12
DOCKED: ATOM     12  C   UNL     1     143.070  73.683 220.330 -0.29 -0.01    +0.044 A  
DOCKED: ATOM     13  C   UNL     1     143.743  72.483 220.606 -0.32 -0.00    +0.026 A  
DOCKED: ATOM     14  C   UNL     1     143.793  74.885 220.283 -0.38 -0.01    +0.026 A  
DOCKED: ATOM     15  C   UNL     1     145.125  72.484 220.814 -0.39 -0.00    +0.002 A  
DOCKED: ATOM     16  C   UNL     1     145.175  74.884 220.492 -0.22 -0.00    +0.002 A  
DOCKED: ATOM     17  C   UNL     1     145.841  73.683 220.755 -0.68 -0.00    +0.000 A  
DOCKED: ENDBRANCH   7  12
DOCKED: ENDBRANCH   1   7
DOCKED: BRANCH   4  18
DOCKED: ATOM     18  C   UNL     1     141.412  77.399 217.387 -0.04 -0.20    +0.394 C  
DOCKED: BRANCH  18  19
DOCKED: ATOM     19  O   UNL     1     140.786  78.060 216.317 -0.00 +0.22    -0.459 OA 
DOCKED: ATOM     20  H   UNL     1     139.808  78.309 216.273 +0.03 -0.11    +0.299 HD 
DOCKED: ENDBRANCH  18  19
DOCKED: BRANCH  18  21
DOCKED: ATOM     21  C   UNL     1     142.335  78.283 218.232 -0.18 -0.24    +0.322 C  
DOCKED: BRANCH  21  22
DOCKED: ATOM     22  N   UNL     1     142.861  79.367 217.391 -0.03 +0.44    -0.343 N  
DOCKED: ATOM     23  H   UNL     1     143.218  80.152 217.979 -0.04 -0.43    +0.345 HD 
DOCKED: ATOM     24  H   UNL     1     143.659  79.010 216.816 -0.41 -0.82    +0.345 HD 
DOCKED: ATOM     25  H   UNL     1     142.117  79.729 216.748 +0.03 -0.35    +0.345 HD 
DOCKED: ENDBRANCH  21  22
DOCKED: BRANCH  21  26
DOCKED: ATOM     26  C   UNL     1     141.565  78.851 219.457 -0.24 -0.04    +0.071 C  
DOCKED: ATOM     27  C   UNL     1     142.197  80.145 220.034 -0.17 -0.03    +0.046 C  
DOCKED: ATOM     28  C   UNL     1     141.495  77.846 220.637 -0.30 -0.02    +0.046 C  
DOCKED: ATOM     29  C   UNL     1     142.075  79.969 221.501 -0.40 +0.02    -0.044 A  
DOCKED: ATOM     30  C   UNL     1     141.688  78.696 221.834 -0.40 +0.02    -0.044 A  
DOCKED: ATOM     31  C   UNL     1     142.329  80.928 222.485 -0.53 -0.00    +0.004 A  
DOCKED: ATOM     32  C   UNL     1     141.532  78.313 223.169 -0.53 -0.00    +0.004 A  
DOCKED: ATOM     33  C   UNL     1     142.172  80.569 223.832 -0.64 -0.00    +0.000 A  
DOCKED: ATOM     34  C   UNL     1     141.775  79.262 224.174 -0.56 -0.00    +0.000 A  
DOCKED: ENDBRANCH  21  26
DOCKED: ENDBRANCH  18  21
DOCKED: ENDBRANCH   4  18
DOCKED: TORSDOF 9
DOCKED: TER
DOCKED: ENDMDL
________________________________________________________________________________


    FINAL DOCKED STATE:
    ________________________


Run:   17 / 20
Time taken for this run:   0.044s

DOCKED: MODEL        17
DOCKED: USER    Run = 17
DOCKED: USER
DOCKED: USER    Estimated Free Energy of Binding    =  -7.89 kcal/mol  [=(1)+(2)+(3)-(4)]
DOCKED: USER
DOCKED: USER    (1) Final Intermolecular Energy     = -10.57 kcal/mol
DOCKED: USER        vdW + Hbond + desolv Energy     =  -8.54 kcal/mol
DOCKED: USER        Electrostatic Energy            =  -2.03 kcal/mol
DOCKED: USER        Moving Ligand-Fixed Receptor    = -10.57 kcal/mol
DOCKED: USER        Moving Ligand-Moving Receptor   =  +0.00 kcal/mol
DOCKED: USER    (2) Final Total Internal Energy     =  -2.63 kcal/mol
DOCKED: USER    (3) Torsional Free Energy           =  +2.68 kcal/mol
DOCKED: USER    (4) Unbound System's Energy         =  -2.63 kcal/mol
DOCKED: USER
DOCKED: USER
DOCKED: REMARK SMILES CCC(=O)N(c1ccccc1)C1CC[N+](=C(O)[C@@H]([NH3+])C2Cc3ccccc3C2)CC1
DOCKED: REMARK SMILES IDX 12 1 13 2 14 3 15 4 29 5 30 6 5 7 3 8 4 9 2 10 1 11 6 12
DOCKED: REMARK SMILES IDX 7 13 11 14 8 15 10 16 9 17 16 18 17 19 18 21 19 22 20 26
DOCKED: REMARK SMILES IDX 21 27 28 28 22 29 27 30 23 31 26 32 24 33 25 34
DOCKED: REMARK H PARENT 17 20 19 23 19 24 19 25
DOCKED: USER                              x       y       z     vdW  Elec       q    Type
DOCKED: USER                           _______ _______ _______ _____ _____    ______ ____
DOCKED: ROOT
DOCKED: ATOM      1  C   UNL     1     139.209  81.521 221.150 -0.14 -0.02    +0.103 C  
DOCKED: ATOM      2  C   UNL     1     140.320  82.505 220.807 -0.23 -0.02    +0.098 C  
DOCKED: ATOM      3  C   UNL     1     141.445  81.910 219.960 -0.13 -0.11    +0.356 C  
DOCKED: ATOM      4  N   UNL     1     141.048  80.860 218.991 -0.12 +0.08    -0.197 N  
DOCKED: ATOM      5  C   UNL     1     139.649  80.380 218.865 -0.02 -0.11    +0.356 C  
DOCKED: ATOM      6  C   UNL     1     138.624  80.926 219.874 -0.05 -0.02    +0.098 C  
DOCKED: ENDROOT
DOCKED: BRANCH   1   7
DOCKED: ATOM      7  N   UNL     1     139.593  80.505 222.157 -0.09 +0.06    -0.309 N  
DOCKED: BRANCH   7   8
DOCKED: ATOM      8  C   UNL     1     138.735  79.426 222.565 -0.18 -0.04    +0.226 C  
DOCKED: ATOM      9  O   UNL     1     139.070  78.238 222.311 -0.16 +0.06    -0.275 OA 
DOCKED: BRANCH   8  10
DOCKED: ATOM     10  C   UNL     1     137.513  79.682 223.394 -0.21 -0.01    +0.097 C  
DOCKED: ATOM     11  C   UNL     1     137.756  80.797 224.408 -0.38 -0.00    +0.014 C  
DOCKED: ENDBRANCH   8  10
DOCKED: ENDBRANCH   7   8
DOCKED: BRANCH   7  12
DOCKED: ATOM     12  C   UNL     1     140.928  80.518 222.687 -0.41 -0.01    +0.044 A  
DOCKED: ATOM     13  C   UNL     1     141.284  81.440 223.684 -0.37 -0.00    +0.026 A  
DOCKED: ATOM     14  C   UNL     1     141.889  79.613 222.209 -0.49 -0.01    +0.026 A  
DOCKED: ATOM     15  C   UNL     1     142.579  81.443 224.209 -0.61 -0.00    +0.002 A  
DOCKED: ATOM     16  C   UNL     1     143.184  79.618 222.736 -0.48 -0.00    +0.002 A  
DOCKED: ATOM     17  C   UNL     1     143.528  80.531 223.738 -0.54 -0.00    +0.000 A  
DOCKED: ENDBRANCH   7  12
DOCKED: ENDBRANCH   1   7
DOCKED: BRANCH   4  18
DOCKED: ATOM     18  C   UNL     1     141.971  80.305 218.213 -0.15 -0.27    +0.394 C  
DOCKED: BRANCH  18  19
DOCKED: ATOM     19  O   UNL     1     142.992  81.069 217.623 -0.19 +0.50    -0.459 OA 
DOCKED: ATOM     20  H   UNL     1     143.835  80.699 217.207 -0.35 -0.70    +0.299 HD 
DOCKED: ENDBRANCH  18  19
DOCKED: BRANCH  18  21
DOCKED: ATOM     21  C   UNL     1     141.994  78.817 217.848 -0.16 -0.24    +0.322 C  
DOCKED: BRANCH  21  22
DOCKED: ATOM     22  N   UNL     1     142.948  78.609 216.750 +0.03 +0.45    -0.343 N  
DOCKED: ATOM     23  H   UNL     1     142.653  77.807 216.150 +0.05 -0.31    +0.345 HD 
DOCKED: ATOM     24  H   UNL     1     142.982  79.464 216.147 -0.39 -0.67    +0.345 HD 
DOCKED: ATOM     25  H   UNL     1     143.908  78.422 217.126 -0.31 -0.57    +0.345 HD 
DOCKED: ENDBRANCH  21  22
DOCKED: BRANCH  21  26
DOCKED: ATOM     26  C   UNL     1     142.377  77.962 219.089 -0.23 -0.05    +0.071 C  
DOCKED: ATOM     27  C   UNL     1     143.083  76.630 218.724 -0.32 -0.03    +0.046 C  
DOCKED: ATOM     28  C   UNL     1     141.145  77.572 219.947 -0.21 -0.02    +0.046 C  
DOCKED: ATOM     29  C   UNL     1     142.500  75.654 219.674 -0.29 +0.02    -0.044 A  
DOCKED: ATOM     30  C   UNL     1     141.426  76.175 220.349 -0.25 +0.02    -0.044 A  
DOCKED: ATOM     31  C   UNL     1     142.923  74.340 219.891 -0.30 -0.00    +0.004 A  
DOCKED: ATOM     32  C   UNL     1     140.718  75.411 221.281 -0.32 -0.00    +0.004 A  
DOCKED: ATOM     33  C   UNL     1     142.231  73.556 220.828 -0.28 -0.00    +0.000 A  
DOCKED: ATOM     34  C   UNL     1     141.129  74.091 221.521 -0.29 -0.00    +0.000 A  
DOCKED: ENDBRANCH  21  26
DOCKED: ENDBRANCH  18  21
DOCKED: ENDBRANCH   4  18
DOCKED: TORSDOF 9
DOCKED: TER
DOCKED: ENDMDL
________________________________________________________________________________


    FINAL DOCKED STATE:
    ________________________


Run:   18 / 20
Time taken for this run:   0.044s

DOCKED: MODEL        18
DOCKED: USER    Run = 18
DOCKED: USER
DOCKED: USER    Estimated Free Energy of Binding    =  -7.98 kcal/mol  [=(1)+(2)+(3)-(4)]
DOCKED: USER
DOCKED: USER    (1) Final Intermolecular Energy     = -10.66 kcal/mol
DOCKED: USER        vdW + Hbond + desolv Energy     =  -8.75 kcal/mol
DOCKED: USER        Electrostatic Energy            =  -1.91 kcal/mol
DOCKED: USER        Moving Ligand-Fixed Receptor    = -10.66 kcal/mol
DOCKED: USER        Moving Ligand-Moving Receptor   =  +0.00 kcal/mol
DOCKED: USER    (2) Final Total Internal Energy     =  -2.56 kcal/mol
DOCKED: USER    (3) Torsional Free Energy           =  +2.68 kcal/mol
DOCKED: USER    (4) Unbound System's Energy         =  -2.56 kcal/mol
DOCKED: USER
DOCKED: USER
DOCKED: REMARK SMILES CCC(=O)N(c1ccccc1)C1CC[N+](=C(O)[C@@H]([NH3+])C2Cc3ccccc3C2)CC1
DOCKED: REMARK SMILES IDX 12 1 13 2 14 3 15 4 29 5 30 6 5 7 3 8 4 9 2 10 1 11 6 12
DOCKED: REMARK SMILES IDX 7 13 11 14 8 15 10 16 9 17 16 18 17 19 18 21 19 22 20 26
DOCKED: REMARK SMILES IDX 21 27 28 28 22 29 27 30 23 31 26 32 24 33 25 34
DOCKED: REMARK H PARENT 17 20 19 23 19 24 19 25
DOCKED: USER                              x       y       z     vdW  Elec       q    Type
DOCKED: USER                           _______ _______ _______ _____ _____    ______ ____
DOCKED: ROOT
DOCKED: ATOM      1  C   UNL     1     140.464  74.056 218.920 -0.04 -0.02    +0.103 C  
DOCKED: ATOM      2  C   UNL     1     139.405  75.094 218.567 -0.02 -0.02    +0.098 C  
DOCKED: ATOM      3  C   UNL     1     139.971  76.470 218.215 +0.00 -0.11    +0.356 C  
DOCKED: ATOM      4  N   UNL     1     141.288  76.481 217.534 -0.04 +0.08    -0.197 N  
DOCKED: ATOM      5  C   UNL     1     142.042  75.237 217.238 -0.02 -0.13    +0.356 C  
DOCKED: ATOM      6  C   UNL     1     141.463  73.918 217.777 -0.02 -0.02    +0.098 C  
DOCKED: ENDROOT
DOCKED: BRANCH   1   7
DOCKED: ATOM      7  N   UNL     1     141.098  74.267 220.242 -0.07 +0.07    -0.309 N  
DOCKED: BRANCH   7   8
DOCKED: ATOM      8  C   UNL     1     140.367  74.624 221.427 -0.22 -0.04    +0.226 C  
DOCKED: ATOM      9  O   UNL     1     140.230  73.778 222.350 -0.82 -0.00    -0.275 OA 
DOCKED: BRANCH   8  10
DOCKED: ATOM     10  C   UNL     1     139.871  76.024 221.636 -0.29 -0.02    +0.097 C  
DOCKED: ATOM     11  C   UNL     1     138.542  76.035 222.385 -0.30 -0.00    +0.014 C  
DOCKED: ENDBRANCH   8  10
DOCKED: ENDBRANCH   7   8
DOCKED: BRANCH   7  12
DOCKED: ATOM     12  C   UNL     1     142.502  74.000 220.392 -0.27 -0.01    +0.044 A  
DOCKED: ATOM     13  C   UNL     1     142.949  72.693 220.640 -0.27 -0.00    +0.026 A  
DOCKED: ATOM     14  C   UNL     1     143.436  75.044 220.298 -0.31 -0.01    +0.026 A  
DOCKED: ATOM     15  C   UNL     1     144.316  72.431 220.771 -0.39 -0.00    +0.002 A  
DOCKED: ATOM     16  C   UNL     1     144.803  74.779 220.430 -0.40 -0.00    +0.002 A  
DOCKED: ATOM     17  C   UNL     1     145.242  73.473 220.664 -0.60 -0.00    +0.000 A  
DOCKED: ENDBRANCH   7  12
DOCKED: ENDBRANCH   1   7
DOCKED: BRANCH   4  18
DOCKED: ATOM     18  C   UNL     1     141.836  77.641 217.187 -0.08 -0.24    +0.394 C  
DOCKED: BRANCH  18  19
DOCKED: ATOM     19  O   UNL     1     141.824  78.092 215.857 -0.05 +0.32    -0.459 OA 
DOCKED: ATOM     20  H   UNL     1     142.582  77.991 215.196 +0.04 -0.27    +0.299 HD 
DOCKED: ENDBRANCH  18  19
DOCKED: BRANCH  18  21
DOCKED: ATOM     21  C   UNL     1     142.560  78.567 218.169 -0.19 -0.27    +0.322 C  
DOCKED: BRANCH  21  22
DOCKED: ATOM     22  N   UNL     1     142.945  79.800 217.469 -0.02 +0.46    -0.343 N  
DOCKED: ATOM     23  H   UNL     1     143.843  80.176 217.846 -0.35 -0.59    +0.345 HD 
DOCKED: ATOM     24  H   UNL     1     143.086  79.597 216.451 -0.43 -0.72    +0.345 HD 
DOCKED: ATOM     25  H   UNL     1     142.198  80.528 217.567 +0.09 -0.29    +0.345 HD 
DOCKED: ENDBRANCH  21  22
DOCKED: BRANCH  21  26
DOCKED: ATOM     26  C   UNL     1     141.649  78.880 219.389 -0.24 -0.04    +0.071 C  
DOCKED: ATOM     27  C   UNL     1     141.804  80.331 219.917 -0.30 -0.02    +0.046 C  
DOCKED: ATOM     28  C   UNL     1     141.933  77.952 220.600 -0.25 -0.03    +0.046 C  
DOCKED: ATOM     29  C   UNL     1     141.757  80.173 221.389 -0.39 +0.02    -0.044 A  
DOCKED: ATOM     30  C   UNL     1     141.830  78.856 221.767 -0.41 +0.02    -0.044 A  
DOCKED: ATOM     31  C   UNL     1     141.674  81.194 222.340 -0.49 -0.00    +0.004 A  
DOCKED: ATOM     32  C   UNL     1     141.821  78.490 223.116 -0.51 -0.00    +0.004 A  
DOCKED: ATOM     33  C   UNL     1     141.656  80.849 223.700 -0.58 -0.00    +0.000 A  
DOCKED: ATOM     34  C   UNL     1     141.731  79.498 224.087 -0.54 -0.00    +0.000 A  
DOCKED: ENDBRANCH  21  26
DOCKED: ENDBRANCH  18  21
DOCKED: ENDBRANCH   4  18
DOCKED: TORSDOF 9
DOCKED: TER
DOCKED: ENDMDL
________________________________________________________________________________


    FINAL DOCKED STATE:
    ________________________


Run:   19 / 20
Time taken for this run:   0.044s

DOCKED: MODEL        19
DOCKED: USER    Run = 19
DOCKED: USER
DOCKED: USER    Estimated Free Energy of Binding    =  -7.96 kcal/mol  [=(1)+(2)+(3)-(4)]
DOCKED: USER
DOCKED: USER    (1) Final Intermolecular Energy     = -10.65 kcal/mol
DOCKED: USER        vdW + Hbond + desolv Energy     =  -8.87 kcal/mol
DOCKED: USER        Electrostatic Energy            =  -1.78 kcal/mol
DOCKED: USER        Moving Ligand-Fixed Receptor    = -10.65 kcal/mol
DOCKED: USER        Moving Ligand-Moving Receptor   =  +0.00 kcal/mol
DOCKED: USER    (2) Final Total Internal Energy     =  -2.65 kcal/mol
DOCKED: USER    (3) Torsional Free Energy           =  +2.68 kcal/mol
DOCKED: USER    (4) Unbound System's Energy         =  -2.65 kcal/mol
DOCKED: USER
DOCKED: USER
DOCKED: REMARK SMILES CCC(=O)N(c1ccccc1)C1CC[N+](=C(O)[C@@H]([NH3+])C2Cc3ccccc3C2)CC1
DOCKED: REMARK SMILES IDX 12 1 13 2 14 3 15 4 29 5 30 6 5 7 3 8 4 9 2 10 1 11 6 12
DOCKED: REMARK SMILES IDX 7 13 11 14 8 15 10 16 9 17 16 18 17 19 18 21 19 22 20 26
DOCKED: REMARK SMILES IDX 21 27 28 28 22 29 27 30 23 31 26 32 24 33 25 34
DOCKED: REMARK H PARENT 17 20 19 23 19 24 19 25
DOCKED: USER                              x       y       z     vdW  Elec       q    Type
DOCKED: USER                           _______ _______ _______ _____ _____    ______ ____
DOCKED: ROOT
DOCKED: ATOM      1  C   UNL     1     140.462  73.888 219.053 -0.04 -0.02    +0.103 C  
DOCKED: ATOM      2  C   UNL     1     139.354  74.880 218.724 -0.02 -0.02    +0.098 C  
DOCKED: ATOM      3  C   UNL     1     139.854  76.279 218.361 +0.00 -0.10    +0.356 C  
DOCKED: ATOM      4  N   UNL     1     141.154  76.345 217.650 -0.03 +0.08    -0.197 N  
DOCKED: ATOM      5  C   UNL     1     141.952  75.133 217.336 -0.01 -0.12    +0.356 C  
DOCKED: ATOM      6  C   UNL     1     141.441  73.791 217.888 -0.02 -0.02    +0.098 C  
DOCKED: ENDROOT
DOCKED: BRANCH   1   7
DOCKED: ATOM      7  N   UNL     1     141.117  74.126 220.361 -0.08 +0.07    -0.309 N  
DOCKED: BRANCH   7   8
DOCKED: ATOM      8  C   UNL     1     140.397  74.434 221.566 -0.22 -0.03    +0.226 C  
DOCKED: ATOM      9  O   UNL     1     140.103  73.507 222.367 -0.80 +0.01    -0.275 OA 
DOCKED: BRANCH   8  10
DOCKED: ATOM     10  C   UNL     1     140.099  75.854 221.946 -0.31 -0.02    +0.097 C  
DOCKED: ATOM     11  C   UNL     1     138.633  76.028 222.329 -0.31 -0.00    +0.014 C  
DOCKED: ENDBRANCH   8  10
DOCKED: ENDBRANCH   7   8
DOCKED: BRANCH   7  12
DOCKED: ATOM     12  C   UNL     1     142.537  73.937 220.474 -0.27 -0.01    +0.044 A  
DOCKED: ATOM     13  C   UNL     1     143.062  72.658 220.717 -0.28 -0.00    +0.026 A  
DOCKED: ATOM     14  C   UNL     1     143.410  75.029 220.348 -0.30 -0.01    +0.026 A  
DOCKED: ATOM     15  C   UNL     1     144.443  72.471 220.813 -0.41 -0.00    +0.002 A  
DOCKED: ATOM     16  C   UNL     1     144.792  74.840 220.444 -0.38 -0.00    +0.002 A  
DOCKED: ATOM     17  C   UNL     1     145.308  73.561 220.674 -0.61 -0.00    +0.000 A  
DOCKED: ENDBRANCH   7  12
DOCKED: ENDBRANCH   1   7
DOCKED: BRANCH   4  18
DOCKED: ATOM     18  C   UNL     1     141.645  77.526 217.292 -0.06 -0.22    +0.394 C  
DOCKED: BRANCH  18  19
DOCKED: ATOM     19  O   UNL     1     141.475  78.030 215.992 -0.03 +0.28    -0.459 OA 
DOCKED: ATOM     20  H   UNL     1     141.839  77.612 215.148 +0.04 -0.18    +0.299 HD 
DOCKED: ENDBRANCH  18  19
DOCKED: BRANCH  18  21
DOCKED: ATOM     21  C   UNL     1     142.468  78.423 218.222 -0.19 -0.25    +0.322 C  
DOCKED: BRANCH  21  22
DOCKED: ATOM     22  N   UNL     1     142.944  79.589 217.465 -0.03 +0.45    -0.343 N  
DOCKED: ATOM     23  H   UNL     1     143.040  79.358 216.451 -0.42 -0.66    +0.345 HD 
DOCKED: ATOM     24  H   UNL     1     142.253  80.370 217.551 +0.08 -0.31    +0.345 HD 
DOCKED: ATOM     25  H   UNL     1     143.869  79.915 217.832 -0.37 -0.61    +0.345 HD 
DOCKED: ENDBRANCH  21  22
DOCKED: BRANCH  21  26
DOCKED: ATOM     26  C   UNL     1     141.613  78.863 219.444 -0.24 -0.04    +0.071 C  
DOCKED: ATOM     27  C   UNL     1     141.910  80.312 219.912 -0.28 -0.02    +0.046 C  
DOCKED: ATOM     28  C   UNL     1     141.835  77.959 220.685 -0.30 -0.03    +0.046 C  
DOCKED: ATOM     29  C   UNL     1     141.878  80.215 221.390 -0.39 +0.02    -0.044 A  
DOCKED: ATOM     30  C   UNL     1     141.839  78.912 221.818 -0.42 +0.02    -0.044 A  
DOCKED: ATOM     31  C   UNL     1     141.908  81.274 222.302 -0.49 -0.00    +0.004 A  
DOCKED: ATOM     32  C   UNL     1     141.823  78.597 223.179 -0.56 -0.00    +0.004 A  
DOCKED: ATOM     33  C   UNL     1     141.885  80.982 223.674 -0.61 -0.00    +0.000 A  
DOCKED: ATOM     34  C   UNL     1     141.844  79.645 224.112 -0.52 -0.00    +0.000 A  
DOCKED: ENDBRANCH  21  26
DOCKED: ENDBRANCH  18  21
DOCKED: ENDBRANCH   4  18
DOCKED: TORSDOF 9
DOCKED: TER
DOCKED: ENDMDL
________________________________________________________________________________


    FINAL DOCKED STATE:
    ________________________


Run:   20 / 20
Time taken for this run:   0.044s

DOCKED: MODEL        20
DOCKED: USER    Run = 20
DOCKED: USER
DOCKED: USER    Estimated Free Energy of Binding    =  -7.96 kcal/mol  [=(1)+(2)+(3)-(4)]
DOCKED: USER
DOCKED: USER    (1) Final Intermolecular Energy     = -10.64 kcal/mol
DOCKED: USER        vdW + Hbond + desolv Energy     =  -8.57 kcal/mol
DOCKED: USER        Electrostatic Energy            =  -2.07 kcal/mol
DOCKED: USER        Moving Ligand-Fixed Receptor    = -10.64 kcal/mol
DOCKED: USER        Moving Ligand-Moving Receptor   =  +0.00 kcal/mol
DOCKED: USER    (2) Final Total Internal Energy     =  -2.49 kcal/mol
DOCKED: USER    (3) Torsional Free Energy           =  +2.68 kcal/mol
DOCKED: USER    (4) Unbound System's Energy         =  -2.49 kcal/mol
DOCKED: USER
DOCKED: USER
DOCKED: REMARK SMILES CCC(=O)N(c1ccccc1)C1CC[N+](=C(O)[C@@H]([NH3+])C2Cc3ccccc3C2)CC1
DOCKED: REMARK SMILES IDX 12 1 13 2 14 3 15 4 29 5 30 6 5 7 3 8 4 9 2 10 1 11 6 12
DOCKED: REMARK SMILES IDX 7 13 11 14 8 15 10 16 9 17 16 18 17 19 18 21 19 22 20 26
DOCKED: REMARK SMILES IDX 21 27 28 28 22 29 27 30 23 31 26 32 24 33 25 34
DOCKED: REMARK H PARENT 17 20 19 23 19 24 19 25
DOCKED: USER                              x       y       z     vdW  Elec       q    Type
DOCKED: USER                           _______ _______ _______ _____ _____    ______ ____
DOCKED: ROOT
DOCKED: ATOM      1  C   UNL     1     139.155  81.220 221.218 -0.13 -0.02    +0.103 C  
DOCKED: ATOM      2  C   UNL     1     140.194  82.276 220.864 -0.22 -0.02    +0.098 C  
DOCKED: ATOM      3  C   UNL     1     141.348  81.757 220.005 -0.14 -0.11    +0.356 C  
DOCKED: ATOM      4  N   UNL     1     141.011  80.683 219.039 -0.11 +0.08    -0.197 N  
DOCKED: ATOM      5  C   UNL     1     139.646  80.112 218.927 -0.02 -0.11    +0.356 C  
DOCKED: ATOM      6  C   UNL     1     138.598  80.589 219.947 -0.05 -0.02    +0.098 C  
DOCKED: ENDROOT
DOCKED: BRANCH   1   7
DOCKED: ATOM      7  N   UNL     1     139.616  80.231 222.220 -0.09 +0.06    -0.309 N  
DOCKED: BRANCH   7   8
DOCKED: ATOM      8  C   UNL     1     138.835  79.100 222.638 -0.20 -0.04    +0.226 C  
DOCKED: ATOM      9  O   UNL     1     137.704  79.286 223.163 -0.16 +0.04    -0.275 OA 
DOCKED: BRANCH   8  10
DOCKED: ATOM     10  C   UNL     1     139.287  77.700 222.349 -0.28 -0.02    +0.097 C  
DOCKED: ATOM     11  C   UNL     1     138.165  76.694 222.591 -0.29 -0.00    +0.014 C  
DOCKED: ENDBRANCH   8  10
DOCKED: ENDBRANCH   7   8
DOCKED: BRANCH   7  12
DOCKED: ATOM     12  C   UNL     1     140.955  80.330 222.732 -0.42 -0.01    +0.044 A  
DOCKED: ATOM     13  C   UNL     1     141.964  79.488 222.239 -0.50 -0.01    +0.026 A  
DOCKED: ATOM     14  C   UNL     1     141.265  81.265 223.732 -0.47 -0.00    +0.026 A  
DOCKED: ATOM     15  C   UNL     1     143.269  79.594 222.726 -0.43 -0.00    +0.002 A  
DOCKED: ATOM     16  C   UNL     1     142.571  81.369 224.219 -0.62 -0.00    +0.002 A  
DOCKED: ATOM     17  C   UNL     1     143.574  80.535 223.714 -0.52 -0.00    +0.000 A  
DOCKED: ENDBRANCH   7  12
DOCKED: ENDBRANCH   1   7
DOCKED: BRANCH   4  18
DOCKED: ATOM     18  C   UNL     1     141.960  80.192 218.250 -0.15 -0.27    +0.394 C  
DOCKED: BRANCH  18  19
DOCKED: ATOM     19  O   UNL     1     142.960  81.012 217.703 -0.19 +0.49    -0.459 OA 
DOCKED: ATOM     20  H   UNL     1     143.801  80.687 217.246 -0.37 -0.67    +0.299 HD 
DOCKED: ENDBRANCH  18  19
DOCKED: BRANCH  18  21
DOCKED: ATOM     21  C   UNL     1     142.038  78.721 217.828 -0.16 -0.24    +0.322 C  
DOCKED: BRANCH  21  22
DOCKED: ATOM     22  N   UNL     1     142.966  78.597 216.695 +0.09 +0.46    -0.343 N  
DOCKED: ATOM     23  H   UNL     1     143.926  78.357 217.027 -0.31 -0.57    +0.345 HD 
DOCKED: ATOM     24  H   UNL     1     142.645  77.829 216.061 +0.05 -0.32    +0.345 HD 
DOCKED: ATOM     25  H   UNL     1     143.004  79.491 216.150 -0.39 -0.69    +0.345 HD 
DOCKED: ENDBRANCH  21  22
DOCKED: BRANCH  21  26
DOCKED: ATOM     26  C   UNL     1     142.498  77.839 219.023 -0.25 -0.05    +0.071 C  
DOCKED: ATOM     27  C   UNL     1     143.327  76.601 218.591 -0.30 -0.03    +0.046 C  
DOCKED: ATOM     28  C   UNL     1     141.307  77.288 219.850 -0.22 -0.02    +0.046 C  
DOCKED: ATOM     29  C   UNL     1     142.837  75.524 219.482 -0.31 +0.02    -0.044 A  
DOCKED: ATOM     30  C   UNL     1     141.717  75.904 220.178 -0.25 +0.02    -0.044 A  
DOCKED: ATOM     31  C   UNL     1     143.381  74.245 219.631 -0.31 -0.00    +0.004 A  
DOCKED: ATOM     32  C   UNL     1     141.083  75.027 221.062 -0.31 -0.00    +0.004 A  
DOCKED: ATOM     33  C   UNL     1     142.765  73.350 220.518 -0.29 -0.00    +0.000 A  
DOCKED: ATOM     34  C   UNL     1     141.616  73.740 221.232 -0.26 -0.00    +0.000 A  
DOCKED: ENDBRANCH  21  26
DOCKED: ENDBRANCH  18  21
DOCKED: ENDBRANCH   4  18
DOCKED: TORSDOF 9
DOCKED: TER
DOCKED: ENDMDL
________________________________________________________________________________


    CLUSTERING HISTOGRAM
    ____________________


________________________________________________________________________________
     |           |     |           |     |
Clus | Lowest    | Run | Mean      | Num | Histogram
-ter | Binding   |     | Binding   | in  |
Rank | Energy    |     | Energy    | Clus|    5    10   15   20   25   30   35
_____|___________|_____|___________|_____|____:____|____:____|____:____|____:___
   1 |     -7.98 |   1 |     -7.86 |  13 |#############
   2 |     -7.96 |  20 |     -7.78 |   6 |######
   3 |     -7.33 |   5 |     -7.33 |   1 |#
_____|___________|_____|___________|_____|______________________________________


    RMSD TABLE
    __________


_______________________________________________________________________
     |      |      |           |         |                 |
Rank | Sub- | Run  | Binding   | Cluster | Reference       | Grep
     | Rank |      | Energy    | RMSD    | RMSD            | Pattern
_____|______|______|___________|_________|_________________|___________
   1      1      1       -7.98      0.00    271.20           RANKING
   1      2     18       -7.98      0.31    271.18           RANKING
   1      3     19       -7.96      0.09    271.20           RANKING
   1      4      7       -7.94      0.05    271.18           RANKING
   1      5     12       -7.93      0.08    271.19           RANKING
   1      6      6       -7.93      0.10    271.16           RANKING
   1      7      8       -7.92      0.10    271.15           RANKING
   1      8     13       -7.91      0.22    271.15           RANKING
   1      9     10       -7.91      0.07    271.21           RANKING
   1     10     14       -7.90      0.17    271.17           RANKING
   1     11      2       -7.90      0.23    271.21           RANKING
   1     12      9       -7.61      0.69    271.14           RANKING
   1     13     16       -7.33      0.92    271.18           RANKING
   2      1     20       -7.96      0.00    271.89           RANKING
   2      2     15       -7.94      0.07    271.89           RANKING
   2      3     17       -7.89      0.69    271.99           RANKING
   2      4      3       -7.83      0.12    271.88           RANKING
   2      5     11       -7.79      0.73    271.70           RANKING
   2      6      4       -7.30      0.86    271.64           RANKING
   3      1      5       -7.33      0.00    271.20           RANKING

Run time 0.824 sec
Idle time 0.000 sec
