AutoDock-GPU version: v1.6

**********************************************************
**    AutoDock-GPU AUTODOCKTOOLS-COMPATIBLE DLG FILE    **
**********************************************************


    DOCKING PARAMETERS
    ________________________


Ligand file:                               /home/a/REINVENT4/ReinventStudies/scoringData/graph-dock-34dfml/graph-DockGPU/node-autodockgpu/inputs/OOSPKVZPLIIQRF-CYJIZFNKNA-N.pdbqt
Grid fld file:                             /home/a/REINVENT4/ReinventStudies/mols/Rad51/maps/rad51_receptor.maps.fld

Random seed:                               42
Number of runs:                            20
Number of energy evaluations:              1132076
Number of generations:                     42000
Size of population:                        150
Rate of crossover:                         80.000000%
Tournament selection probability limit:    60.000000%
Rate of mutation:                          2.000000%
Maximal allowed delta movement:            +/- 6.000000A
Maximal allowed delta angle:               +/- 90.000000

Rate of local search:                      100.000000%
Maximal number of local search iterations: 300
Rho lower bound:                           0.010000
Spread of local search delta movement:     2.000000A
Spread of local search delta angle:        74.999999
Limit of consecutive successes/failures:   4

Handle symmetry during clustering:         YES
RMSD tolerance:                            2.000000A

Program call in command line was:          /home/a/REINVENT4/ReinventStudies/adgpu-v1.6_linux_x64_cuda12_128wi --filelist batch.txt --heuristics 1 --nrun 20 --psize 150 --lsit 300 --seed 42 --heurmax 12000000 


    GRID PARAMETERS
    ________________________


Receptor name:                             rad51_receptor
Number of grid points (x, y, z):           53, 53, 53
Grid center (x, y, z):                     139.950000, 75.640000, 221.970000A
Grid size (x, y, z):                       19.500000, 19.500000, 19.500000A
Grid spacing:                              0.375000A


    LIGAND PARAMETERS
    ________________________


Ligand name:                               /home/a/REINVENT4/ReinventStudies/scoringData/graph-dock-34dfml/graph-DockGPU/node-autodockgpu/inputs/OOSPKVZPLIIQRF-CYJIZFNKNA-N
Number of atoms:                           30
Number of rotatable bonds:                 4
Number of atom types:                      6


    DUMMY DATA (only for ADT-compatibility)
    ________________________


DPF> outlev 1
DPF> ga_run 20
DPF> fld /home/a/REINVENT4/ReinventStudies/mols/Rad51/maps/rad51_receptor.maps.fld
DPF> move /home/a/REINVENT4/ReinventStudies/scoringData/graph-dock-34dfml/graph-DockGPU/node-autodockgpu/inputs/OOSPKVZPLIIQRF-CYJIZFNKNA-N.pdbqt


    COUNTER STATES
    ________________________


Number of energy evaluations performed:    546662
Number of generations used:                30


    INPUT LIGAND PDBQT FILE:
    ________________________


INPUT-LIGAND-PDBQT: REMARK SMILES C[C@H](NC(=O)c1cc2c(=O)n3ccccc3nc2nc1N)c1ccccc1
INPUT-LIGAND-PDBQT: REMARK SMILES IDX 6 1 7 2 8 3 9 4 10 5 11 6 12 7 13 8 14 9 15 10 16 11 17 12
INPUT-LIGAND-PDBQT: REMARK SMILES IDX 18 13 19 14 20 15 4 16 3 17 5 19 2 20 1 21 22 22 23 23 27 24
INPUT-LIGAND-PDBQT: REMARK SMILES IDX 24 25 26 26 25 27 21 28
INPUT-LIGAND-PDBQT: REMARK H PARENT 3 18 21 29 21 30
INPUT-LIGAND-PDBQT: ROOT
INPUT-LIGAND-PDBQT: ATOM      1  C   UNL     1      -1.492   1.777   0.013  1.00  0.00     0.082 A 
INPUT-LIGAND-PDBQT: ATOM      2  C   UNL     1      -0.347   1.275  -0.626  1.00  0.00     0.035 A 
INPUT-LIGAND-PDBQT: ATOM      3  C   UNL     1       0.427   2.103  -1.454  1.00  0.00     0.086 A 
INPUT-LIGAND-PDBQT: ATOM      4  C   UNL     1       1.587   1.654  -2.109  1.00  0.00     0.267 A 
INPUT-LIGAND-PDBQT: ATOM      5  O   UNL     1       1.961   0.455  -1.963  1.00  0.00    -0.268 OA
INPUT-LIGAND-PDBQT: ATOM      6  N   UNL     1       2.307   2.517  -2.902  1.00  0.00    -0.267 N 
INPUT-LIGAND-PDBQT: ATOM      7  C   UNL     1       3.442   2.092  -3.548  1.00  0.00     0.096 A 
INPUT-LIGAND-PDBQT: ATOM      8  C   UNL     1       4.176   2.965  -4.354  1.00  0.00     0.019 A 
INPUT-LIGAND-PDBQT: ATOM      9  C   UNL     1       3.752   4.282  -4.504  1.00  0.00     0.005 A 
INPUT-LIGAND-PDBQT: ATOM     10  C   UNL     1       2.603   4.716  -3.851  1.00  0.00     0.048 A 
INPUT-LIGAND-PDBQT: ATOM     11  C   UNL     1       1.884   3.823  -3.049  1.00  0.00     0.142 A 
INPUT-LIGAND-PDBQT: ATOM     12  N   UNL     1       0.765   4.259  -2.417  1.00  0.00    -0.210 NA
INPUT-LIGAND-PDBQT: ATOM     13  C   UNL     1       0.033   3.437  -1.629  1.00  0.00     0.169 A 
INPUT-LIGAND-PDBQT: ATOM     14  N   UNL     1      -1.083   3.906  -1.016  1.00  0.00    -0.210 NA
INPUT-LIGAND-PDBQT: ATOM     15  C   UNL     1      -1.856   3.126  -0.211  1.00  0.00     0.138 A 
INPUT-LIGAND-PDBQT: ENDROOT
INPUT-LIGAND-PDBQT: BRANCH   1  16
INPUT-LIGAND-PDBQT: ATOM     16  C   UNL     1      -2.243   0.894   0.931  1.00  0.00     0.255 C 
INPUT-LIGAND-PDBQT: ATOM     17  N   UNL     1      -2.497  -0.474   0.574  1.00  0.00    -0.345 N 
INPUT-LIGAND-PDBQT: ATOM     18  H   UNL     1      -2.279  -0.785  -0.400  1.00  0.00     0.164 HD
INPUT-LIGAND-PDBQT: ATOM     19  O   UNL     1      -2.625   1.334   2.050  1.00  0.00    -0.269 OA
INPUT-LIGAND-PDBQT: BRANCH  17  20
INPUT-LIGAND-PDBQT: ATOM     20  C   UNL     1      -3.040  -1.439   1.535  1.00  0.00     0.109 C 
INPUT-LIGAND-PDBQT: ATOM     21  C   UNL     1      -3.459  -2.730   0.826  1.00  0.00     0.036 C 
INPUT-LIGAND-PDBQT: BRANCH  20  22
INPUT-LIGAND-PDBQT: ATOM     22  C   UNL     1      -2.019  -1.743   2.611  1.00  0.00    -0.026 A 
INPUT-LIGAND-PDBQT: ATOM     23  C   UNL     1      -0.689  -2.057   2.271  1.00  0.00     0.006 A 
INPUT-LIGAND-PDBQT: ATOM     24  C   UNL     1      -2.398  -1.745   3.965  1.00  0.00     0.006 A 
INPUT-LIGAND-PDBQT: ATOM     25  C   UNL     1       0.244  -2.349   3.270  1.00  0.00     0.000 A 
INPUT-LIGAND-PDBQT: ATOM     26  C   UNL     1      -1.460  -2.039   4.960  1.00  0.00     0.000 A 
INPUT-LIGAND-PDBQT: ATOM     27  C   UNL     1      -0.140  -2.339   4.613  1.00  0.00     0.000 A 
INPUT-LIGAND-PDBQT: ENDBRANCH  20  22
INPUT-LIGAND-PDBQT: ENDBRANCH  17  20
INPUT-LIGAND-PDBQT: ENDBRANCH   1  16
INPUT-LIGAND-PDBQT: BRANCH  15  28
INPUT-LIGAND-PDBQT: ATOM     28  N   UNL     1      -3.049   3.691   0.344  1.00  0.00    -0.383 N 
INPUT-LIGAND-PDBQT: ATOM     29  H   UNL     1      -3.785   3.107   0.796  1.00  0.00     0.158 HD
INPUT-LIGAND-PDBQT: ATOM     30  H   UNL     1      -3.250   4.707   0.211  1.00  0.00     0.158 HD
INPUT-LIGAND-PDBQT: ENDBRANCH  15  28
INPUT-LIGAND-PDBQT: TORSDOF 4


    FINAL DOCKED STATE:
    ________________________


Run:   1 / 20
Time taken for this run:   0.021s

DOCKED: MODEL        1
DOCKED: USER    Run = 1
DOCKED: USER
DOCKED: USER    Estimated Free Energy of Binding    =  -7.18 kcal/mol  [=(1)+(2)+(3)-(4)]
DOCKED: USER
DOCKED: USER    (1) Final Intermolecular Energy     =  -8.37 kcal/mol
DOCKED: USER        vdW + Hbond + desolv Energy     =  -8.39 kcal/mol
DOCKED: USER        Electrostatic Energy            =  +0.02 kcal/mol
DOCKED: USER        Moving Ligand-Fixed Receptor    =  -8.37 kcal/mol
DOCKED: USER        Moving Ligand-Moving Receptor   =  +0.00 kcal/mol
DOCKED: USER    (2) Final Total Internal Energy     =  -0.92 kcal/mol
DOCKED: USER    (3) Torsional Free Energy           =  +1.19 kcal/mol
DOCKED: USER    (4) Unbound System's Energy         =  -0.92 kcal/mol
DOCKED: USER
DOCKED: USER
DOCKED: REMARK SMILES C[C@H](NC(=O)c1cc2c(=O)n3ccccc3nc2nc1N)c1ccccc1
DOCKED: REMARK SMILES IDX 6 1 7 2 8 3 9 4 10 5 11 6 12 7 13 8 14 9 15 10 16 11 17 12
DOCKED: REMARK SMILES IDX 18 13 19 14 20 15 4 16 3 17 5 19 2 20 1 21 22 22 23 23 27 24
DOCKED: REMARK SMILES IDX 24 25 26 26 25 27 21 28
DOCKED: REMARK H PARENT 3 18 21 29 21 30
DOCKED: USER                              x       y       z     vdW  Elec       q    Type
DOCKED: USER                           _______ _______ _______ _____ _____    ______ ____
DOCKED: ROOT
DOCKED: ATOM      1  C   UNL     1     134.879  70.923 225.266 -0.15 -0.01    +0.082 A  
DOCKED: ATOM      2  C   UNL     1     135.075  72.310 225.178 -0.02 -0.00    +0.035 A  
DOCKED: ATOM      3  C   UNL     1     134.224  73.194 225.860 -0.26 +0.00    +0.086 A  
DOCKED: ATOM      4  C   UNL     1     134.381  74.590 225.813 -0.23 +0.01    +0.267 A  
DOCKED: ATOM      5  O   UNL     1     135.319  75.090 225.128 -0.32 +0.03    -0.268 OA 
DOCKED: ATOM      6  N   UNL     1     133.517  75.403 226.510 -0.23 -0.00    -0.267 N  
DOCKED: ATOM      7  C   UNL     1     133.658  76.769 226.474 -0.27 -0.01    +0.096 A  
DOCKED: ATOM      8  C   UNL     1     132.784  77.598 227.180 -0.30 -0.00    +0.019 A  
DOCKED: ATOM      9  C   UNL     1     131.757  77.033 227.930 -0.33 +0.00    +0.005 A  
DOCKED: ATOM     10  C   UNL     1     131.611  75.650 227.970 -0.30 +0.00    +0.048 A  
DOCKED: ATOM     11  C   UNL     1     132.499  74.840 227.254 -0.33 -0.00    +0.142 A  
DOCKED: ATOM     12  N   UNL     1     132.346  73.492 227.301 -0.43 +0.02    -0.210 NA 
DOCKED: ATOM     13  C   UNL     1     133.178  72.663 226.628 -0.30 -0.01    +0.169 A  
DOCKED: ATOM     14  N   UNL     1     132.992  71.320 226.694 -0.23 +0.02    -0.210 NA 
DOCKED: ATOM     15  C   UNL     1     133.798  70.439 226.041 -0.25 -0.01    +0.138 A  
DOCKED: ENDROOT
DOCKED: BRANCH   1  16
DOCKED: ATOM     16  C   UNL     1     135.837  70.022 224.590 -0.14 -0.02    +0.255 C  
DOCKED: ATOM     17  N   UNL     1     137.201  70.428 224.396 -0.08 +0.05    -0.345 N  
DOCKED: ATOM     18  H   UNL     1     137.461  71.420 224.601 -0.04 -0.04    +0.164 HD 
DOCKED: ATOM     19  O   UNL     1     135.463  68.876 224.218 -0.51 +0.00    -0.269 OA 
DOCKED: BRANCH  17  20
DOCKED: ATOM     20  C   UNL     1     138.231  69.493 223.933 -0.25 -0.01    +0.109 C  
DOCKED: ATOM     21  C   UNL     1     139.044  70.109 222.790 -0.21 -0.01    +0.036 C  
DOCKED: BRANCH  20  22
DOCKED: ATOM     22  C   UNL     1     139.147  69.109 225.076 -0.39 +0.00    -0.026 A  
DOCKED: ATOM     23  C   UNL     1     139.914  70.084 225.741 -0.48 -0.00    +0.006 A  
DOCKED: ATOM     24  C   UNL     1     139.264  67.763 225.466 -0.47 -0.00    +0.006 A  
DOCKED: ATOM     25  C   UNL     1     140.767  69.718 226.787 -0.57 -0.00    +0.000 A  
DOCKED: ATOM     26  C   UNL     1     140.119  67.403 226.512 -0.67 -0.00    +0.000 A  
DOCKED: ATOM     27  C   UNL     1     140.869  68.380 227.173 -0.66 -0.00    +0.000 A  
DOCKED: ENDBRANCH  20  22
DOCKED: ENDBRANCH  17  20
DOCKED: ENDBRANCH   1  16
DOCKED: BRANCH  15  28
DOCKED: ATOM     28  N   UNL     1     133.488  69.043 226.120 -0.07 -0.00    -0.383 N  
DOCKED: ATOM     29  H   UNL     1     134.129  68.307 225.753 +0.05 -0.01    +0.158 HD 
DOCKED: ATOM     30  H   UNL     1     132.549  68.741 226.463 +0.05 +0.01    +0.158 HD 
DOCKED: ENDBRANCH  15  28
DOCKED: TORSDOF 4
DOCKED: TER
DOCKED: ENDMDL
________________________________________________________________________________


    FINAL DOCKED STATE:
    ________________________


Run:   2 / 20
Time taken for this run:   0.021s

DOCKED: MODEL        2
DOCKED: USER    Run = 2
DOCKED: USER
DOCKED: USER    Estimated Free Energy of Binding    =  -7.32 kcal/mol  [=(1)+(2)+(3)-(4)]
DOCKED: USER
DOCKED: USER    (1) Final Intermolecular Energy     =  -8.51 kcal/mol
DOCKED: USER        vdW + Hbond + desolv Energy     =  -8.48 kcal/mol
DOCKED: USER        Electrostatic Energy            =  -0.03 kcal/mol
DOCKED: USER        Moving Ligand-Fixed Receptor    =  -8.51 kcal/mol
DOCKED: USER        Moving Ligand-Moving Receptor   =  +0.00 kcal/mol
DOCKED: USER    (2) Final Total Internal Energy     =  -0.86 kcal/mol
DOCKED: USER    (3) Torsional Free Energy           =  +1.19 kcal/mol
DOCKED: USER    (4) Unbound System's Energy         =  -0.86 kcal/mol
DOCKED: USER
DOCKED: USER
DOCKED: REMARK SMILES C[C@H](NC(=O)c1cc2c(=O)n3ccccc3nc2nc1N)c1ccccc1
DOCKED: REMARK SMILES IDX 6 1 7 2 8 3 9 4 10 5 11 6 12 7 13 8 14 9 15 10 16 11 17 12
DOCKED: REMARK SMILES IDX 18 13 19 14 20 15 4 16 3 17 5 19 2 20 1 21 22 22 23 23 27 24
DOCKED: REMARK SMILES IDX 24 25 26 26 25 27 21 28
DOCKED: REMARK H PARENT 3 18 21 29 21 30
DOCKED: USER                              x       y       z     vdW  Elec       q    Type
DOCKED: USER                           _______ _______ _______ _____ _____    ______ ____
DOCKED: ROOT
DOCKED: ATOM      1  C   UNL     1     139.572  72.178 222.454 -0.26 -0.02    +0.082 A  
DOCKED: ATOM      2  C   UNL     1     140.168  72.261 223.723 -0.15 -0.01    +0.035 A  
DOCKED: ATOM      3  C   UNL     1     140.168  71.153 224.584 -0.43 -0.01    +0.086 A  
DOCKED: ATOM      4  C   UNL     1     140.758  71.180 225.859 -0.40 -0.04    +0.267 A  
DOCKED: ATOM      5  O   UNL     1     141.311  72.240 226.268 -0.47 +0.04    -0.268 OA 
DOCKED: ATOM      6  N   UNL     1     140.732  70.057 226.653 -0.29 +0.05    -0.267 N  
DOCKED: ATOM      7  C   UNL     1     141.304  70.069 227.902 -0.37 -0.02    +0.096 A  
DOCKED: ATOM      8  C   UNL     1     141.280  68.931 228.711 -0.51 -0.00    +0.019 A  
DOCKED: ATOM      9  C   UNL     1     140.668  67.770 228.246 -0.27 -0.00    +0.005 A  
DOCKED: ATOM     10  C   UNL     1     140.087  67.754 226.982 -0.62 -0.01    +0.048 A  
DOCKED: ATOM     11  C   UNL     1     140.124  68.907 226.190 -0.43 -0.02    +0.142 A  
DOCKED: ATOM     12  N   UNL     1     139.555  68.878 224.958 -0.25 +0.03    -0.210 NA 
DOCKED: ATOM     13  C   UNL     1     139.563  69.965 224.151 -0.25 -0.03    +0.169 A  
DOCKED: ATOM     14  N   UNL     1     138.979  69.901 222.927 -0.12 +0.04    -0.210 NA 
DOCKED: ATOM     15  C   UNL     1     138.959  70.961 222.073 -0.14 -0.03    +0.138 A  
DOCKED: ENDROOT
DOCKED: BRANCH   1  16
DOCKED: ATOM     16  C   UNL     1     139.652  73.345 221.549 -0.17 -0.04    +0.255 C  
DOCKED: ATOM     17  N   UNL     1     139.571  74.678 222.078 -0.15 +0.05    -0.345 N  
DOCKED: ATOM     18  H   UNL     1     139.304  74.803 223.081 -0.52 -0.03    +0.164 HD 
DOCKED: ATOM     19  O   UNL     1     139.833  73.167 220.314 -0.05 +0.05    -0.269 OA 
DOCKED: BRANCH  17  20
DOCKED: ATOM     20  C   UNL     1     139.862  75.857 221.257 -0.24 -0.03    +0.109 C  
DOCKED: ATOM     21  C   UNL     1     138.792  76.040 220.177 -0.08 -0.01    +0.036 C  
DOCKED: BRANCH  20  22
DOCKED: ATOM     22  C   UNL     1     139.944  77.096 222.124 -0.35 +0.01    -0.026 A  
DOCKED: ATOM     23  C   UNL     1     141.178  77.522 222.654 -0.39 -0.00    +0.006 A  
DOCKED: ATOM     24  C   UNL     1     138.779  77.819 222.436 -0.29 -0.00    +0.006 A  
DOCKED: ATOM     25  C   UNL     1     141.242  78.659 223.464 -0.56 -0.00    +0.000 A  
DOCKED: ATOM     26  C   UNL     1     138.851  78.956 223.248 -0.32 -0.00    +0.000 A  
DOCKED: ATOM     27  C   UNL     1     140.081  79.376 223.760 -0.46 -0.00    +0.000 A  
DOCKED: ENDBRANCH  20  22
DOCKED: ENDBRANCH  17  20
DOCKED: ENDBRANCH   1  16
DOCKED: BRANCH  15  28
DOCKED: ATOM     28  N   UNL     1     138.267  70.819 220.827 -0.00 +0.07    -0.383 N  
DOCKED: ATOM     29  H   UNL     1     137.668  69.993 220.613 +0.02 -0.03    +0.158 HD 
DOCKED: ATOM     30  H   UNL     1     138.436  71.508 220.061 +0.02 -0.03    +0.158 HD 
DOCKED: ENDBRANCH  15  28
DOCKED: TORSDOF 4
DOCKED: TER
DOCKED: ENDMDL
________________________________________________________________________________


    FINAL DOCKED STATE:
    ________________________


Run:   3 / 20
Time taken for this run:   0.021s

DOCKED: MODEL        3
DOCKED: USER    Run = 3
DOCKED: USER
DOCKED: USER    Estimated Free Energy of Binding    =  -7.31 kcal/mol  [=(1)+(2)+(3)-(4)]
DOCKED: USER
DOCKED: USER    (1) Final Intermolecular Energy     =  -8.51 kcal/mol
DOCKED: USER        vdW + Hbond + desolv Energy     =  -8.47 kcal/mol
DOCKED: USER        Electrostatic Energy            =  -0.03 kcal/mol
DOCKED: USER        Moving Ligand-Fixed Receptor    =  -8.51 kcal/mol
DOCKED: USER        Moving Ligand-Moving Receptor   =  +0.00 kcal/mol
DOCKED: USER    (2) Final Total Internal Energy     =  -0.87 kcal/mol
DOCKED: USER    (3) Torsional Free Energy           =  +1.19 kcal/mol
DOCKED: USER    (4) Unbound System's Energy         =  -0.87 kcal/mol
DOCKED: USER
DOCKED: USER
DOCKED: REMARK SMILES C[C@H](NC(=O)c1cc2c(=O)n3ccccc3nc2nc1N)c1ccccc1
DOCKED: REMARK SMILES IDX 6 1 7 2 8 3 9 4 10 5 11 6 12 7 13 8 14 9 15 10 16 11 17 12
DOCKED: REMARK SMILES IDX 18 13 19 14 20 15 4 16 3 17 5 19 2 20 1 21 22 22 23 23 27 24
DOCKED: REMARK SMILES IDX 24 25 26 26 25 27 21 28
DOCKED: REMARK H PARENT 3 18 21 29 21 30
DOCKED: USER                              x       y       z     vdW  Elec       q    Type
DOCKED: USER                           _______ _______ _______ _____ _____    ______ ____
DOCKED: ROOT
DOCKED: ATOM      1  C   UNL     1     139.571  72.157 222.443 -0.26 -0.02    +0.082 A  
DOCKED: ATOM      2  C   UNL     1     140.138  72.253 223.724 -0.14 -0.01    +0.035 A  
DOCKED: ATOM      3  C   UNL     1     140.150  71.143 224.582 -0.43 -0.01    +0.086 A  
DOCKED: ATOM      4  C   UNL     1     140.713  71.182 225.869 -0.40 -0.04    +0.267 A  
DOCKED: ATOM      5  O   UNL     1     141.229  72.256 226.292 -0.48 +0.04    -0.268 OA 
DOCKED: ATOM      6  N   UNL     1     140.700  70.057 226.661 -0.29 +0.05    -0.267 N  
DOCKED: ATOM      7  C   UNL     1     141.246  70.081 227.920 -0.41 -0.02    +0.096 A  
DOCKED: ATOM      8  C   UNL     1     141.235  68.940 228.727 -0.51 -0.00    +0.019 A  
DOCKED: ATOM      9  C   UNL     1     140.664  67.765 228.248 -0.26 -0.00    +0.005 A  
DOCKED: ATOM     10  C   UNL     1     140.109  67.738 226.972 -0.61 -0.01    +0.048 A  
DOCKED: ATOM     11  C   UNL     1     140.132  68.893 226.182 -0.43 -0.02    +0.142 A  
DOCKED: ATOM     12  N   UNL     1     139.589  68.852 224.940 -0.25 +0.03    -0.210 NA 
DOCKED: ATOM     13  C   UNL     1     139.585  69.940 224.135 -0.24 -0.03    +0.169 A  
DOCKED: ATOM     14  N   UNL     1     139.028  69.865 222.899 -0.12 +0.04    -0.210 NA 
DOCKED: ATOM     15  C   UNL     1     138.998  70.926 222.046 -0.14 -0.03    +0.138 A  
DOCKED: ENDROOT
DOCKED: BRANCH   1  16
DOCKED: ATOM     16  C   UNL     1     139.637  73.328 221.542 -0.17 -0.05    +0.255 C  
DOCKED: ATOM     17  N   UNL     1     139.533  74.658 222.074 -0.15 +0.06    -0.345 N  
DOCKED: ATOM     18  H   UNL     1     139.256  74.775 223.076 -0.52 -0.04    +0.164 HD 
DOCKED: ATOM     19  O   UNL     1     139.830  73.158 220.307 -0.05 +0.05    -0.269 OA 
DOCKED: BRANCH  17  20
DOCKED: ATOM     20  C   UNL     1     139.810  75.845 221.259 -0.23 -0.03    +0.109 C  
DOCKED: ATOM     21  C   UNL     1     138.730  76.029 220.189 -0.08 -0.01    +0.036 C  
DOCKED: BRANCH  20  22
DOCKED: ATOM     22  C   UNL     1     139.893  77.078 222.133 -0.35 +0.01    -0.026 A  
DOCKED: ATOM     23  C   UNL     1     141.126  77.496 222.670 -0.42 -0.00    +0.006 A  
DOCKED: ATOM     24  C   UNL     1     138.730  77.803 222.445 -0.29 -0.00    +0.006 A  
DOCKED: ATOM     25  C   UNL     1     141.192  78.628 223.487 -0.54 -0.00    +0.000 A  
DOCKED: ATOM     26  C   UNL     1     138.802  78.935 223.264 -0.31 -0.00    +0.000 A  
DOCKED: ATOM     27  C   UNL     1     140.032  79.348 223.783 -0.44 -0.00    +0.000 A  
DOCKED: ENDBRANCH  20  22
DOCKED: ENDBRANCH  17  20
DOCKED: ENDBRANCH   1  16
DOCKED: BRANCH  15  28
DOCKED: ATOM     28  N   UNL     1     138.335  70.769 220.787 -0.00 +0.07    -0.383 N  
DOCKED: ATOM     29  H   UNL     1     137.761  69.929 220.559 +0.02 -0.03    +0.158 HD 
DOCKED: ATOM     30  H   UNL     1     138.503  71.462 220.024 +0.02 -0.03    +0.158 HD 
DOCKED: ENDBRANCH  15  28
DOCKED: TORSDOF 4
DOCKED: TER
DOCKED: ENDMDL
________________________________________________________________________________


    FINAL DOCKED STATE:
    ________________________


Run:   4 / 20
Time taken for this run:   0.021s

DOCKED: MODEL        4
DOCKED: USER    Run = 4
DOCKED: USER
DOCKED: USER    Estimated Free Energy of Binding    =  -7.07 kcal/mol  [=(1)+(2)+(3)-(4)]
DOCKED: USER
DOCKED: USER    (1) Final Intermolecular Energy     =  -8.26 kcal/mol
DOCKED: USER        vdW + Hbond + desolv Energy     =  -8.24 kcal/mol
DOCKED: USER        Electrostatic Energy            =  -0.02 kcal/mol
DOCKED: USER        Moving Ligand-Fixed Receptor    =  -8.26 kcal/mol
DOCKED: USER        Moving Ligand-Moving Receptor   =  +0.00 kcal/mol
DOCKED: USER    (2) Final Total Internal Energy     =  -0.82 kcal/mol
DOCKED: USER    (3) Torsional Free Energy           =  +1.19 kcal/mol
DOCKED: USER    (4) Unbound System's Energy         =  -0.82 kcal/mol
DOCKED: USER
DOCKED: USER
DOCKED: REMARK SMILES C[C@H](NC(=O)c1cc2c(=O)n3ccccc3nc2nc1N)c1ccccc1
DOCKED: REMARK SMILES IDX 6 1 7 2 8 3 9 4 10 5 11 6 12 7 13 8 14 9 15 10 16 11 17 12
DOCKED: REMARK SMILES IDX 18 13 19 14 20 15 4 16 3 17 5 19 2 20 1 21 22 22 23 23 27 24
DOCKED: REMARK SMILES IDX 24 25 26 26 25 27 21 28
DOCKED: REMARK H PARENT 3 18 21 29 21 30
DOCKED: USER                              x       y       z     vdW  Elec       q    Type
DOCKED: USER                           _______ _______ _______ _____ _____    ______ ____
DOCKED: ROOT
DOCKED: ATOM      1  C   UNL     1     139.333  72.084 222.483 -0.24 -0.02    +0.082 A  
DOCKED: ATOM      2  C   UNL     1     139.990  72.201 223.718 -0.12 -0.01    +0.035 A  
DOCKED: ATOM      3  C   UNL     1     140.055  71.108 224.597 -0.42 -0.02    +0.086 A  
DOCKED: ATOM      4  C   UNL     1     140.708  71.169 225.840 -0.40 -0.04    +0.267 A  
DOCKED: ATOM      5  O   UNL     1     141.261  72.247 226.202 -0.45 +0.04    -0.268 OA 
DOCKED: ATOM      6  N   UNL     1     140.743  70.061 226.654 -0.29 +0.05    -0.267 N  
DOCKED: ATOM      7  C   UNL     1     141.377  70.106 227.871 -0.32 -0.02    +0.096 A  
DOCKED: ATOM      8  C   UNL     1     141.415  68.983 228.701 -0.48 -0.00    +0.019 A  
DOCKED: ATOM      9  C   UNL     1     140.803  67.803 228.288 -0.35 -0.00    +0.005 A  
DOCKED: ATOM     10  C   UNL     1     140.159  67.754 227.056 -0.61 -0.01    +0.048 A  
DOCKED: ATOM     11  C   UNL     1     140.134  68.892 226.242 -0.43 -0.02    +0.142 A  
DOCKED: ATOM     12  N   UNL     1     139.504  68.831 225.042 -0.27 +0.03    -0.210 NA 
DOCKED: ATOM     13  C   UNL     1     139.450  69.902 224.216 -0.25 -0.03    +0.169 A  
DOCKED: ATOM     14  N   UNL     1     138.807  69.806 223.026 -0.12 +0.04    -0.210 NA 
DOCKED: ATOM     15  C   UNL     1     138.724  70.849 222.155 -0.13 -0.03    +0.138 A  
DOCKED: ENDROOT
DOCKED: BRANCH   1  16
DOCKED: ATOM     16  C   UNL     1     139.344  73.235 221.555 -0.15 -0.05    +0.255 C  
DOCKED: ATOM     17  N   UNL     1     139.524  74.569 222.058 -0.15 +0.06    -0.345 N  
DOCKED: ATOM     18  H   UNL     1     139.491  74.721 223.092 -0.51 -0.01    +0.164 HD 
DOCKED: ATOM     19  O   UNL     1     139.237  73.039 220.314 -0.04 +0.05    -0.269 OA 
DOCKED: BRANCH  17  20
DOCKED: ATOM     20  C   UNL     1     139.760  75.709 221.167 -0.22 -0.03    +0.109 C  
DOCKED: ATOM     21  C   UNL     1     138.617  75.851 220.158 -0.07 -0.01    +0.036 C  
DOCKED: BRANCH  20  22
DOCKED: ATOM     22  C   UNL     1     139.909  76.984 221.970 -0.33 +0.01    -0.026 A  
DOCKED: ATOM     23  C   UNL     1     141.100  77.258 222.669 -0.40 -0.00    +0.006 A  
DOCKED: ATOM     24  C   UNL     1     138.842  77.896 222.052 -0.25 -0.00    +0.006 A  
DOCKED: ATOM     25  C   UNL     1     141.224  78.431 223.419 -0.51 -0.00    +0.000 A  
DOCKED: ATOM     26  C   UNL     1     138.972  79.068 222.805 -0.31 -0.00    +0.000 A  
DOCKED: ATOM     27  C   UNL     1     140.162  79.336 223.486 -0.46 -0.00    +0.000 A  
DOCKED: ENDBRANCH  20  22
DOCKED: ENDBRANCH  17  20
DOCKED: ENDBRANCH   1  16
DOCKED: BRANCH  15  28
DOCKED: ATOM     28  N   UNL     1     137.972  70.672 220.949 -0.00 +0.07    -0.383 N  
DOCKED: ATOM     29  H   UNL     1     137.860  71.433 220.245 +0.02 -0.03    +0.158 HD 
DOCKED: ATOM     30  H   UNL     1     137.430  69.792 220.802 +0.02 -0.03    +0.158 HD 
DOCKED: ENDBRANCH  15  28
DOCKED: TORSDOF 4
DOCKED: TER
DOCKED: ENDMDL
________________________________________________________________________________


    FINAL DOCKED STATE:
    ________________________


Run:   5 / 20
Time taken for this run:   0.021s

DOCKED: MODEL        5
DOCKED: USER    Run = 5
DOCKED: USER
DOCKED: USER    Estimated Free Energy of Binding    =  -7.18 kcal/mol  [=(1)+(2)+(3)-(4)]
DOCKED: USER
DOCKED: USER    (1) Final Intermolecular Energy     =  -8.38 kcal/mol
DOCKED: USER        vdW + Hbond + desolv Energy     =  -8.41 kcal/mol
DOCKED: USER        Electrostatic Energy            =  +0.03 kcal/mol
DOCKED: USER        Moving Ligand-Fixed Receptor    =  -8.38 kcal/mol
DOCKED: USER        Moving Ligand-Moving Receptor   =  +0.00 kcal/mol
DOCKED: USER    (2) Final Total Internal Energy     =  -0.93 kcal/mol
DOCKED: USER    (3) Torsional Free Energy           =  +1.19 kcal/mol
DOCKED: USER    (4) Unbound System's Energy         =  -0.93 kcal/mol
DOCKED: USER
DOCKED: USER
DOCKED: REMARK SMILES C[C@H](NC(=O)c1cc2c(=O)n3ccccc3nc2nc1N)c1ccccc1
DOCKED: REMARK SMILES IDX 6 1 7 2 8 3 9 4 10 5 11 6 12 7 13 8 14 9 15 10 16 11 17 12
DOCKED: REMARK SMILES IDX 18 13 19 14 20 15 4 16 3 17 5 19 2 20 1 21 22 22 23 23 27 24
DOCKED: REMARK SMILES IDX 24 25 26 26 25 27 21 28
DOCKED: REMARK H PARENT 3 18 21 29 21 30
DOCKED: USER                              x       y       z     vdW  Elec       q    Type
DOCKED: USER                           _______ _______ _______ _____ _____    ______ ____
DOCKED: ROOT
DOCKED: ATOM      1  C   UNL     1     135.090  71.374 225.041 -0.10 -0.01    +0.082 A  
DOCKED: ATOM      2  C   UNL     1     135.195  72.772 224.958 -0.12 -0.00    +0.035 A  
DOCKED: ATOM      3  C   UNL     1     134.327  73.596 225.691 -0.28 +0.00    +0.086 A  
DOCKED: ATOM      4  C   UNL     1     134.395  75.000 225.652 -0.26 -0.01    +0.267 A  
DOCKED: ATOM      5  O   UNL     1     135.265  75.561 224.926 -0.29 +0.03    -0.268 OA 
DOCKED: ATOM      6  N   UNL     1     133.520  75.752 226.400 -0.22 +0.01    -0.267 N  
DOCKED: ATOM      7  C   UNL     1     133.575  77.124 226.371 -0.24 -0.01    +0.096 A  
DOCKED: ATOM      8  C   UNL     1     132.688  77.892 227.129 -0.28 -0.00    +0.019 A  
DOCKED: ATOM      9  C   UNL     1     131.737  77.259 227.924 -0.32 +0.00    +0.005 A  
DOCKED: ATOM     10  C   UNL     1     131.678  75.869 227.956 -0.33 +0.00    +0.048 A  
DOCKED: ATOM     11  C   UNL     1     132.577  75.121 227.187 -0.32 +0.00    +0.142 A  
DOCKED: ATOM     12  N   UNL     1     132.510  73.766 227.228 -0.54 +0.01    -0.210 NA 
DOCKED: ATOM     13  C   UNL     1     133.356  72.995 226.505 -0.28 -0.00    +0.169 A  
DOCKED: ATOM     14  N   UNL     1     133.257  71.643 226.566 -0.24 +0.02    -0.210 NA 
DOCKED: ATOM     15  C   UNL     1     134.081  70.819 225.863 -0.24 -0.01    +0.138 A  
DOCKED: ENDROOT
DOCKED: BRANCH   1  16
DOCKED: ATOM     16  C   UNL     1     136.066  70.540 224.308 -0.11 -0.03    +0.255 C  
DOCKED: ATOM     17  N   UNL     1     137.435  70.959 224.192 -0.09 +0.07    -0.345 N  
DOCKED: ATOM     18  H   UNL     1     137.689  71.925 224.499 -0.35 -0.07    +0.164 HD 
DOCKED: ATOM     19  O   UNL     1     135.702  69.436 223.818 -0.16 +0.02    -0.269 OA 
DOCKED: BRANCH  17  20
DOCKED: ATOM     20  C   UNL     1     138.477  70.070 223.670 -0.24 -0.02    +0.109 C  
DOCKED: ATOM     21  C   UNL     1     139.380  70.817 222.684 -0.24 -0.01    +0.036 C  
DOCKED: BRANCH  20  22
DOCKED: ATOM     22  C   UNL     1     139.302  69.500 224.804 -0.36 +0.00    -0.026 A  
DOCKED: ATOM     23  C   UNL     1     140.218  70.310 225.503 -0.50 -0.00    +0.006 A  
DOCKED: ATOM     24  C   UNL     1     139.185  68.143 225.153 -0.45 -0.00    +0.006 A  
DOCKED: ATOM     25  C   UNL     1     140.985  69.774 226.541 -0.56 -0.00    +0.000 A  
DOCKED: ATOM     26  C   UNL     1     139.956  67.612 226.191 -0.65 -0.00    +0.000 A  
DOCKED: ATOM     27  C   UNL     1     140.854  68.426 226.886 -0.64 -0.00    +0.000 A  
DOCKED: ENDBRANCH  20  22
DOCKED: ENDBRANCH  17  20
DOCKED: ENDBRANCH   1  16
DOCKED: BRANCH  15  28
DOCKED: ATOM     28  N   UNL     1     133.862  69.406 225.943 -0.11 +0.01    -0.383 N  
DOCKED: ATOM     29  H   UNL     1     133.085  68.993 226.503 +0.06 +0.02    +0.158 HD 
DOCKED: ATOM     30  H   UNL     1     134.553  68.751 225.515 +0.05 -0.01    +0.158 HD 
DOCKED: ENDBRANCH  15  28
DOCKED: TORSDOF 4
DOCKED: TER
DOCKED: ENDMDL
________________________________________________________________________________


    FINAL DOCKED STATE:
    ________________________


Run:   6 / 20
Time taken for this run:   0.021s

DOCKED: MODEL        6
DOCKED: USER    Run = 6
DOCKED: USER
DOCKED: USER    Estimated Free Energy of Binding    =  -7.20 kcal/mol  [=(1)+(2)+(3)-(4)]
DOCKED: USER
DOCKED: USER    (1) Final Intermolecular Energy     =  -8.39 kcal/mol
DOCKED: USER        vdW + Hbond + desolv Energy     =  -8.43 kcal/mol
DOCKED: USER        Electrostatic Energy            =  +0.03 kcal/mol
DOCKED: USER        Moving Ligand-Fixed Receptor    =  -8.39 kcal/mol
DOCKED: USER        Moving Ligand-Moving Receptor   =  +0.00 kcal/mol
DOCKED: USER    (2) Final Total Internal Energy     =  -0.93 kcal/mol
DOCKED: USER    (3) Torsional Free Energy           =  +1.19 kcal/mol
DOCKED: USER    (4) Unbound System's Energy         =  -0.93 kcal/mol
DOCKED: USER
DOCKED: USER
DOCKED: REMARK SMILES C[C@H](NC(=O)c1cc2c(=O)n3ccccc3nc2nc1N)c1ccccc1
DOCKED: REMARK SMILES IDX 6 1 7 2 8 3 9 4 10 5 11 6 12 7 13 8 14 9 15 10 16 11 17 12
DOCKED: REMARK SMILES IDX 18 13 19 14 20 15 4 16 3 17 5 19 2 20 1 21 22 22 23 23 27 24
DOCKED: REMARK SMILES IDX 24 25 26 26 25 27 21 28
DOCKED: REMARK H PARENT 3 18 21 29 21 30
DOCKED: USER                              x       y       z     vdW  Elec       q    Type
DOCKED: USER                           _______ _______ _______ _____ _____    ______ ____
DOCKED: ROOT
DOCKED: ATOM      1  C   UNL     1     135.081  71.342 225.098 -0.09 -0.01    +0.082 A  
DOCKED: ATOM      2  C   UNL     1     135.184  72.738 224.992 -0.10 -0.00    +0.035 A  
DOCKED: ATOM      3  C   UNL     1     134.322  73.573 225.719 -0.28 +0.00    +0.086 A  
DOCKED: ATOM      4  C   UNL     1     134.389  74.976 225.657 -0.26 -0.01    +0.267 A  
DOCKED: ATOM      5  O   UNL     1     135.252  75.527 224.915 -0.28 +0.03    -0.268 OA 
DOCKED: ATOM      6  N   UNL     1     133.519  75.740 226.401 -0.22 +0.01    -0.267 N  
DOCKED: ATOM      7  C   UNL     1     133.573  77.111 226.350 -0.24 -0.01    +0.096 A  
DOCKED: ATOM      8  C   UNL     1     132.692  77.890 227.103 -0.27 -0.00    +0.019 A  
DOCKED: ATOM      9  C   UNL     1     131.749  77.269 227.916 -0.32 +0.00    +0.005 A  
DOCKED: ATOM     10  C   UNL     1     131.692  75.880 227.970 -0.33 +0.00    +0.048 A  
DOCKED: ATOM     11  C   UNL     1     132.584  75.121 227.206 -0.32 +0.00    +0.142 A  
DOCKED: ATOM     12  N   UNL     1     132.518  73.767 227.268 -0.55 +0.01    -0.210 NA 
DOCKED: ATOM     13  C   UNL     1     133.358  72.985 226.551 -0.28 -0.00    +0.169 A  
DOCKED: ATOM     14  N   UNL     1     133.261  71.634 226.634 -0.25 +0.02    -0.210 NA 
DOCKED: ATOM     15  C   UNL     1     134.080  70.799 225.937 -0.25 -0.01    +0.138 A  
DOCKED: ENDROOT
DOCKED: BRANCH   1  16
DOCKED: ATOM     16  C   UNL     1     136.051  70.496 224.369 -0.11 -0.03    +0.255 C  
DOCKED: ATOM     17  N   UNL     1     137.414  70.923 224.219 -0.09 +0.07    -0.345 N  
DOCKED: ATOM     18  H   UNL     1     137.666  71.899 224.496 -0.34 -0.06    +0.164 HD 
DOCKED: ATOM     19  O   UNL     1     135.688  69.377 223.914 -0.19 +0.02    -0.269 OA 
DOCKED: BRANCH  17  20
DOCKED: ATOM     20  C   UNL     1     138.455  70.029 223.701 -0.24 -0.02    +0.109 C  
DOCKED: ATOM     21  C   UNL     1     139.344  70.762 222.693 -0.24 -0.01    +0.036 C  
DOCKED: BRANCH  20  22
DOCKED: ATOM     22  C   UNL     1     139.294  69.483 224.837 -0.37 +0.00    -0.026 A  
DOCKED: ATOM     23  C   UNL     1     139.148  68.149 225.262 -0.46 -0.00    +0.006 A  
DOCKED: ATOM     24  C   UNL     1     140.211  70.317 225.503 -0.50 -0.00    +0.006 A  
DOCKED: ATOM     25  C   UNL     1     139.918  67.657 226.320 -0.66 -0.00    +0.000 A  
DOCKED: ATOM     26  C   UNL     1     140.977  69.819 226.561 -0.56 -0.00    +0.000 A  
DOCKED: ATOM     27  C   UNL     1     140.832  68.490 226.968 -0.64 -0.00    +0.000 A  
DOCKED: ENDBRANCH  20  22
DOCKED: ENDBRANCH  17  20
DOCKED: ENDBRANCH   1  16
DOCKED: BRANCH  15  28
DOCKED: ATOM     28  N   UNL     1     133.862  69.387 226.041 -0.12 +0.01    -0.383 N  
DOCKED: ATOM     29  H   UNL     1     134.492  68.691 225.588 +0.05 -0.01    +0.158 HD 
DOCKED: ATOM     30  H   UNL     1     132.994  69.030 226.499 +0.06 +0.02    +0.158 HD 
DOCKED: ENDBRANCH  15  28
DOCKED: TORSDOF 4
DOCKED: TER
DOCKED: ENDMDL
________________________________________________________________________________


    FINAL DOCKED STATE:
    ________________________


Run:   7 / 20
Time taken for this run:   0.021s

DOCKED: MODEL        7
DOCKED: USER    Run = 7
DOCKED: USER
DOCKED: USER    Estimated Free Energy of Binding    =  -7.33 kcal/mol  [=(1)+(2)+(3)-(4)]
DOCKED: USER
DOCKED: USER    (1) Final Intermolecular Energy     =  -8.52 kcal/mol
DOCKED: USER        vdW + Hbond + desolv Energy     =  -8.49 kcal/mol
DOCKED: USER        Electrostatic Energy            =  -0.03 kcal/mol
DOCKED: USER        Moving Ligand-Fixed Receptor    =  -8.52 kcal/mol
DOCKED: USER        Moving Ligand-Moving Receptor   =  +0.00 kcal/mol
DOCKED: USER    (2) Final Total Internal Energy     =  -0.85 kcal/mol
DOCKED: USER    (3) Torsional Free Energy           =  +1.19 kcal/mol
DOCKED: USER    (4) Unbound System's Energy         =  -0.85 kcal/mol
DOCKED: USER
DOCKED: USER
DOCKED: REMARK SMILES C[C@H](NC(=O)c1cc2c(=O)n3ccccc3nc2nc1N)c1ccccc1
DOCKED: REMARK SMILES IDX 6 1 7 2 8 3 9 4 10 5 11 6 12 7 13 8 14 9 15 10 16 11 17 12
DOCKED: REMARK SMILES IDX 18 13 19 14 20 15 4 16 3 17 5 19 2 20 1 21 22 22 23 23 27 24
DOCKED: REMARK SMILES IDX 24 25 26 26 25 27 21 28
DOCKED: REMARK H PARENT 3 18 21 29 21 30
DOCKED: USER                              x       y       z     vdW  Elec       q    Type
DOCKED: USER                           _______ _______ _______ _____ _____    ______ ____
DOCKED: ROOT
DOCKED: ATOM      1  C   UNL     1     139.584  72.149 222.453 -0.26 -0.02    +0.082 A  
DOCKED: ATOM      2  C   UNL     1     140.139  72.252 223.739 -0.13 -0.01    +0.035 A  
DOCKED: ATOM      3  C   UNL     1     140.163  71.140 224.595 -0.43 -0.01    +0.086 A  
DOCKED: ATOM      4  C   UNL     1     140.714  71.187 225.888 -0.40 -0.04    +0.267 A  
DOCKED: ATOM      5  O   UNL     1     141.209  72.269 226.316 -0.48 +0.04    -0.268 OA 
DOCKED: ATOM      6  N   UNL     1     140.714  70.060 226.677 -0.29 +0.05    -0.267 N  
DOCKED: ATOM      7  C   UNL     1     141.249  70.090 227.941 -0.41 -0.02    +0.096 A  
DOCKED: ATOM      8  C   UNL     1     141.251  68.949 228.745 -0.48 -0.00    +0.019 A  
DOCKED: ATOM      9  C   UNL     1     140.704  67.765 228.259 -0.28 -0.00    +0.005 A  
DOCKED: ATOM     10  C   UNL     1     140.161  67.730 226.978 -0.61 -0.01    +0.048 A  
DOCKED: ATOM     11  C   UNL     1     140.170  68.887 226.191 -0.43 -0.03    +0.142 A  
DOCKED: ATOM     12  N   UNL     1     139.638  68.840 224.944 -0.24 +0.03    -0.210 NA 
DOCKED: ATOM     13  C   UNL     1     139.622  69.929 224.141 -0.24 -0.03    +0.169 A  
DOCKED: ATOM     14  N   UNL     1     139.077  69.847 222.901 -0.12 +0.04    -0.210 NA 
DOCKED: ATOM     15  C   UNL     1     139.036  70.909 222.050 -0.14 -0.03    +0.138 A  
DOCKED: ENDROOT
DOCKED: BRANCH   1  16
DOCKED: ATOM     16  C   UNL     1     139.639  73.323 221.556 -0.17 -0.05    +0.255 C  
DOCKED: ATOM     17  N   UNL     1     139.568  74.652 222.096 -0.14 +0.05    -0.345 N  
DOCKED: ATOM     18  H   UNL     1     139.325  74.769 223.106 -0.52 -0.03    +0.164 HD 
DOCKED: ATOM     19  O   UNL     1     139.790  73.155 220.314 -0.05 +0.05    -0.269 OA 
DOCKED: BRANCH  17  20
DOCKED: ATOM     20  C   UNL     1     139.836  75.838 221.277 -0.24 -0.03    +0.109 C  
DOCKED: ATOM     21  C   UNL     1     138.754  76.011 220.207 -0.08 -0.01    +0.036 C  
DOCKED: BRANCH  20  22
DOCKED: ATOM     22  C   UNL     1     139.910  77.074 222.147 -0.35 +0.01    -0.026 A  
DOCKED: ATOM     23  C   UNL     1     138.754  77.829 222.424 -0.28 -0.00    +0.006 A  
DOCKED: ATOM     24  C   UNL     1     141.146  77.501 222.666 -0.41 -0.00    +0.006 A  
DOCKED: ATOM     25  C   UNL     1     138.834  78.976 223.218 -0.33 -0.00    +0.000 A  
DOCKED: ATOM     26  C   UNL     1     141.219  78.650 223.459 -0.56 -0.00    +0.000 A  
DOCKED: ATOM     27  C   UNL     1     140.064  79.386 223.736 -0.46 -0.00    +0.000 A  
DOCKED: ENDBRANCH  20  22
DOCKED: ENDBRANCH  17  20
DOCKED: ENDBRANCH   1  16
DOCKED: BRANCH  15  28
DOCKED: ATOM     28  N   UNL     1     138.386  70.743 220.784 -0.00 +0.07    -0.383 N  
DOCKED: ATOM     29  H   UNL     1     138.538  71.401 219.989 +0.02 -0.03    +0.158 HD 
DOCKED: ATOM     30  H   UNL     1     137.658  70.003 220.670 +0.02 -0.03    +0.158 HD 
DOCKED: ENDBRANCH  15  28
DOCKED: TORSDOF 4
DOCKED: TER
DOCKED: ENDMDL
________________________________________________________________________________


    FINAL DOCKED STATE:
    ________________________


Run:   8 / 20
Time taken for this run:   0.021s

DOCKED: MODEL        8
DOCKED: USER    Run = 8
DOCKED: USER
DOCKED: USER    Estimated Free Energy of Binding    =  -7.18 kcal/mol  [=(1)+(2)+(3)-(4)]
DOCKED: USER
DOCKED: USER    (1) Final Intermolecular Energy     =  -8.37 kcal/mol
DOCKED: USER        vdW + Hbond + desolv Energy     =  -8.40 kcal/mol
DOCKED: USER        Electrostatic Energy            =  +0.03 kcal/mol
DOCKED: USER        Moving Ligand-Fixed Receptor    =  -8.37 kcal/mol
DOCKED: USER        Moving Ligand-Moving Receptor   =  +0.00 kcal/mol
DOCKED: USER    (2) Final Total Internal Energy     =  -0.93 kcal/mol
DOCKED: USER    (3) Torsional Free Energy           =  +1.19 kcal/mol
DOCKED: USER    (4) Unbound System's Energy         =  -0.93 kcal/mol
DOCKED: USER
DOCKED: USER
DOCKED: REMARK SMILES C[C@H](NC(=O)c1cc2c(=O)n3ccccc3nc2nc1N)c1ccccc1
DOCKED: REMARK SMILES IDX 6 1 7 2 8 3 9 4 10 5 11 6 12 7 13 8 14 9 15 10 16 11 17 12
DOCKED: REMARK SMILES IDX 18 13 19 14 20 15 4 16 3 17 5 19 2 20 1 21 22 22 23 23 27 24
DOCKED: REMARK SMILES IDX 24 25 26 26 25 27 21 28
DOCKED: REMARK H PARENT 3 18 21 29 21 30
DOCKED: USER                              x       y       z     vdW  Elec       q    Type
DOCKED: USER                           _______ _______ _______ _____ _____    ______ ____
DOCKED: ROOT
DOCKED: ATOM      1  C   UNL     1     135.122  71.341 225.061 -0.07 -0.01    +0.082 A  
DOCKED: ATOM      2  C   UNL     1     135.217  72.740 224.977 -0.09 -0.00    +0.035 A  
DOCKED: ATOM      3  C   UNL     1     134.344  73.558 225.710 -0.27 +0.00    +0.086 A  
DOCKED: ATOM      4  C   UNL     1     134.403  74.962 225.670 -0.26 -0.01    +0.267 A  
DOCKED: ATOM      5  O   UNL     1     135.268  75.529 224.943 -0.29 +0.03    -0.268 OA 
DOCKED: ATOM      6  N   UNL     1     133.523  75.710 226.418 -0.22 +0.00    -0.267 N  
DOCKED: ATOM      7  C   UNL     1     133.569  77.082 226.388 -0.24 -0.01    +0.096 A  
DOCKED: ATOM      8  C   UNL     1     132.677  77.844 227.145 -0.28 -0.00    +0.019 A  
DOCKED: ATOM      9  C   UNL     1     131.731  77.206 227.941 -0.32 +0.00    +0.005 A  
DOCKED: ATOM     10  C   UNL     1     131.682  75.816 227.974 -0.33 +0.00    +0.048 A  
DOCKED: ATOM     11  C   UNL     1     132.585  75.073 227.206 -0.32 +0.00    +0.142 A  
DOCKED: ATOM     12  N   UNL     1     132.527  73.718 227.247 -0.55 +0.01    -0.210 NA 
DOCKED: ATOM     13  C   UNL     1     133.377  72.952 226.525 -0.28 -0.00    +0.169 A  
DOCKED: ATOM     14  N   UNL     1     133.287  71.599 226.587 -0.25 +0.02    -0.210 NA 
DOCKED: ATOM     15  C   UNL     1     134.117  70.780 225.885 -0.24 -0.01    +0.138 A  
DOCKED: ENDROOT
DOCKED: BRANCH   1  16
DOCKED: ATOM     16  C   UNL     1     136.102  70.513 224.328 -0.11 -0.03    +0.255 C  
DOCKED: ATOM     17  N   UNL     1     137.457  70.963 224.171 -0.09 +0.07    -0.345 N  
DOCKED: ATOM     18  H   UNL     1     137.693  71.943 224.447 -0.35 -0.07    +0.164 HD 
DOCKED: ATOM     19  O   UNL     1     135.756  69.387 223.875 -0.18 +0.02    -0.269 OA 
DOCKED: BRANCH  17  20
DOCKED: ATOM     20  C   UNL     1     138.511  70.087 223.649 -0.24 -0.02    +0.109 C  
DOCKED: ATOM     21  C   UNL     1     139.413  70.849 222.674 -0.24 -0.01    +0.036 C  
DOCKED: BRANCH  20  22
DOCKED: ATOM     22  C   UNL     1     139.335  69.517 224.784 -0.36 +0.00    -0.026 A  
DOCKED: ATOM     23  C   UNL     1     139.202  68.167 225.161 -0.45 -0.00    +0.006 A  
DOCKED: ATOM     24  C   UNL     1     140.222  70.343 225.497 -0.50 -0.00    +0.006 A  
DOCKED: ATOM     25  C   UNL     1     139.957  67.652 226.219 -0.65 -0.00    +0.000 A  
DOCKED: ATOM     26  C   UNL     1     140.974  69.822 226.556 -0.56 -0.00    +0.000 A  
DOCKED: ATOM     27  C   UNL     1     140.843  68.478 226.915 -0.64 -0.00    +0.000 A  
DOCKED: ENDBRANCH  20  22
DOCKED: ENDBRANCH  17  20
DOCKED: ENDBRANCH   1  16
DOCKED: BRANCH  15  28
DOCKED: ATOM     28  N   UNL     1     133.907  69.365 225.966 -0.12 +0.01    -0.383 N  
DOCKED: ATOM     29  H   UNL     1     133.099  68.950 226.476 +0.06 +0.02    +0.158 HD 
DOCKED: ATOM     30  H   UNL     1     134.632  68.713 225.592 +0.05 -0.01    +0.158 HD 
DOCKED: ENDBRANCH  15  28
DOCKED: TORSDOF 4
DOCKED: TER
DOCKED: ENDMDL
________________________________________________________________________________


    FINAL DOCKED STATE:
    ________________________


Run:   9 / 20
Time taken for this run:   0.021s

DOCKED: MODEL        9
DOCKED: USER    Run = 9
DOCKED: USER
DOCKED: USER    Estimated Free Energy of Binding    =  -7.08 kcal/mol  [=(1)+(2)+(3)-(4)]
DOCKED: USER
DOCKED: USER    (1) Final Intermolecular Energy     =  -8.27 kcal/mol
DOCKED: USER        vdW + Hbond + desolv Energy     =  -8.29 kcal/mol
DOCKED: USER        Electrostatic Energy            =  +0.02 kcal/mol
DOCKED: USER        Moving Ligand-Fixed Receptor    =  -8.27 kcal/mol
DOCKED: USER        Moving Ligand-Moving Receptor   =  +0.00 kcal/mol
DOCKED: USER    (2) Final Total Internal Energy     =  -0.96 kcal/mol
DOCKED: USER    (3) Torsional Free Energy           =  +1.19 kcal/mol
DOCKED: USER    (4) Unbound System's Energy         =  -0.96 kcal/mol
DOCKED: USER
DOCKED: USER
DOCKED: REMARK SMILES C[C@H](NC(=O)c1cc2c(=O)n3ccccc3nc2nc1N)c1ccccc1
DOCKED: REMARK SMILES IDX 6 1 7 2 8 3 9 4 10 5 11 6 12 7 13 8 14 9 15 10 16 11 17 12
DOCKED: REMARK SMILES IDX 18 13 19 14 20 15 4 16 3 17 5 19 2 20 1 21 22 22 23 23 27 24
DOCKED: REMARK SMILES IDX 24 25 26 26 25 27 21 28
DOCKED: REMARK H PARENT 3 18 21 29 21 30
DOCKED: USER                              x       y       z     vdW  Elec       q    Type
DOCKED: USER                           _______ _______ _______ _____ _____    ______ ____
DOCKED: ROOT
DOCKED: ATOM      1  C   UNL     1     135.226  71.465 224.970 -0.06 -0.01    +0.082 A  
DOCKED: ATOM      2  C   UNL     1     135.261  72.866 224.876 -0.12 -0.00    +0.035 A  
DOCKED: ATOM      3  C   UNL     1     134.377  73.652 225.631 -0.26 +0.00    +0.086 A  
DOCKED: ATOM      4  C   UNL     1     134.377  75.057 225.582 -0.26 -0.01    +0.267 A  
DOCKED: ATOM      5  O   UNL     1     135.196  75.655 224.827 -0.27 +0.03    -0.268 OA 
DOCKED: ATOM      6  N   UNL     1     133.489  75.773 226.351 -0.21 +0.01    -0.267 N  
DOCKED: ATOM      7  C   UNL     1     133.478  77.145 226.313 -0.23 -0.01    +0.096 A  
DOCKED: ATOM      8  C   UNL     1     132.578  77.875 227.094 -0.27 -0.00    +0.019 A  
DOCKED: ATOM      9  C   UNL     1     131.683  77.203 227.920 -0.32 +0.00    +0.005 A  
DOCKED: ATOM     10  C   UNL     1     131.692  75.813 227.961 -0.34 +0.00    +0.048 A  
DOCKED: ATOM     11  C   UNL     1     132.602  75.103 227.171 -0.32 +0.00    +0.142 A  
DOCKED: ATOM     12  N   UNL     1     132.601  73.747 227.220 -0.61 +0.01    -0.210 NA 
DOCKED: ATOM     13  C   UNL     1     133.460  73.012 226.477 -0.28 +0.00    +0.169 A  
DOCKED: ATOM     14  N   UNL     1     133.428  71.657 226.548 -0.25 +0.02    -0.210 NA 
DOCKED: ATOM     15  C   UNL     1     134.270  70.868 225.825 -0.23 -0.01    +0.138 A  
DOCKED: ENDROOT
DOCKED: BRANCH   1  16
DOCKED: ATOM     16  C   UNL     1     136.218  70.673 224.212 -0.12 -0.03    +0.255 C  
DOCKED: ATOM     17  N   UNL     1     137.557  71.162 224.042 -0.09 +0.08    -0.345 N  
DOCKED: ATOM     18  H   UNL     1     137.771  72.144 224.327 -0.39 -0.09    +0.164 HD 
DOCKED: ATOM     19  O   UNL     1     135.896  69.544 223.749 -0.14 +0.03    -0.269 OA 
DOCKED: BRANCH  17  20
DOCKED: ATOM     20  C   UNL     1     138.626  70.321 223.492 -0.23 -0.02    +0.109 C  
DOCKED: ATOM     21  C   UNL     1     139.603  71.162 222.665 -0.27 -0.01    +0.036 C  
DOCKED: BRANCH  20  22
DOCKED: ATOM     22  C   UNL     1     139.365  69.612 224.608 -0.35 +0.00    -0.026 A  
DOCKED: ATOM     23  C   UNL     1     138.876  68.402 225.137 -0.41 -0.00    +0.006 A  
DOCKED: ATOM     24  C   UNL     1     140.535  70.172 225.149 -0.46 -0.00    +0.006 A  
DOCKED: ATOM     25  C   UNL     1     139.557  67.760 226.175 -0.63 -0.00    +0.000 A  
DOCKED: ATOM     26  C   UNL     1     141.211  69.526 226.189 -0.53 -0.00    +0.000 A  
DOCKED: ATOM     27  C   UNL     1     140.724  68.320 226.700 -0.65 -0.00    +0.000 A  
DOCKED: ENDBRANCH  20  22
DOCKED: ENDBRANCH  17  20
DOCKED: ENDBRANCH   1  16
DOCKED: BRANCH  15  28
DOCKED: ATOM     28  N   UNL     1     134.121  69.447 225.920 -0.12 +0.01    -0.383 N  
DOCKED: ATOM     29  H   UNL     1     133.856  68.971 226.809 +0.06 +0.02    +0.158 HD 
DOCKED: ATOM     30  H   UNL     1     134.379  68.845 225.107 +0.05 -0.01    +0.158 HD 
DOCKED: ENDBRANCH  15  28
DOCKED: TORSDOF 4
DOCKED: TER
DOCKED: ENDMDL
________________________________________________________________________________


    FINAL DOCKED STATE:
    ________________________


Run:   10 / 20
Time taken for this run:   0.021s

DOCKED: MODEL        10
DOCKED: USER    Run = 10
DOCKED: USER
DOCKED: USER    Estimated Free Energy of Binding    =  -7.16 kcal/mol  [=(1)+(2)+(3)-(4)]
DOCKED: USER
DOCKED: USER    (1) Final Intermolecular Energy     =  -8.36 kcal/mol
DOCKED: USER        vdW + Hbond + desolv Energy     =  -8.39 kcal/mol
DOCKED: USER        Electrostatic Energy            =  +0.04 kcal/mol
DOCKED: USER        Moving Ligand-Fixed Receptor    =  -8.36 kcal/mol
DOCKED: USER        Moving Ligand-Moving Receptor   =  +0.00 kcal/mol
DOCKED: USER    (2) Final Total Internal Energy     =  -0.93 kcal/mol
DOCKED: USER    (3) Torsional Free Energy           =  +1.19 kcal/mol
DOCKED: USER    (4) Unbound System's Energy         =  -0.93 kcal/mol
DOCKED: USER
DOCKED: USER
DOCKED: REMARK SMILES C[C@H](NC(=O)c1cc2c(=O)n3ccccc3nc2nc1N)c1ccccc1
DOCKED: REMARK SMILES IDX 6 1 7 2 8 3 9 4 10 5 11 6 12 7 13 8 14 9 15 10 16 11 17 12
DOCKED: REMARK SMILES IDX 18 13 19 14 20 15 4 16 3 17 5 19 2 20 1 21 22 22 23 23 27 24
DOCKED: REMARK SMILES IDX 24 25 26 26 25 27 21 28
DOCKED: REMARK H PARENT 3 18 21 29 21 30
DOCKED: USER                              x       y       z     vdW  Elec       q    Type
DOCKED: USER                           _______ _______ _______ _____ _____    ______ ____
DOCKED: ROOT
DOCKED: ATOM      1  C   UNL     1     135.096  71.340 225.096 -0.07 -0.01    +0.082 A  
DOCKED: ATOM      2  C   UNL     1     135.193  72.736 224.992 -0.09 -0.00    +0.035 A  
DOCKED: ATOM      3  C   UNL     1     134.325  73.566 225.718 -0.28 +0.00    +0.086 A  
DOCKED: ATOM      4  C   UNL     1     134.385  74.970 225.657 -0.26 -0.01    +0.267 A  
DOCKED: ATOM      5  O   UNL     1     135.248  75.525 224.919 -0.29 +0.03    -0.268 OA 
DOCKED: ATOM      6  N   UNL     1     133.510  75.729 226.399 -0.22 +0.00    -0.267 N  
DOCKED: ATOM      7  C   UNL     1     133.558  77.100 226.350 -0.24 -0.01    +0.096 A  
DOCKED: ATOM      8  C   UNL     1     132.671  77.874 227.101 -0.27 -0.00    +0.019 A  
DOCKED: ATOM      9  C   UNL     1     131.728  77.248 227.910 -0.32 +0.00    +0.005 A  
DOCKED: ATOM     10  C   UNL     1     131.677  75.859 227.963 -0.33 +0.00    +0.048 A  
DOCKED: ATOM     11  C   UNL     1     132.575  75.104 227.201 -0.32 +0.00    +0.142 A  
DOCKED: ATOM     12  N   UNL     1     132.515  73.750 227.261 -0.54 +0.01    -0.210 NA 
DOCKED: ATOM     13  C   UNL     1     133.361  72.973 226.545 -0.28 -0.00    +0.169 A  
DOCKED: ATOM     14  N   UNL     1     133.270  71.621 226.627 -0.25 +0.02    -0.210 NA 
DOCKED: ATOM     15  C   UNL     1     134.095  70.791 225.932 -0.24 -0.01    +0.138 A  
DOCKED: ENDROOT
DOCKED: BRANCH   1  16
DOCKED: ATOM     16  C   UNL     1     136.072  70.499 224.369 -0.11 -0.03    +0.255 C  
DOCKED: ATOM     17  N   UNL     1     137.430  70.941 224.208 -0.09 +0.07    -0.345 N  
DOCKED: ATOM     18  H   UNL     1     137.671  71.922 224.475 -0.34 -0.07    +0.164 HD 
DOCKED: ATOM     19  O   UNL     1     135.720  69.372 223.926 -0.19 +0.02    -0.269 OA 
DOCKED: BRANCH  17  20
DOCKED: ATOM     20  C   UNL     1     138.478  70.055 223.693 -0.24 -0.02    +0.109 C  
DOCKED: ATOM     21  C   UNL     1     139.382  70.803 222.709 -0.24 -0.01    +0.036 C  
DOCKED: BRANCH  20  22
DOCKED: ATOM     22  C   UNL     1     139.301  69.493 224.833 -0.37 +0.00    -0.026 A  
DOCKED: ATOM     23  C   UNL     1     140.195  70.313 225.546 -0.50 -0.00    +0.006 A  
DOCKED: ATOM     24  C   UNL     1     139.202  68.132 225.172 -0.46 -0.00    +0.006 A  
DOCKED: ATOM     25  C   UNL     1     140.961  69.783 226.588 -0.56 -0.00    +0.000 A  
DOCKED: ATOM     26  C   UNL     1     139.971  67.607 226.215 -0.65 -0.00    +0.000 A  
DOCKED: ATOM     27  C   UNL     1     140.848  68.432 226.924 -0.64 -0.00    +0.000 A  
DOCKED: ENDBRANCH  20  22
DOCKED: ENDBRANCH  17  20
DOCKED: ENDBRANCH   1  16
DOCKED: BRANCH  15  28
DOCKED: ATOM     28  N   UNL     1     133.884  69.378 226.034 -0.12 +0.01    -0.383 N  
DOCKED: ATOM     29  H   UNL     1     133.081  68.971 226.559 +0.07 +0.03    +0.158 HD 
DOCKED: ATOM     30  H   UNL     1     134.603  68.720 225.660 +0.06 -0.01    +0.158 HD 
DOCKED: ENDBRANCH  15  28
DOCKED: TORSDOF 4
DOCKED: TER
DOCKED: ENDMDL
________________________________________________________________________________


    FINAL DOCKED STATE:
    ________________________


Run:   11 / 20
Time taken for this run:   0.021s

DOCKED: MODEL        11
DOCKED: USER    Run = 11
DOCKED: USER
DOCKED: USER    Estimated Free Energy of Binding    =  -7.20 kcal/mol  [=(1)+(2)+(3)-(4)]
DOCKED: USER
DOCKED: USER    (1) Final Intermolecular Energy     =  -8.39 kcal/mol
DOCKED: USER        vdW + Hbond + desolv Energy     =  -8.42 kcal/mol
DOCKED: USER        Electrostatic Energy            =  +0.03 kcal/mol
DOCKED: USER        Moving Ligand-Fixed Receptor    =  -8.39 kcal/mol
DOCKED: USER        Moving Ligand-Moving Receptor   =  +0.00 kcal/mol
DOCKED: USER    (2) Final Total Internal Energy     =  -0.93 kcal/mol
DOCKED: USER    (3) Torsional Free Energy           =  +1.19 kcal/mol
DOCKED: USER    (4) Unbound System's Energy         =  -0.93 kcal/mol
DOCKED: USER
DOCKED: USER
DOCKED: REMARK SMILES C[C@H](NC(=O)c1cc2c(=O)n3ccccc3nc2nc1N)c1ccccc1
DOCKED: REMARK SMILES IDX 6 1 7 2 8 3 9 4 10 5 11 6 12 7 13 8 14 9 15 10 16 11 17 12
DOCKED: REMARK SMILES IDX 18 13 19 14 20 15 4 16 3 17 5 19 2 20 1 21 22 22 23 23 27 24
DOCKED: REMARK SMILES IDX 24 25 26 26 25 27 21 28
DOCKED: REMARK H PARENT 3 18 21 29 21 30
DOCKED: USER                              x       y       z     vdW  Elec       q    Type
DOCKED: USER                           _______ _______ _______ _____ _____    ______ ____
DOCKED: ROOT
DOCKED: ATOM      1  C   UNL     1     135.089  71.344 225.062 -0.10 -0.01    +0.082 A  
DOCKED: ATOM      2  C   UNL     1     135.189  72.741 224.964 -0.12 -0.00    +0.035 A  
DOCKED: ATOM      3  C   UNL     1     134.323  73.570 225.695 -0.28 +0.00    +0.086 A  
DOCKED: ATOM      4  C   UNL     1     134.387  74.973 225.641 -0.26 -0.01    +0.267 A  
DOCKED: ATOM      5  O   UNL     1     135.250  75.530 224.904 -0.28 +0.03    -0.268 OA 
DOCKED: ATOM      6  N   UNL     1     133.515  75.731 226.388 -0.22 +0.01    -0.267 N  
DOCKED: ATOM      7  C   UNL     1     133.566  77.103 226.345 -0.24 -0.01    +0.096 A  
DOCKED: ATOM      8  C   UNL     1     132.682  77.876 227.101 -0.27 -0.00    +0.019 A  
DOCKED: ATOM      9  C   UNL     1     131.739  77.248 227.909 -0.32 +0.00    +0.005 A  
DOCKED: ATOM     10  C   UNL     1     131.684  75.859 227.955 -0.33 +0.00    +0.048 A  
DOCKED: ATOM     11  C   UNL     1     132.580  75.105 227.188 -0.32 +0.00    +0.142 A  
DOCKED: ATOM     12  N   UNL     1     132.517  73.751 227.242 -0.54 +0.01    -0.210 NA 
DOCKED: ATOM     13  C   UNL     1     133.360  72.975 226.521 -0.28 -0.00    +0.169 A  
DOCKED: ATOM     14  N   UNL     1     133.265  71.623 226.597 -0.25 +0.02    -0.210 NA 
DOCKED: ATOM     15  C   UNL     1     134.087  70.794 225.897 -0.24 -0.01    +0.138 A  
DOCKED: ENDROOT
DOCKED: BRANCH   1  16
DOCKED: ATOM     16  C   UNL     1     136.061  70.505 224.330 -0.11 -0.03    +0.255 C  
DOCKED: ATOM     17  N   UNL     1     137.422  70.940 224.176 -0.09 +0.07    -0.345 N  
DOCKED: ATOM     18  H   UNL     1     137.668  71.918 224.452 -0.34 -0.07    +0.164 HD 
DOCKED: ATOM     19  O   UNL     1     135.704  69.384 223.876 -0.18 +0.02    -0.269 OA 
DOCKED: BRANCH  17  20
DOCKED: ATOM     20  C   UNL     1     138.466  70.053 223.655 -0.24 -0.02    +0.109 C  
DOCKED: ATOM     21  C   UNL     1     139.349  70.793 222.645 -0.23 -0.01    +0.036 C  
DOCKED: BRANCH  20  22
DOCKED: ATOM     22  C   UNL     1     139.311  69.511 224.788 -0.36 +0.00    -0.026 A  
DOCKED: ATOM     23  C   UNL     1     140.242  70.337 225.448 -0.50 -0.00    +0.006 A  
DOCKED: ATOM     24  C   UNL     1     139.197  68.164 225.174 -0.46 -0.00    +0.006 A  
DOCKED: ATOM     25  C   UNL     1     141.028  69.825 226.485 -0.56 -0.00    +0.000 A  
DOCKED: ATOM     26  C   UNL     1     139.986  67.658 226.212 -0.65 -0.00    +0.000 A  
DOCKED: ATOM     27  C   UNL     1     140.900  68.487 226.867 -0.64 -0.00    +0.000 A  
DOCKED: ENDBRANCH  20  22
DOCKED: ENDBRANCH  17  20
DOCKED: ENDBRANCH   1  16
DOCKED: BRANCH  15  28
DOCKED: ATOM     28  N   UNL     1     133.872  69.381 225.992 -0.11 +0.01    -0.383 N  
DOCKED: ATOM     29  H   UNL     1     134.507  68.689 225.541 +0.05 -0.01    +0.158 HD 
DOCKED: ATOM     30  H   UNL     1     133.001  69.020 226.440 +0.06 +0.02    +0.158 HD 
DOCKED: ENDBRANCH  15  28
DOCKED: TORSDOF 4
DOCKED: TER
DOCKED: ENDMDL
________________________________________________________________________________


    FINAL DOCKED STATE:
    ________________________


Run:   12 / 20
Time taken for this run:   0.021s

DOCKED: MODEL        12
DOCKED: USER    Run = 12
DOCKED: USER
DOCKED: USER    Estimated Free Energy of Binding    =  -7.30 kcal/mol  [=(1)+(2)+(3)-(4)]
DOCKED: USER
DOCKED: USER    (1) Final Intermolecular Energy     =  -8.50 kcal/mol
DOCKED: USER        vdW + Hbond + desolv Energy     =  -8.47 kcal/mol
DOCKED: USER        Electrostatic Energy            =  -0.03 kcal/mol
DOCKED: USER        Moving Ligand-Fixed Receptor    =  -8.50 kcal/mol
DOCKED: USER        Moving Ligand-Moving Receptor   =  +0.00 kcal/mol
DOCKED: USER    (2) Final Total Internal Energy     =  -0.86 kcal/mol
DOCKED: USER    (3) Torsional Free Energy           =  +1.19 kcal/mol
DOCKED: USER    (4) Unbound System's Energy         =  -0.86 kcal/mol
DOCKED: USER
DOCKED: USER
DOCKED: REMARK SMILES C[C@H](NC(=O)c1cc2c(=O)n3ccccc3nc2nc1N)c1ccccc1
DOCKED: REMARK SMILES IDX 6 1 7 2 8 3 9 4 10 5 11 6 12 7 13 8 14 9 15 10 16 11 17 12
DOCKED: REMARK SMILES IDX 18 13 19 14 20 15 4 16 3 17 5 19 2 20 1 21 22 22 23 23 27 24
DOCKED: REMARK SMILES IDX 24 25 26 26 25 27 21 28
DOCKED: REMARK H PARENT 3 18 21 29 21 30
DOCKED: USER                              x       y       z     vdW  Elec       q    Type
DOCKED: USER                           _______ _______ _______ _____ _____    ______ ____
DOCKED: ROOT
DOCKED: ATOM      1  C   UNL     1     139.574  72.160 222.440 -0.26 -0.02    +0.082 A  
DOCKED: ATOM      2  C   UNL     1     140.170  72.258 223.708 -0.16 -0.01    +0.035 A  
DOCKED: ATOM      3  C   UNL     1     140.187  71.155 224.575 -0.43 -0.01    +0.086 A  
DOCKED: ATOM      4  C   UNL     1     140.779  71.196 225.849 -0.40 -0.04    +0.267 A  
DOCKED: ATOM      5  O   UNL     1     141.318  72.267 226.251 -0.46 +0.04    -0.268 OA 
DOCKED: ATOM      6  N   UNL     1     140.768  70.078 226.649 -0.29 +0.05    -0.267 N  
DOCKED: ATOM      7  C   UNL     1     141.343  70.104 227.897 -0.35 -0.02    +0.096 A  
DOCKED: ATOM      8  C   UNL     1     141.334  68.971 228.712 -0.49 -0.00    +0.019 A  
DOCKED: ATOM      9  C   UNL     1     140.737  67.800 228.255 -0.33 -0.00    +0.005 A  
DOCKED: ATOM     10  C   UNL     1     140.155  67.769 226.992 -0.62 -0.01    +0.048 A  
DOCKED: ATOM     11  C   UNL     1     140.175  68.917 226.193 -0.43 -0.03    +0.142 A  
DOCKED: ATOM     12  N   UNL     1     139.604  68.874 224.963 -0.25 +0.03    -0.210 NA 
DOCKED: ATOM     13  C   UNL     1     139.596  69.956 224.149 -0.24 -0.03    +0.169 A  
DOCKED: ATOM     14  N   UNL     1     139.012  69.878 222.927 -0.12 +0.04    -0.210 NA 
DOCKED: ATOM     15  C   UNL     1     138.976  70.933 222.067 -0.14 -0.03    +0.138 A  
DOCKED: ENDROOT
DOCKED: BRANCH   1  16
DOCKED: ATOM     16  C   UNL     1     139.636  73.322 221.529 -0.17 -0.05    +0.255 C  
DOCKED: ATOM     17  N   UNL     1     139.582  74.658 222.054 -0.15 +0.05    -0.345 N  
DOCKED: ATOM     18  H   UNL     1     139.344  74.789 223.064 -0.50 -0.03    +0.164 HD 
DOCKED: ATOM     19  O   UNL     1     139.780  73.139 220.289 -0.05 +0.05    -0.269 OA 
DOCKED: BRANCH  17  20
DOCKED: ATOM     20  C   UNL     1     139.858  75.832 221.220 -0.23 -0.03    +0.109 C  
DOCKED: ATOM     21  C   UNL     1     138.804  75.971 220.118 -0.07 -0.01    +0.036 C  
DOCKED: BRANCH  20  22
DOCKED: ATOM     22  C   UNL     1     139.893  77.086 222.069 -0.34 +0.01    -0.026 A  
DOCKED: ATOM     23  C   UNL     1     141.105  77.550 222.615 -0.44 -0.00    +0.006 A  
DOCKED: ATOM     24  C   UNL     1     138.705  77.784 222.348 -0.28 -0.00    +0.006 A  
DOCKED: ATOM     25  C   UNL     1     141.126  78.700 223.408 -0.54 -0.00    +0.000 A  
DOCKED: ATOM     26  C   UNL     1     138.732  78.934 223.143 -0.32 -0.00    +0.000 A  
DOCKED: ATOM     27  C   UNL     1     139.942  79.393 223.671 -0.45 -0.00    +0.000 A  
DOCKED: ENDBRANCH  20  22
DOCKED: ENDBRANCH  17  20
DOCKED: ENDBRANCH   1  16
DOCKED: BRANCH  15  28
DOCKED: ATOM     28  N   UNL     1     138.284  70.775 220.823 -0.00 +0.07    -0.383 N  
DOCKED: ATOM     29  H   UNL     1     137.717  69.928 220.604 +0.02 -0.03    +0.158 HD 
DOCKED: ATOM     30  H   UNL     1     138.422  71.476 220.062 +0.02 -0.03    +0.158 HD 
DOCKED: ENDBRANCH  15  28
DOCKED: TORSDOF 4
DOCKED: TER
DOCKED: ENDMDL
________________________________________________________________________________


    FINAL DOCKED STATE:
    ________________________


Run:   13 / 20
Time taken for this run:   0.021s

DOCKED: MODEL        13
DOCKED: USER    Run = 13
DOCKED: USER
DOCKED: USER    Estimated Free Energy of Binding    =  -7.20 kcal/mol  [=(1)+(2)+(3)-(4)]
DOCKED: USER
DOCKED: USER    (1) Final Intermolecular Energy     =  -8.39 kcal/mol
DOCKED: USER        vdW + Hbond + desolv Energy     =  -8.42 kcal/mol
DOCKED: USER        Electrostatic Energy            =  +0.03 kcal/mol
DOCKED: USER        Moving Ligand-Fixed Receptor    =  -8.39 kcal/mol
DOCKED: USER        Moving Ligand-Moving Receptor   =  +0.00 kcal/mol
DOCKED: USER    (2) Final Total Internal Energy     =  -0.93 kcal/mol
DOCKED: USER    (3) Torsional Free Energy           =  +1.19 kcal/mol
DOCKED: USER    (4) Unbound System's Energy         =  -0.93 kcal/mol
DOCKED: USER
DOCKED: USER
DOCKED: REMARK SMILES C[C@H](NC(=O)c1cc2c(=O)n3ccccc3nc2nc1N)c1ccccc1
DOCKED: REMARK SMILES IDX 6 1 7 2 8 3 9 4 10 5 11 6 12 7 13 8 14 9 15 10 16 11 17 12
DOCKED: REMARK SMILES IDX 18 13 19 14 20 15 4 16 3 17 5 19 2 20 1 21 22 22 23 23 27 24
DOCKED: REMARK SMILES IDX 24 25 26 26 25 27 21 28
DOCKED: REMARK H PARENT 3 18 21 29 21 30
DOCKED: USER                              x       y       z     vdW  Elec       q    Type
DOCKED: USER                           _______ _______ _______ _____ _____    ______ ____
DOCKED: ROOT
DOCKED: ATOM      1  C   UNL     1     135.087  71.359 225.071 -0.09 -0.01    +0.082 A  
DOCKED: ATOM      2  C   UNL     1     135.184  72.756 224.972 -0.12 -0.00    +0.035 A  
DOCKED: ATOM      3  C   UNL     1     134.317  73.584 225.703 -0.28 +0.00    +0.086 A  
DOCKED: ATOM      4  C   UNL     1     134.378  74.987 225.647 -0.26 -0.01    +0.267 A  
DOCKED: ATOM      5  O   UNL     1     135.239  75.545 224.909 -0.28 +0.03    -0.268 OA 
DOCKED: ATOM      6  N   UNL     1     133.505  75.743 226.394 -0.22 +0.01    -0.267 N  
DOCKED: ATOM      7  C   UNL     1     133.553  77.115 226.350 -0.24 -0.01    +0.096 A  
DOCKED: ATOM      8  C   UNL     1     132.668  77.887 227.106 -0.27 -0.00    +0.019 A  
DOCKED: ATOM      9  C   UNL     1     131.726  77.258 227.915 -0.32 +0.00    +0.005 A  
DOCKED: ATOM     10  C   UNL     1     131.675  75.868 227.962 -0.33 +0.00    +0.048 A  
DOCKED: ATOM     11  C   UNL     1     132.572  75.116 227.195 -0.32 +0.00    +0.142 A  
DOCKED: ATOM     12  N   UNL     1     132.512  73.762 227.251 -0.54 +0.01    -0.210 NA 
DOCKED: ATOM     13  C   UNL     1     133.356  72.987 226.530 -0.28 -0.00    +0.169 A  
DOCKED: ATOM     14  N   UNL     1     133.264  71.635 226.607 -0.25 +0.02    -0.210 NA 
DOCKED: ATOM     15  C   UNL     1     134.087  70.807 225.907 -0.24 -0.01    +0.138 A  
DOCKED: ENDROOT
DOCKED: BRANCH   1  16
DOCKED: ATOM     16  C   UNL     1     136.061  70.521 224.339 -0.11 -0.03    +0.255 C  
DOCKED: ATOM     17  N   UNL     1     137.424  70.951 224.197 -0.09 +0.07    -0.345 N  
DOCKED: ATOM     18  H   UNL     1     137.673  71.925 224.483 -0.35 -0.07    +0.164 HD 
DOCKED: ATOM     19  O   UNL     1     135.701  69.405 223.873 -0.18 +0.02    -0.269 OA 
DOCKED: BRANCH  17  20
DOCKED: ATOM     20  C   UNL     1     138.468  70.063 223.676 -0.24 -0.02    +0.109 C  
DOCKED: ATOM     21  C   UNL     1     139.354  70.804 222.670 -0.24 -0.01    +0.036 C  
DOCKED: BRANCH  20  22
DOCKED: ATOM     22  C   UNL     1     139.310  69.517 224.810 -0.36 +0.00    -0.026 A  
DOCKED: ATOM     23  C   UNL     1     140.232  70.343 225.481 -0.50 -0.00    +0.006 A  
DOCKED: ATOM     24  C   UNL     1     139.201  68.167 225.185 -0.46 -0.00    +0.006 A  
DOCKED: ATOM     25  C   UNL     1     141.015  69.827 226.518 -0.56 -0.00    +0.000 A  
DOCKED: ATOM     26  C   UNL     1     139.987  67.656 226.222 -0.65 -0.00    +0.000 A  
DOCKED: ATOM     27  C   UNL     1     140.892  68.486 226.890 -0.64 -0.00    +0.000 A  
DOCKED: ENDBRANCH  20  22
DOCKED: ENDBRANCH  17  20
DOCKED: ENDBRANCH   1  16
DOCKED: BRANCH  15  28
DOCKED: ATOM     28  N   UNL     1     133.875  69.394 226.004 -0.12 +0.01    -0.383 N  
DOCKED: ATOM     29  H   UNL     1     134.495  68.703 225.529 +0.05 -0.01    +0.158 HD 
DOCKED: ATOM     30  H   UNL     1     133.019  69.031 226.479 +0.06 +0.02    +0.158 HD 
DOCKED: ENDBRANCH  15  28
DOCKED: TORSDOF 4
DOCKED: TER
DOCKED: ENDMDL
________________________________________________________________________________


    FINAL DOCKED STATE:
    ________________________


Run:   14 / 20
Time taken for this run:   0.021s

DOCKED: MODEL        14
DOCKED: USER    Run = 14
DOCKED: USER
DOCKED: USER    Estimated Free Energy of Binding    =  -7.32 kcal/mol  [=(1)+(2)+(3)-(4)]
DOCKED: USER
DOCKED: USER    (1) Final Intermolecular Energy     =  -8.52 kcal/mol
DOCKED: USER        vdW + Hbond + desolv Energy     =  -8.48 kcal/mol
DOCKED: USER        Electrostatic Energy            =  -0.03 kcal/mol
DOCKED: USER        Moving Ligand-Fixed Receptor    =  -8.52 kcal/mol
DOCKED: USER        Moving Ligand-Moving Receptor   =  +0.00 kcal/mol
DOCKED: USER    (2) Final Total Internal Energy     =  -0.83 kcal/mol
DOCKED: USER    (3) Torsional Free Energy           =  +1.19 kcal/mol
DOCKED: USER    (4) Unbound System's Energy         =  -0.83 kcal/mol
DOCKED: USER
DOCKED: USER
DOCKED: REMARK SMILES C[C@H](NC(=O)c1cc2c(=O)n3ccccc3nc2nc1N)c1ccccc1
DOCKED: REMARK SMILES IDX 6 1 7 2 8 3 9 4 10 5 11 6 12 7 13 8 14 9 15 10 16 11 17 12
DOCKED: REMARK SMILES IDX 18 13 19 14 20 15 4 16 3 17 5 19 2 20 1 21 22 22 23 23 27 24
DOCKED: REMARK SMILES IDX 24 25 26 26 25 27 21 28
DOCKED: REMARK H PARENT 3 18 21 29 21 30
DOCKED: USER                              x       y       z     vdW  Elec       q    Type
DOCKED: USER                           _______ _______ _______ _____ _____    ______ ____
DOCKED: ROOT
DOCKED: ATOM      1  C   UNL     1     139.571  72.159 222.457 -0.26 -0.02    +0.082 A  
DOCKED: ATOM      2  C   UNL     1     140.176  72.259 223.720 -0.15 -0.01    +0.035 A  
DOCKED: ATOM      3  C   UNL     1     140.204  71.154 224.586 -0.43 -0.01    +0.086 A  
DOCKED: ATOM      4  C   UNL     1     140.805  71.197 225.856 -0.40 -0.04    +0.267 A  
DOCKED: ATOM      5  O   UNL     1     141.342  72.270 226.256 -0.45 +0.04    -0.268 OA 
DOCKED: ATOM      6  N   UNL     1     140.806  70.078 226.655 -0.29 +0.05    -0.267 N  
DOCKED: ATOM      7  C   UNL     1     141.389  70.105 227.898 -0.32 -0.02    +0.096 A  
DOCKED: ATOM      8  C   UNL     1     141.392  68.971 228.712 -0.49 -0.00    +0.019 A  
DOCKED: ATOM      9  C   UNL     1     140.798  67.797 228.258 -0.36 -0.00    +0.005 A  
DOCKED: ATOM     10  C   UNL     1     140.207  67.766 226.999 -0.62 -0.01    +0.048 A  
DOCKED: ATOM     11  C   UNL     1     140.216  68.915 226.201 -0.43 -0.03    +0.142 A  
DOCKED: ATOM     12  N   UNL     1     139.636  68.871 224.975 -0.25 +0.03    -0.210 NA 
DOCKED: ATOM     13  C   UNL     1     139.617  69.954 224.163 -0.24 -0.03    +0.169 A  
DOCKED: ATOM     14  N   UNL     1     139.024  69.874 222.945 -0.12 +0.04    -0.210 NA 
DOCKED: ATOM     15  C   UNL     1     138.977  70.930 222.086 -0.14 -0.03    +0.138 A  
DOCKED: ENDROOT
DOCKED: BRANCH   1  16
DOCKED: ATOM     16  C   UNL     1     139.621  73.324 221.547 -0.17 -0.05    +0.255 C  
DOCKED: ATOM     17  N   UNL     1     139.542  74.658 222.073 -0.15 +0.06    -0.345 N  
DOCKED: ATOM     18  H   UNL     1     139.296  74.784 223.081 -0.52 -0.04    +0.164 HD 
DOCKED: ATOM     19  O   UNL     1     139.776  73.143 220.308 -0.05 +0.05    -0.269 OA 
DOCKED: BRANCH  17  20
DOCKED: ATOM     20  C   UNL     1     139.805  75.837 221.242 -0.23 -0.03    +0.109 C  
DOCKED: ATOM     21  C   UNL     1     138.716  76.001 220.178 -0.08 -0.01    +0.036 C  
DOCKED: BRANCH  20  22
DOCKED: ATOM     22  C   UNL     1     139.886  77.081 222.101 -0.34 +0.01    -0.026 A  
DOCKED: ATOM     23  C   UNL     1     138.733  77.839 222.379 -0.28 -0.00    +0.006 A  
DOCKED: ATOM     24  C   UNL     1     141.126  77.510 222.608 -0.42 -0.00    +0.006 A  
DOCKED: ATOM     25  C   UNL     1     138.819  78.993 223.162 -0.33 -0.00    +0.000 A  
DOCKED: ATOM     26  C   UNL     1     141.206  78.666 223.391 -0.55 -0.00    +0.000 A  
DOCKED: ATOM     27  C   UNL     1     140.053  79.406 223.669 -0.46 -0.00    +0.000 A  
DOCKED: ENDBRANCH  20  22
DOCKED: ENDBRANCH  17  20
DOCKED: ENDBRANCH   1  16
DOCKED: BRANCH  15  28
DOCKED: ATOM     28  N   UNL     1     138.277  70.770 220.847 -0.00 +0.07    -0.383 N  
DOCKED: ATOM     29  H   UNL     1     138.388  71.437 220.054 +0.02 -0.03    +0.158 HD 
DOCKED: ATOM     30  H   UNL     1     137.552  70.024 220.756 +0.02 -0.03    +0.158 HD 
DOCKED: ENDBRANCH  15  28
DOCKED: TORSDOF 4
DOCKED: TER
DOCKED: ENDMDL
________________________________________________________________________________


    FINAL DOCKED STATE:
    ________________________


Run:   15 / 20
Time taken for this run:   0.021s

DOCKED: MODEL        15
DOCKED: USER    Run = 15
DOCKED: USER
DOCKED: USER    Estimated Free Energy of Binding    =  -7.20 kcal/mol  [=(1)+(2)+(3)-(4)]
DOCKED: USER
DOCKED: USER    (1) Final Intermolecular Energy     =  -8.40 kcal/mol
DOCKED: USER        vdW + Hbond + desolv Energy     =  -8.43 kcal/mol
DOCKED: USER        Electrostatic Energy            =  +0.03 kcal/mol
DOCKED: USER        Moving Ligand-Fixed Receptor    =  -8.40 kcal/mol
DOCKED: USER        Moving Ligand-Moving Receptor   =  +0.00 kcal/mol
DOCKED: USER    (2) Final Total Internal Energy     =  -0.93 kcal/mol
DOCKED: USER    (3) Torsional Free Energy           =  +1.19 kcal/mol
DOCKED: USER    (4) Unbound System's Energy         =  -0.93 kcal/mol
DOCKED: USER
DOCKED: USER
DOCKED: REMARK SMILES C[C@H](NC(=O)c1cc2c(=O)n3ccccc3nc2nc1N)c1ccccc1
DOCKED: REMARK SMILES IDX 6 1 7 2 8 3 9 4 10 5 11 6 12 7 13 8 14 9 15 10 16 11 17 12
DOCKED: REMARK SMILES IDX 18 13 19 14 20 15 4 16 3 17 5 19 2 20 1 21 22 22 23 23 27 24
DOCKED: REMARK SMILES IDX 24 25 26 26 25 27 21 28
DOCKED: REMARK H PARENT 3 18 21 29 21 30
DOCKED: USER                              x       y       z     vdW  Elec       q    Type
DOCKED: USER                           _______ _______ _______ _____ _____    ______ ____
DOCKED: ROOT
DOCKED: ATOM      1  C   UNL     1     135.091  71.329 225.080 -0.09 -0.01    +0.082 A  
DOCKED: ATOM      2  C   UNL     1     135.188  72.726 224.978 -0.11 -0.00    +0.035 A  
DOCKED: ATOM      3  C   UNL     1     134.322  73.555 225.707 -0.28 +0.00    +0.086 A  
DOCKED: ATOM      4  C   UNL     1     134.383  74.959 225.649 -0.26 -0.01    +0.267 A  
DOCKED: ATOM      5  O   UNL     1     135.245  75.515 224.910 -0.28 +0.03    -0.268 OA 
DOCKED: ATOM      6  N   UNL     1     133.510  75.717 226.393 -0.22 +0.00    -0.267 N  
DOCKED: ATOM      7  C   UNL     1     133.559  77.089 226.346 -0.24 -0.01    +0.096 A  
DOCKED: ATOM      8  C   UNL     1     132.674  77.862 227.101 -0.27 -0.00    +0.019 A  
DOCKED: ATOM      9  C   UNL     1     131.731  77.235 227.910 -0.32 +0.00    +0.005 A  
DOCKED: ATOM     10  C   UNL     1     131.679  75.846 227.961 -0.33 +0.00    +0.048 A  
DOCKED: ATOM     11  C   UNL     1     132.576  75.092 227.196 -0.32 +0.00    +0.142 A  
DOCKED: ATOM     12  N   UNL     1     132.515  73.738 227.254 -0.54 +0.01    -0.210 NA 
DOCKED: ATOM     13  C   UNL     1     133.359  72.961 226.535 -0.28 -0.00    +0.169 A  
DOCKED: ATOM     14  N   UNL     1     133.267  71.610 226.615 -0.25 +0.02    -0.210 NA 
DOCKED: ATOM     15  C   UNL     1     134.090  70.779 225.917 -0.24 -0.01    +0.138 A  
DOCKED: ENDROOT
DOCKED: BRANCH   1  16
DOCKED: ATOM     16  C   UNL     1     136.065  70.489 224.351 -0.11 -0.03    +0.255 C  
DOCKED: ATOM     17  N   UNL     1     137.424  70.926 224.196 -0.09 +0.07    -0.345 N  
DOCKED: ATOM     18  H   UNL     1     137.669  71.905 224.469 -0.34 -0.07    +0.164 HD 
DOCKED: ATOM     19  O   UNL     1     135.709  69.366 223.900 -0.19 +0.02    -0.269 OA 
DOCKED: BRANCH  17  20
DOCKED: ATOM     20  C   UNL     1     138.470  70.039 223.677 -0.24 -0.02    +0.109 C  
DOCKED: ATOM     21  C   UNL     1     139.362  70.782 222.678 -0.24 -0.01    +0.036 C  
DOCKED: BRANCH  20  22
DOCKED: ATOM     22  C   UNL     1     139.306  69.488 224.813 -0.36 +0.00    -0.026 A  
DOCKED: ATOM     23  C   UNL     1     139.188  68.140 225.203 -0.46 -0.00    +0.006 A  
DOCKED: ATOM     24  C   UNL     1     140.188  70.329 225.514 -0.50 -0.00    +0.006 A  
DOCKED: ATOM     25  C   UNL     1     139.954  67.643 226.261 -0.65 -0.00    +0.000 A  
DOCKED: ATOM     26  C   UNL     1     140.951  69.825 226.573 -0.56 -0.00    +0.000 A  
DOCKED: ATOM     27  C   UNL     1     140.835  68.483 226.945 -0.64 -0.00    +0.000 A  
DOCKED: ENDBRANCH  20  22
DOCKED: ENDBRANCH  17  20
DOCKED: ENDBRANCH   1  16
DOCKED: BRANCH  15  28
DOCKED: ATOM     28  N   UNL     1     133.878  69.367 226.017 -0.12 +0.01    -0.383 N  
DOCKED: ATOM     29  H   UNL     1     134.512  68.674 225.565 +0.05 -0.01    +0.158 HD 
DOCKED: ATOM     30  H   UNL     1     133.009  69.006 226.470 +0.06 +0.02    +0.158 HD 
DOCKED: ENDBRANCH  15  28
DOCKED: TORSDOF 4
DOCKED: TER
DOCKED: ENDMDL
________________________________________________________________________________


    FINAL DOCKED STATE:
    ________________________


Run:   16 / 20
Time taken for this run:   0.021s

DOCKED: MODEL        16
DOCKED: USER    Run = 16
DOCKED: USER
DOCKED: USER    Estimated Free Energy of Binding    =  -7.28 kcal/mol  [=(1)+(2)+(3)-(4)]
DOCKED: USER
DOCKED: USER    (1) Final Intermolecular Energy     =  -8.47 kcal/mol
DOCKED: USER        vdW + Hbond + desolv Energy     =  -8.44 kcal/mol
DOCKED: USER        Electrostatic Energy            =  -0.04 kcal/mol
DOCKED: USER        Moving Ligand-Fixed Receptor    =  -8.47 kcal/mol
DOCKED: USER        Moving Ligand-Moving Receptor   =  +0.00 kcal/mol
DOCKED: USER    (2) Final Total Internal Energy     =  -0.87 kcal/mol
DOCKED: USER    (3) Torsional Free Energy           =  +1.19 kcal/mol
DOCKED: USER    (4) Unbound System's Energy         =  -0.87 kcal/mol
DOCKED: USER
DOCKED: USER
DOCKED: REMARK SMILES C[C@H](NC(=O)c1cc2c(=O)n3ccccc3nc2nc1N)c1ccccc1
DOCKED: REMARK SMILES IDX 6 1 7 2 8 3 9 4 10 5 11 6 12 7 13 8 14 9 15 10 16 11 17 12
DOCKED: REMARK SMILES IDX 18 13 19 14 20 15 4 16 3 17 5 19 2 20 1 21 22 22 23 23 27 24
DOCKED: REMARK SMILES IDX 24 25 26 26 25 27 21 28
DOCKED: REMARK H PARENT 3 18 21 29 21 30
DOCKED: USER                              x       y       z     vdW  Elec       q    Type
DOCKED: USER                           _______ _______ _______ _____ _____    ______ ____
DOCKED: ROOT
DOCKED: ATOM      1  C   UNL     1     139.553  72.137 222.418 -0.26 -0.02    +0.082 A  
DOCKED: ATOM      2  C   UNL     1     140.101  72.241 223.707 -0.14 -0.01    +0.035 A  
DOCKED: ATOM      3  C   UNL     1     140.113  71.132 224.567 -0.42 -0.01    +0.086 A  
DOCKED: ATOM      4  C   UNL     1     140.658  71.179 225.862 -0.40 -0.04    +0.267 A  
DOCKED: ATOM      5  O   UNL     1     141.158  72.259 226.289 -0.48 +0.04    -0.268 OA 
DOCKED: ATOM      6  N   UNL     1     140.645  70.055 226.655 -0.28 +0.05    -0.267 N  
DOCKED: ATOM      7  C   UNL     1     141.174  70.086 227.922 -0.46 -0.02    +0.096 A  
DOCKED: ATOM      8  C   UNL     1     141.163  68.947 228.730 -0.51 -0.00    +0.019 A  
DOCKED: ATOM      9  C   UNL     1     140.610  67.766 228.245 -0.23 -0.00    +0.005 A  
DOCKED: ATOM     10  C   UNL     1     140.074  67.730 226.962 -0.61 -0.01    +0.048 A  
DOCKED: ATOM     11  C   UNL     1     140.096  68.884 226.171 -0.43 -0.02    +0.142 A  
DOCKED: ATOM     12  N   UNL     1     139.570  68.836 224.921 -0.25 +0.03    -0.210 NA 
DOCKED: ATOM     13  C   UNL     1     139.566  69.923 224.114 -0.24 -0.03    +0.169 A  
DOCKED: ATOM     14  N   UNL     1     139.027  69.840 222.871 -0.12 +0.04    -0.210 NA 
DOCKED: ATOM     15  C   UNL     1     138.998  70.899 222.016 -0.13 -0.03    +0.138 A  
DOCKED: ENDROOT
DOCKED: BRANCH   1  16
DOCKED: ATOM     16  C   UNL     1     139.621  73.307 221.517 -0.17 -0.05    +0.255 C  
DOCKED: ATOM     17  N   UNL     1     139.507  74.638 222.047 -0.15 +0.06    -0.345 N  
DOCKED: ATOM     18  H   UNL     1     139.225  74.755 223.047 -0.52 -0.04    +0.164 HD 
DOCKED: ATOM     19  O   UNL     1     139.821  73.136 220.283 -0.05 +0.05    -0.269 OA 
DOCKED: BRANCH  17  20
DOCKED: ATOM     20  C   UNL     1     139.785  75.824 221.232 -0.23 -0.03    +0.109 C  
DOCKED: ATOM     21  C   UNL     1     138.700  76.014 220.167 -0.07 -0.01    +0.036 C  
DOCKED: BRANCH  20  22
DOCKED: ATOM     22  C   UNL     1     139.877  77.056 222.108 -0.34 +0.01    -0.026 A  
DOCKED: ATOM     23  C   UNL     1     141.117  77.480 222.623 -0.42 -0.00    +0.006 A  
DOCKED: ATOM     24  C   UNL     1     138.716  77.774 222.442 -0.28 -0.00    +0.006 A  
DOCKED: ATOM     25  C   UNL     1     141.192  78.610 223.441 -0.54 -0.00    +0.000 A  
DOCKED: ATOM     26  C   UNL     1     138.796  78.904 223.262 -0.31 -0.00    +0.000 A  
DOCKED: ATOM     27  C   UNL     1     140.033  79.323 223.760 -0.44 -0.00    +0.000 A  
DOCKED: ENDBRANCH  20  22
DOCKED: ENDBRANCH  17  20
DOCKED: ENDBRANCH   1  16
DOCKED: BRANCH  15  28
DOCKED: ATOM     28  N   UNL     1     138.354  70.734 220.748 -0.00 +0.07    -0.383 N  
DOCKED: ATOM     29  H   UNL     1     137.827  69.870 220.498 +0.02 -0.03    +0.158 HD 
DOCKED: ATOM     30  H   UNL     1     138.491  71.451 220.002 +0.02 -0.03    +0.158 HD 
DOCKED: ENDBRANCH  15  28
DOCKED: TORSDOF 4
DOCKED: TER
DOCKED: ENDMDL
________________________________________________________________________________


    FINAL DOCKED STATE:
    ________________________


Run:   17 / 20
Time taken for this run:   0.021s

DOCKED: MODEL        17
DOCKED: USER    Run = 17
DOCKED: USER
DOCKED: USER    Estimated Free Energy of Binding    =  -7.28 kcal/mol  [=(1)+(2)+(3)-(4)]
DOCKED: USER
DOCKED: USER    (1) Final Intermolecular Energy     =  -8.47 kcal/mol
DOCKED: USER        vdW + Hbond + desolv Energy     =  -8.45 kcal/mol
DOCKED: USER        Electrostatic Energy            =  -0.02 kcal/mol
DOCKED: USER        Moving Ligand-Fixed Receptor    =  -8.47 kcal/mol
DOCKED: USER        Moving Ligand-Moving Receptor   =  +0.00 kcal/mol
DOCKED: USER    (2) Final Total Internal Energy     =  -0.86 kcal/mol
DOCKED: USER    (3) Torsional Free Energy           =  +1.19 kcal/mol
DOCKED: USER    (4) Unbound System's Energy         =  -0.86 kcal/mol
DOCKED: USER
DOCKED: USER
DOCKED: REMARK SMILES C[C@H](NC(=O)c1cc2c(=O)n3ccccc3nc2nc1N)c1ccccc1
DOCKED: REMARK SMILES IDX 6 1 7 2 8 3 9 4 10 5 11 6 12 7 13 8 14 9 15 10 16 11 17 12
DOCKED: REMARK SMILES IDX 18 13 19 14 20 15 4 16 3 17 5 19 2 20 1 21 22 22 23 23 27 24
DOCKED: REMARK SMILES IDX 24 25 26 26 25 27 21 28
DOCKED: REMARK H PARENT 3 18 21 29 21 30
DOCKED: USER                              x       y       z     vdW  Elec       q    Type
DOCKED: USER                           _______ _______ _______ _____ _____    ______ ____
DOCKED: ROOT
DOCKED: ATOM      1  C   UNL     1     139.653  72.136 222.378 -0.26 -0.02    +0.082 A  
DOCKED: ATOM      2  C   UNL     1     140.157  72.248 223.683 -0.17 -0.01    +0.035 A  
DOCKED: ATOM      3  C   UNL     1     140.171  71.136 224.540 -0.42 -0.01    +0.086 A  
DOCKED: ATOM      4  C   UNL     1     140.673  71.191 225.851 -0.40 -0.04    +0.267 A  
DOCKED: ATOM      5  O   UNL     1     141.130  72.282 226.298 -0.46 +0.04    -0.268 OA 
DOCKED: ATOM      6  N   UNL     1     140.665  70.064 226.639 -0.28 +0.05    -0.267 N  
DOCKED: ATOM      7  C   UNL     1     141.152  70.103 227.923 -0.47 -0.02    +0.096 A  
DOCKED: ATOM      8  C   UNL     1     141.146  68.961 228.726 -0.51 -0.00    +0.019 A  
DOCKED: ATOM      9  C   UNL     1     140.640  67.767 228.219 -0.26 -0.00    +0.005 A  
DOCKED: ATOM     10  C   UNL     1     140.146  67.724 226.920 -0.62 -0.01    +0.048 A  
DOCKED: ATOM     11  C   UNL     1     140.162  68.881 226.134 -0.43 -0.03    +0.142 A  
DOCKED: ATOM     12  N   UNL     1     139.678  68.825 224.868 -0.22 +0.04    -0.210 NA 
DOCKED: ATOM     13  C   UNL     1     139.671  69.915 224.065 -0.22 -0.03    +0.169 A  
DOCKED: ATOM     14  N   UNL     1     139.174  69.823 222.806 -0.12 +0.04    -0.210 NA 
DOCKED: ATOM     15  C   UNL     1     139.144  70.885 221.954 -0.14 -0.03    +0.138 A  
DOCKED: ENDROOT
DOCKED: BRANCH   1  16
DOCKED: ATOM     16  C   UNL     1     139.718  73.311 221.483 -0.17 -0.04    +0.255 C  
DOCKED: ATOM     17  N   UNL     1     139.625  74.639 222.024 -0.15 +0.05    -0.345 N  
DOCKED: ATOM     18  H   UNL     1     139.358  74.752 223.028 -0.49 -0.03    +0.164 HD 
DOCKED: ATOM     19  O   UNL     1     139.898  73.146 220.245 -0.05 +0.05    -0.269 OA 
DOCKED: BRANCH  17  20
DOCKED: ATOM     20  C   UNL     1     139.901  75.828 221.212 -0.23 -0.03    +0.109 C  
DOCKED: ATOM     21  C   UNL     1     138.850  75.986 220.110 -0.07 -0.01    +0.036 C  
DOCKED: BRANCH  20  22
DOCKED: ATOM     22  C   UNL     1     139.933  77.066 222.084 -0.35 +0.01    -0.026 A  
DOCKED: ATOM     23  C   UNL     1     141.145  77.528 222.631 -0.41 -0.00    +0.006 A  
DOCKED: ATOM     24  C   UNL     1     138.741  77.750 222.383 -0.28 -0.00    +0.006 A  
DOCKED: ATOM     25  C   UNL     1     141.163  78.664 223.446 -0.55 -0.00    +0.000 A  
DOCKED: ATOM     26  C   UNL     1     138.766  78.886 223.199 -0.31 -0.00    +0.000 A  
DOCKED: ATOM     27  C   UNL     1     139.975  79.343 223.729 -0.44 -0.00    +0.000 A  
DOCKED: ENDBRANCH  20  22
DOCKED: ENDBRANCH  17  20
DOCKED: ENDBRANCH   1  16
DOCKED: BRANCH  15  28
DOCKED: ATOM     28  N   UNL     1     138.545  70.709 220.665 -0.00 +0.07    -0.383 N  
DOCKED: ATOM     29  H   UNL     1     138.721  71.364 219.873 +0.02 -0.03    +0.158 HD 
DOCKED: ATOM     30  H   UNL     1     137.827  69.963 220.526 +0.02 -0.03    +0.158 HD 
DOCKED: ENDBRANCH  15  28
DOCKED: TORSDOF 4
DOCKED: TER
DOCKED: ENDMDL
________________________________________________________________________________


    FINAL DOCKED STATE:
    ________________________


Run:   18 / 20
Time taken for this run:   0.021s

DOCKED: MODEL        18
DOCKED: USER    Run = 18
DOCKED: USER
DOCKED: USER    Estimated Free Energy of Binding    =  -7.00 kcal/mol  [=(1)+(2)+(3)-(4)]
DOCKED: USER
DOCKED: USER    (1) Final Intermolecular Energy     =  -8.19 kcal/mol
DOCKED: USER        vdW + Hbond + desolv Energy     =  -8.15 kcal/mol
DOCKED: USER        Electrostatic Energy            =  -0.04 kcal/mol
DOCKED: USER        Moving Ligand-Fixed Receptor    =  -8.19 kcal/mol
DOCKED: USER        Moving Ligand-Moving Receptor   =  +0.00 kcal/mol
DOCKED: USER    (2) Final Total Internal Energy     =  -0.89 kcal/mol
DOCKED: USER    (3) Torsional Free Energy           =  +1.19 kcal/mol
DOCKED: USER    (4) Unbound System's Energy         =  -0.89 kcal/mol
DOCKED: USER
DOCKED: USER
DOCKED: REMARK SMILES C[C@H](NC(=O)c1cc2c(=O)n3ccccc3nc2nc1N)c1ccccc1
DOCKED: REMARK SMILES IDX 6 1 7 2 8 3 9 4 10 5 11 6 12 7 13 8 14 9 15 10 16 11 17 12
DOCKED: REMARK SMILES IDX 18 13 19 14 20 15 4 16 3 17 5 19 2 20 1 21 22 22 23 23 27 24
DOCKED: REMARK SMILES IDX 24 25 26 26 25 27 21 28
DOCKED: REMARK H PARENT 3 18 21 29 21 30
DOCKED: USER                              x       y       z     vdW  Elec       q    Type
DOCKED: USER                           _______ _______ _______ _____ _____    ______ ____
DOCKED: ROOT
DOCKED: ATOM      1  C   UNL     1     141.614  75.471 221.060 -0.25 -0.03    +0.082 A  
DOCKED: ATOM      2  C   UNL     1     142.795  75.025 220.445 -0.30 -0.02    +0.035 A  
DOCKED: ATOM      3  C   UNL     1     143.066  73.652 220.337 -0.27 -0.02    +0.086 A  
DOCKED: ATOM      4  C   UNL     1     144.228  73.152 219.723 -0.20 -0.03    +0.267 A  
DOCKED: ATOM      5  O   UNL     1     145.078  73.958 219.247 -0.17 +0.06    -0.268 OA 
DOCKED: ATOM      6  N   UNL     1     144.433  71.794 219.642 -0.13 -0.01    -0.267 N  
DOCKED: ATOM      7  C   UNL     1     145.563  71.291 219.045 -0.25 +0.06    +0.096 A  
DOCKED: ATOM      8  C   UNL     1     145.775  69.914 218.961 -0.34 +0.01    +0.019 A  
DOCKED: ATOM      9  C   UNL     1     144.829  69.039 219.488 -0.31 +0.00    +0.005 A  
DOCKED: ATOM     10  C   UNL     1     143.684  69.545 220.094 -0.09 +0.00    +0.048 A  
DOCKED: ATOM     11  C   UNL     1     143.493  70.929 220.166 -0.17 -0.01    +0.142 A  
DOCKED: ATOM     12  N   UNL     1     142.371  71.410 220.759 -0.11 +0.02    -0.210 NA 
DOCKED: ATOM     13  C   UNL     1     142.137  72.740 220.856 -0.19 -0.02    +0.169 A  
DOCKED: ATOM     14  N   UNL     1     141.006  73.185 221.459 -0.26 +0.02    -0.210 NA 
DOCKED: ATOM     15  C   UNL     1     140.717  74.510 221.583 -0.27 -0.02    +0.138 A  
DOCKED: ENDROOT
DOCKED: BRANCH   1  16
DOCKED: ATOM     16  C   UNL     1     141.331  76.922 221.094 -0.16 -0.13    +0.255 C  
DOCKED: ATOM     17  N   UNL     1     142.179  77.843 220.390 -0.13 +0.25    -0.345 N  
DOCKED: ATOM     18  H   UNL     1     143.077  77.488 219.988 -0.37 -0.16    +0.164 HD 
DOCKED: ATOM     19  O   UNL     1     140.315  77.347 221.710 -0.19 +0.08    -0.269 OA 
DOCKED: BRANCH  17  20
DOCKED: ATOM     20  C   UNL     1     141.818  79.253 220.214 -0.24 -0.06    +0.109 C  
DOCKED: ATOM     21  C   UNL     1     140.397  79.381 219.658 -0.14 -0.01    +0.036 C  
DOCKED: BRANCH  20  22
DOCKED: ATOM     22  C   UNL     1     141.931  79.994 221.530 -0.42 +0.01    -0.026 A  
DOCKED: ATOM     23  C   UNL     1     141.415  81.297 221.666 -0.41 -0.00    +0.006 A  
DOCKED: ATOM     24  C   UNL     1     142.584  79.398 222.623 -0.58 -0.00    +0.006 A  
DOCKED: ATOM     25  C   UNL     1     141.536  81.979 222.880 -0.35 -0.00    +0.000 A  
DOCKED: ATOM     26  C   UNL     1     142.703  80.087 223.835 -0.61 -0.00    +0.000 A  
DOCKED: ATOM     27  C   UNL     1     142.177  81.375 223.964 -0.61 -0.00    +0.000 A  
DOCKED: ENDBRANCH  20  22
DOCKED: ENDBRANCH  17  20
DOCKED: ENDBRANCH   1  16
DOCKED: BRANCH  15  28
DOCKED: ATOM     28  N   UNL     1     139.530  74.886 222.289 -0.11 +0.06    -0.383 N  
DOCKED: ATOM     29  H   UNL     1     138.937  74.192 222.793 -0.55 -0.06    +0.158 HD 
DOCKED: ATOM     30  H   UNL     1     139.179  75.867 222.224 +0.02 -0.03    +0.158 HD 
DOCKED: ENDBRANCH  15  28
DOCKED: TORSDOF 4
DOCKED: TER
DOCKED: ENDMDL
________________________________________________________________________________


    FINAL DOCKED STATE:
    ________________________


Run:   19 / 20
Time taken for this run:   0.021s

DOCKED: MODEL        19
DOCKED: USER    Run = 19
DOCKED: USER
DOCKED: USER    Estimated Free Energy of Binding    =  -7.19 kcal/mol  [=(1)+(2)+(3)-(4)]
DOCKED: USER
DOCKED: USER    (1) Final Intermolecular Energy     =  -8.38 kcal/mol
DOCKED: USER        vdW + Hbond + desolv Energy     =  -8.42 kcal/mol
DOCKED: USER        Electrostatic Energy            =  +0.04 kcal/mol
DOCKED: USER        Moving Ligand-Fixed Receptor    =  -8.38 kcal/mol
DOCKED: USER        Moving Ligand-Moving Receptor   =  +0.00 kcal/mol
DOCKED: USER    (2) Final Total Internal Energy     =  -0.93 kcal/mol
DOCKED: USER    (3) Torsional Free Energy           =  +1.19 kcal/mol
DOCKED: USER    (4) Unbound System's Energy         =  -0.93 kcal/mol
DOCKED: USER
DOCKED: USER
DOCKED: REMARK SMILES C[C@H](NC(=O)c1cc2c(=O)n3ccccc3nc2nc1N)c1ccccc1
DOCKED: REMARK SMILES IDX 6 1 7 2 8 3 9 4 10 5 11 6 12 7 13 8 14 9 15 10 16 11 17 12
DOCKED: REMARK SMILES IDX 18 13 19 14 20 15 4 16 3 17 5 19 2 20 1 21 22 22 23 23 27 24
DOCKED: REMARK SMILES IDX 24 25 26 26 25 27 21 28
DOCKED: REMARK H PARENT 3 18 21 29 21 30
DOCKED: USER                              x       y       z     vdW  Elec       q    Type
DOCKED: USER                           _______ _______ _______ _____ _____    ______ ____
DOCKED: ROOT
DOCKED: ATOM      1  C   UNL     1     135.108  71.360 225.061 -0.08 -0.01    +0.082 A  
DOCKED: ATOM      2  C   UNL     1     135.205  72.758 224.974 -0.11 -0.00    +0.035 A  
DOCKED: ATOM      3  C   UNL     1     134.334  73.579 225.707 -0.28 +0.00    +0.086 A  
DOCKED: ATOM      4  C   UNL     1     134.394  74.983 225.664 -0.26 -0.01    +0.267 A  
DOCKED: ATOM      5  O   UNL     1     135.259  75.548 224.935 -0.29 +0.03    -0.268 OA 
DOCKED: ATOM      6  N   UNL     1     133.516  75.733 226.412 -0.22 +0.00    -0.267 N  
DOCKED: ATOM      7  C   UNL     1     133.564  77.105 226.380 -0.24 -0.01    +0.096 A  
DOCKED: ATOM      8  C   UNL     1     132.675  77.870 227.138 -0.28 -0.00    +0.019 A  
DOCKED: ATOM      9  C   UNL     1     131.729  77.233 227.936 -0.32 +0.00    +0.005 A  
DOCKED: ATOM     10  C   UNL     1     131.678  75.844 227.971 -0.33 +0.00    +0.048 A  
DOCKED: ATOM     11  C   UNL     1     132.579  75.099 227.203 -0.32 +0.00    +0.142 A  
DOCKED: ATOM     12  N   UNL     1     132.519  73.744 227.247 -0.54 +0.01    -0.210 NA 
DOCKED: ATOM     13  C   UNL     1     133.368  72.975 226.524 -0.28 -0.00    +0.169 A  
DOCKED: ATOM     14  N   UNL     1     133.276  71.623 226.589 -0.25 +0.02    -0.210 NA 
DOCKED: ATOM     15  C   UNL     1     134.104  70.801 225.886 -0.24 -0.01    +0.138 A  
DOCKED: ENDROOT
DOCKED: BRANCH   1  16
DOCKED: ATOM     16  C   UNL     1     136.086  70.529 224.327 -0.11 -0.03    +0.255 C  
DOCKED: ATOM     17  N   UNL     1     137.452  70.957 224.203 -0.09 +0.07    -0.345 N  
DOCKED: ATOM     18  H   UNL     1     137.700  71.927 224.504 -0.35 -0.07    +0.164 HD 
DOCKED: ATOM     19  O   UNL     1     135.728  69.420 223.844 -0.17 +0.02    -0.269 OA 
DOCKED: BRANCH  17  20
DOCKED: ATOM     20  C   UNL     1     138.498  70.073 223.681 -0.24 -0.02    +0.109 C  
DOCKED: ATOM     21  C   UNL     1     139.398  70.825 222.695 -0.24 -0.01    +0.036 C  
DOCKED: BRANCH  20  22
DOCKED: ATOM     22  C   UNL     1     139.326  69.508 224.815 -0.36 +0.00    -0.026 A  
DOCKED: ATOM     23  C   UNL     1     139.208  68.154 225.185 -0.46 -0.00    +0.006 A  
DOCKED: ATOM     24  C   UNL     1     140.202  70.340 225.534 -0.50 -0.00    +0.006 A  
DOCKED: ATOM     25  C   UNL     1     139.967  67.644 226.242 -0.65 -0.00    +0.000 A  
DOCKED: ATOM     26  C   UNL     1     140.958  69.824 226.592 -0.56 -0.00    +0.000 A  
DOCKED: ATOM     27  C   UNL     1     140.842  68.476 226.944 -0.64 -0.00    +0.000 A  
DOCKED: ENDBRANCH  20  22
DOCKED: ENDBRANCH  17  20
DOCKED: ENDBRANCH   1  16
DOCKED: BRANCH  15  28
DOCKED: ATOM     28  N   UNL     1     133.892  69.387 225.970 -0.11 +0.01    -0.383 N  
DOCKED: ATOM     29  H   UNL     1     133.110  68.972 226.520 +0.06 +0.02    +0.158 HD 
DOCKED: ATOM     30  H   UNL     1     134.593  68.734 225.555 +0.05 -0.01    +0.158 HD 
DOCKED: ENDBRANCH  15  28
DOCKED: TORSDOF 4
DOCKED: TER
DOCKED: ENDMDL
________________________________________________________________________________


    FINAL DOCKED STATE:
    ________________________


Run:   20 / 20
Time taken for this run:   0.021s

DOCKED: MODEL        20
DOCKED: USER    Run = 20
DOCKED: USER
DOCKED: USER    Estimated Free Energy of Binding    =  -7.19 kcal/mol  [=(1)+(2)+(3)-(4)]
DOCKED: USER
DOCKED: USER    (1) Final Intermolecular Energy     =  -8.38 kcal/mol
DOCKED: USER        vdW + Hbond + desolv Energy     =  -8.41 kcal/mol
DOCKED: USER        Electrostatic Energy            =  +0.03 kcal/mol
DOCKED: USER        Moving Ligand-Fixed Receptor    =  -8.38 kcal/mol
DOCKED: USER        Moving Ligand-Moving Receptor   =  +0.00 kcal/mol
DOCKED: USER    (2) Final Total Internal Energy     =  -0.93 kcal/mol
DOCKED: USER    (3) Torsional Free Energy           =  +1.19 kcal/mol
DOCKED: USER    (4) Unbound System's Energy         =  -0.93 kcal/mol
DOCKED: USER
DOCKED: USER
DOCKED: REMARK SMILES C[C@H](NC(=O)c1cc2c(=O)n3ccccc3nc2nc1N)c1ccccc1
DOCKED: REMARK SMILES IDX 6 1 7 2 8 3 9 4 10 5 11 6 12 7 13 8 14 9 15 10 16 11 17 12
DOCKED: REMARK SMILES IDX 18 13 19 14 20 15 4 16 3 17 5 19 2 20 1 21 22 22 23 23 27 24
DOCKED: REMARK SMILES IDX 24 25 26 26 25 27 21 28
DOCKED: REMARK H PARENT 3 18 21 29 21 30
DOCKED: USER                              x       y       z     vdW  Elec       q    Type
DOCKED: USER                           _______ _______ _______ _____ _____    ______ ____
DOCKED: ROOT
DOCKED: ATOM      1  C   UNL     1     135.089  71.329 225.066 -0.09 -0.01    +0.082 A  
DOCKED: ATOM      2  C   UNL     1     135.190  72.726 224.960 -0.12 -0.00    +0.035 A  
DOCKED: ATOM      3  C   UNL     1     134.328  73.559 225.690 -0.28 +0.00    +0.086 A  
DOCKED: ATOM      4  C   UNL     1     134.392  74.962 225.629 -0.26 -0.01    +0.267 A  
DOCKED: ATOM      5  O   UNL     1     135.253  75.514 224.886 -0.28 +0.03    -0.268 OA 
DOCKED: ATOM      6  N   UNL     1     133.523  75.723 226.374 -0.22 +0.01    -0.267 N  
DOCKED: ATOM      7  C   UNL     1     133.574  77.095 226.324 -0.24 -0.01    +0.096 A  
DOCKED: ATOM      8  C   UNL     1     132.693  77.872 227.079 -0.27 -0.00    +0.019 A  
DOCKED: ATOM      9  C   UNL     1     131.752  77.249 227.893 -0.32 +0.00    +0.005 A  
DOCKED: ATOM     10  C   UNL     1     131.697  75.860 227.946 -0.34 +0.00    +0.048 A  
DOCKED: ATOM     11  C   UNL     1     132.590  75.102 227.180 -0.32 +0.00    +0.142 A  
DOCKED: ATOM     12  N   UNL     1     132.526  73.748 227.242 -0.55 +0.01    -0.210 NA 
DOCKED: ATOM     13  C   UNL     1     133.366  72.968 226.522 -0.28 -0.00    +0.169 A  
DOCKED: ATOM     14  N   UNL     1     133.271  71.617 226.605 -0.25 +0.02    -0.210 NA 
DOCKED: ATOM     15  C   UNL     1     134.090  70.784 225.906 -0.24 -0.01    +0.138 A  
DOCKED: ENDROOT
DOCKED: BRANCH   1  16
DOCKED: ATOM     16  C   UNL     1     136.060  70.486 224.335 -0.11 -0.03    +0.255 C  
DOCKED: ATOM     17  N   UNL     1     137.418  70.922 224.170 -0.09 +0.07    -0.345 N  
DOCKED: ATOM     18  H   UNL     1     137.665  71.902 224.438 -0.33 -0.06    +0.164 HD 
DOCKED: ATOM     19  O   UNL     1     135.701  69.360 223.892 -0.19 +0.02    -0.269 OA 
DOCKED: BRANCH  17  20
DOCKED: ATOM     20  C   UNL     1     138.461  70.032 223.650 -0.24 -0.02    +0.109 C  
DOCKED: ATOM     21  C   UNL     1     139.356  70.774 222.653 -0.23 -0.01    +0.036 C  
DOCKED: BRANCH  20  22
DOCKED: ATOM     22  C   UNL     1     139.295  69.476 224.785 -0.36 +0.00    -0.026 A  
DOCKED: ATOM     23  C   UNL     1     140.230  70.289 225.455 -0.49 -0.00    +0.006 A  
DOCKED: ATOM     24  C   UNL     1     139.164  68.128 225.164 -0.45 -0.00    +0.006 A  
DOCKED: ATOM     25  C   UNL     1     141.004  69.764 226.494 -0.56 -0.00    +0.000 A  
DOCKED: ATOM     26  C   UNL     1     139.943  67.609 226.204 -0.65 -0.00    +0.000 A  
DOCKED: ATOM     27  C   UNL     1     140.860  68.426 226.869 -0.64 -0.00    +0.000 A  
DOCKED: ENDBRANCH  20  22
DOCKED: ENDBRANCH  17  20
DOCKED: ENDBRANCH   1  16
DOCKED: BRANCH  15  28
DOCKED: ATOM     28  N   UNL     1     133.875  69.372 226.010 -0.12 +0.01    -0.383 N  
DOCKED: ATOM     29  H   UNL     1     134.510  68.676 225.562 +0.05 -0.01    +0.158 HD 
DOCKED: ATOM     30  H   UNL     1     133.004  69.013 226.460 +0.06 +0.02    +0.158 HD 
DOCKED: ENDBRANCH  15  28
DOCKED: TORSDOF 4
DOCKED: TER
DOCKED: ENDMDL
________________________________________________________________________________


    CLUSTERING HISTOGRAM
    ____________________


________________________________________________________________________________
     |           |     |           |     |
Clus | Lowest    | Run | Mean      | Num | Histogram
-ter | Binding   |     | Binding   | in  |
Rank | Energy    |     | Energy    | Clus|    5    10   15   20   25   30   35
_____|___________|_____|___________|_____|____:____|____:____|____:____|____:___
   1 |     -7.33 |   7 |     -7.28 |   8 |########
   2 |     -7.20 |  15 |     -7.18 |  11 |###########
   3 |     -7.00 |  18 |     -7.00 |   1 |#
_____|___________|_____|___________|_____|______________________________________


    RMSD TABLE
    __________


_______________________________________________________________________
     |      |      |           |         |                 |
Rank | Sub- | Run  | Binding   | Cluster | Reference       | Grep
     | Rank |      | Energy    | RMSD    | RMSD            | Pattern
_____|______|______|___________|_________|_________________|___________
   1      1      7       -7.33      0.00    271.97           RANKING
   1      2     14       -7.32      0.08    271.97           RANKING
   1      3      2       -7.32      0.07    271.97           RANKING
   1      4      3       -7.31      0.05    271.95           RANKING
   1      5     12       -7.30      0.08    271.95           RANKING
   1      6     16       -7.28      0.09    271.92           RANKING
   1      7     17       -7.28      0.11    271.93           RANKING
   1      8      4       -7.07      0.28    271.89           RANKING
   2      1     15       -7.20      0.00    271.37           RANKING
   2      2      6       -7.20      0.03    271.38           RANKING
   2      3     11       -7.20      0.04    271.35           RANKING
   2      4     13       -7.20      0.04    271.37           RANKING
   2      5     20       -7.19      0.04    271.35           RANKING
   2      6     19       -7.19      0.05    271.38           RANKING
   2      7      5       -7.18      0.06    271.36           RANKING
   2      8      8       -7.18      0.05    271.38           RANKING
   2      9      1       -7.18      0.46    271.33           RANKING
   2     10     10       -7.16      0.04    271.38           RANKING
   2     11      9       -7.08      0.33    271.34           RANKING
   3      1     18       -7.00      0.00    271.88           RANKING

Run time 0.392 sec
Idle time 0.000 sec
