AutoDock-GPU version: v1.6

**********************************************************
**    AutoDock-GPU AUTODOCKTOOLS-COMPATIBLE DLG FILE    **
**********************************************************


    DOCKING PARAMETERS
    ________________________


Ligand file:                               /home/a/REINVENT4/ReinventStudies/scoringData/graph-dock-34dfml/graph-DockGPU/node-autodockgpu/inputs/QFPZKQQOUZJSQV-AZXADDSMNA-N.pdbqt
Grid fld file:                             /home/a/REINVENT4/ReinventStudies/mols/Rad51/maps/rad51_receptor.maps.fld

Random seed:                               42
Number of runs:                            20
Number of energy evaluations:              2542121
Number of generations:                     42000
Size of population:                        150
Rate of crossover:                         80.000000%
Tournament selection probability limit:    60.000000%
Rate of mutation:                          2.000000%
Maximal allowed delta movement:            +/- 6.000000A
Maximal allowed delta angle:               +/- 90.000000

Rate of local search:                      100.000000%
Maximal number of local search iterations: 300
Rho lower bound:                           0.010000
Spread of local search delta movement:     2.000000A
Spread of local search delta angle:        74.999999
Limit of consecutive successes/failures:   4

Handle symmetry during clustering:         YES
RMSD tolerance:                            2.000000A

Program call in command line was:          /home/a/REINVENT4/ReinventStudies/adgpu-v1.6_linux_x64_cuda12_128wi --filelist batch.txt --heuristics 1 --nrun 20 --psize 150 --lsit 300 --seed 42 --heurmax 12000000 


    GRID PARAMETERS
    ________________________


Receptor name:                             rad51_receptor
Number of grid points (x, y, z):           53, 53, 53
Grid center (x, y, z):                     139.950000, 75.640000, 221.970000A
Grid size (x, y, z):                       19.500000, 19.500000, 19.500000A
Grid spacing:                              0.375000A


    LIGAND PARAMETERS
    ________________________


Ligand name:                               /home/a/REINVENT4/ReinventStudies/scoringData/graph-dock-34dfml/graph-DockGPU/node-autodockgpu/inputs/QFPZKQQOUZJSQV-AZXADDSMNA-N
Number of atoms:                           25
Number of rotatable bonds:                 10
Number of atom types:                      7


    DUMMY DATA (only for ADT-compatibility)
    ________________________


DPF> outlev 1
DPF> ga_run 20
DPF> fld /home/a/REINVENT4/ReinventStudies/mols/Rad51/maps/rad51_receptor.maps.fld
DPF> move /home/a/REINVENT4/ReinventStudies/scoringData/graph-dock-34dfml/graph-DockGPU/node-autodockgpu/inputs/QFPZKQQOUZJSQV-AZXADDSMNA-N.pdbqt


    COUNTER STATES
    ________________________


Number of energy evaluations performed:    1734355
Number of generations used:                80


    INPUT LIGAND PDBQT FILE:
    ________________________


INPUT-LIGAND-PDBQT: REMARK SMILES O/C(=C/CCOc1ccc(Cl)cc1Cl)[N-]/N=C/c1cccnc1F
INPUT-LIGAND-PDBQT: REMARK SMILES IDX 2 1 1 2 15 4 16 5 17 6 18 7 23 8 19 9 22 10 20 11 21 12
INPUT-LIGAND-PDBQT: REMARK SMILES IDX 24 13 3 14 4 15 5 16 6 17 7 18 8 19 13 20 9 21 12 22 10 23
INPUT-LIGAND-PDBQT: REMARK SMILES IDX 14 24 11 25
INPUT-LIGAND-PDBQT: REMARK H PARENT 1 3
INPUT-LIGAND-PDBQT: ROOT
INPUT-LIGAND-PDBQT: ATOM      1  C   UNL     1      -0.400   0.245  -0.983  1.00  0.00     0.023 C 
INPUT-LIGAND-PDBQT: ENDROOT
INPUT-LIGAND-PDBQT: BRANCH   1   2
INPUT-LIGAND-PDBQT: ATOM      2  O   UNL     1      -1.102   1.426  -0.735  1.00  0.00    -0.530 OA
INPUT-LIGAND-PDBQT: ATOM      3  H   UNL     1      -0.653   2.335  -0.765  1.00  0.00     0.290 HD
INPUT-LIGAND-PDBQT: ENDBRANCH   1   2
INPUT-LIGAND-PDBQT: BRANCH   1   4
INPUT-LIGAND-PDBQT: ATOM      4  N   UNL     1      -1.080  -1.018  -0.916  1.00  0.00    -0.546 NA
INPUT-LIGAND-PDBQT: BRANCH   4   5
INPUT-LIGAND-PDBQT: ATOM      5  N   UNL     1      -2.478  -1.178  -0.919  1.00  0.00    -0.372 NA
INPUT-LIGAND-PDBQT: BRANCH   5   6
INPUT-LIGAND-PDBQT: ATOM      6  C   UNL     1      -3.295  -0.374  -1.529  1.00  0.00     0.099 C 
INPUT-LIGAND-PDBQT: BRANCH   6   7
INPUT-LIGAND-PDBQT: ATOM      7  C   UNL     1      -4.759  -0.582  -1.481  1.00  0.00     0.046 A 
INPUT-LIGAND-PDBQT: ATOM      8  C   UNL     1      -5.357  -1.624  -0.742  1.00  0.00     0.221 A 
INPUT-LIGAND-PDBQT: ATOM      9  C   UNL     1      -5.594   0.292  -2.194  1.00  0.00     0.016 A 
INPUT-LIGAND-PDBQT: ATOM     10  N   UNL     1      -6.710  -1.764  -0.734  1.00  0.00    -0.228 NA
INPUT-LIGAND-PDBQT: ATOM     11  C   UNL     1      -6.979   0.123  -2.167  1.00  0.00     0.021 A 
INPUT-LIGAND-PDBQT: ATOM     12  C   UNL     1      -7.524  -0.923  -1.423  1.00  0.00     0.114 A 
INPUT-LIGAND-PDBQT: ATOM     13  F   UNL     1      -4.608  -2.501  -0.028  1.00  0.00    -0.184 F 
INPUT-LIGAND-PDBQT: ENDBRANCH   6   7
INPUT-LIGAND-PDBQT: ENDBRANCH   5   6
INPUT-LIGAND-PDBQT: ENDBRANCH   4   5
INPUT-LIGAND-PDBQT: ENDBRANCH   1   4
INPUT-LIGAND-PDBQT: BRANCH   1  14
INPUT-LIGAND-PDBQT: ATOM     14  C   UNL     1       0.911   0.294  -1.253  1.00  0.00    -0.001 C 
INPUT-LIGAND-PDBQT: BRANCH  14  15
INPUT-LIGAND-PDBQT: ATOM     15  C   UNL     1       1.746  -0.931  -1.515  1.00  0.00     0.071 C 
INPUT-LIGAND-PDBQT: BRANCH  15  16
INPUT-LIGAND-PDBQT: ATOM     16  C   UNL     1       2.067  -1.686  -0.220  1.00  0.00     0.234 C 
INPUT-LIGAND-PDBQT: BRANCH  16  17
INPUT-LIGAND-PDBQT: ATOM     17  O   UNL     1       2.707  -0.833   0.731  1.00  0.00    -0.492 OA
INPUT-LIGAND-PDBQT: BRANCH  17  18
INPUT-LIGAND-PDBQT: ATOM     18  C   UNL     1       4.032  -0.371   0.659  1.00  0.00     0.137 A 
INPUT-LIGAND-PDBQT: ATOM     19  C   UNL     1       4.952  -0.856  -0.292  1.00  0.00     0.049 A 
INPUT-LIGAND-PDBQT: ATOM     20  C   UNL     1       4.453   0.604   1.579  1.00  0.00     0.084 A 
INPUT-LIGAND-PDBQT: ATOM     21  C   UNL     1       6.261  -0.365  -0.323  1.00  0.00     0.024 A 
INPUT-LIGAND-PDBQT: ATOM     22  C   UNL     1       5.764   1.092   1.543  1.00  0.00     0.045 A 
INPUT-LIGAND-PDBQT: ATOM     23  C   UNL     1       6.668   0.608   0.593  1.00  0.00     0.042 A 
INPUT-LIGAND-PDBQT: ATOM     24  Cl  UNL     1       3.336   1.234   2.781  1.00  0.00    -0.080 Cl
INPUT-LIGAND-PDBQT: ATOM     25  Cl  UNL     1       8.311   1.222   0.551  1.00  0.00    -0.084 Cl
INPUT-LIGAND-PDBQT: ENDBRANCH  17  18
INPUT-LIGAND-PDBQT: ENDBRANCH  16  17
INPUT-LIGAND-PDBQT: ENDBRANCH  15  16
INPUT-LIGAND-PDBQT: ENDBRANCH  14  15
INPUT-LIGAND-PDBQT: ENDBRANCH   1  14
INPUT-LIGAND-PDBQT: TORSDOF 10


    FINAL DOCKED STATE:
    ________________________


Run:   1 / 20
Time taken for this run:   0.068s

DOCKED: MODEL        1
DOCKED: USER    Run = 1
DOCKED: USER
DOCKED: USER    Estimated Free Energy of Binding    =  -6.30 kcal/mol  [=(1)+(2)+(3)-(4)]
DOCKED: USER
DOCKED: USER    (1) Final Intermolecular Energy     =  -9.29 kcal/mol
DOCKED: USER        vdW + Hbond + desolv Energy     =  -9.37 kcal/mol
DOCKED: USER        Electrostatic Energy            =  +0.09 kcal/mol
DOCKED: USER        Moving Ligand-Fixed Receptor    =  -9.29 kcal/mol
DOCKED: USER        Moving Ligand-Moving Receptor   =  +0.00 kcal/mol
DOCKED: USER    (2) Final Total Internal Energy     =  -0.68 kcal/mol
DOCKED: USER    (3) Torsional Free Energy           =  +2.98 kcal/mol
DOCKED: USER    (4) Unbound System's Energy         =  -0.68 kcal/mol
DOCKED: USER
DOCKED: USER
DOCKED: REMARK SMILES O/C(=C/CCOc1ccc(Cl)cc1Cl)[N-]/N=C/c1cccnc1F
DOCKED: REMARK SMILES IDX 2 1 1 2 15 4 16 5 17 6 18 7 23 8 19 9 22 10 20 11 21 12
DOCKED: REMARK SMILES IDX 24 13 3 14 4 15 5 16 6 17 7 18 8 19 13 20 9 21 12 22 10 23
DOCKED: REMARK SMILES IDX 14 24 11 25
DOCKED: REMARK H PARENT 1 3
DOCKED: USER                              x       y       z     vdW  Elec       q    Type
DOCKED: USER                           _______ _______ _______ _____ _____    ______ ____
DOCKED: ROOT
DOCKED: ATOM      1  C   UNL     1     140.908  74.354 221.313 -0.29 -0.00    +0.023 C  
DOCKED: ENDROOT
DOCKED: BRANCH   1   2
DOCKED: ATOM      2  O   UNL     1     142.245  74.738 221.200 -0.09 +0.17    -0.530 OA 
DOCKED: ATOM      3  H   UNL     1     142.591  75.606 221.595 -0.40 -0.22    +0.290 HD 
DOCKED: ENDBRANCH   1   2
DOCKED: BRANCH   1   4
DOCKED: ATOM      4  N   UNL     1     139.975  75.206 221.996 -0.45 +0.08    -0.546 NA 
DOCKED: BRANCH   4   5
DOCKED: ATOM      5  N   UNL     1     140.320  76.380 222.690 -0.17 +0.07    -0.372 NA 
DOCKED: BRANCH   5   6
DOCKED: ATOM      6  C   UNL     1     140.002  77.574 222.291 -0.33 -0.03    +0.099 C  
DOCKED: BRANCH   6   7
DOCKED: ATOM      7  C   UNL     1     140.767  78.762 222.731 -0.42 -0.01    +0.046 A  
DOCKED: ATOM      8  C   UNL     1     140.185  79.813 223.469 -0.32 -0.04    +0.221 A  
DOCKED: ATOM      9  C   UNL     1     142.130  78.852 222.407 -0.43 -0.01    +0.016 A  
DOCKED: ATOM     10  N   UNL     1     140.940  80.880 223.847 -0.29 +0.03    -0.228 NA 
DOCKED: ATOM     11  C   UNL     1     142.879  79.958 222.808 -0.62 -0.01    +0.021 A  
DOCKED: ATOM     12  C   UNL     1     142.259  80.974 223.536 -0.54 -0.02    +0.114 A  
DOCKED: ATOM     13  F   UNL     1     138.875  79.788 223.819 -0.13 +0.02    -0.184 F  
DOCKED: ENDBRANCH   6   7
DOCKED: ENDBRANCH   5   6
DOCKED: ENDBRANCH   4   5
DOCKED: ENDBRANCH   1   4
DOCKED: BRANCH   1  14
DOCKED: ATOM     14  C   UNL     1     140.507  73.180 220.809 -0.20 +0.00    -0.001 C  
DOCKED: BRANCH  14  15
DOCKED: ATOM     15  C   UNL     1     140.246  71.964 221.657 -0.22 -0.01    +0.071 C  
DOCKED: BRANCH  15  16
DOCKED: ATOM     16  C   UNL     1     140.420  72.266 223.150 -0.17 -0.02    +0.234 C  
DOCKED: BRANCH  16  17
DOCKED: ATOM     17  O   UNL     1     139.551  71.458 223.946 -0.16 +0.11    -0.492 OA 
DOCKED: BRANCH  17  18
DOCKED: ATOM     18  C   UNL     1     139.925  70.727 225.087 -0.39 -0.02    +0.137 A  
DOCKED: ATOM     19  C   UNL     1     140.621  71.311 226.165 -0.59 -0.01    +0.049 A  
DOCKED: ATOM     20  C   UNL     1     139.599  69.362 225.145 -0.36 -0.01    +0.084 A  
DOCKED: ATOM     21  C   UNL     1     140.971  70.542 227.279 -0.61 -0.00    +0.024 A  
DOCKED: ATOM     22  C   UNL     1     139.952  68.597 226.263 -0.54 -0.01    +0.045 A  
DOCKED: ATOM     23  C   UNL     1     140.638  69.186 227.329 -0.58 -0.01    +0.042 A  
DOCKED: ATOM     24  Cl  UNL     1     138.733  68.597 223.821 -0.38 +0.01    -0.080 Cl 
DOCKED: ATOM     25  Cl  UNL     1     141.079  68.224 228.728 -0.70 +0.02    -0.084 Cl 
DOCKED: ENDBRANCH  17  18
DOCKED: ENDBRANCH  16  17
DOCKED: ENDBRANCH  15  16
DOCKED: ENDBRANCH  14  15
DOCKED: ENDBRANCH   1  14
DOCKED: TORSDOF 10
DOCKED: TER
DOCKED: ENDMDL
________________________________________________________________________________


    FINAL DOCKED STATE:
    ________________________


Run:   2 / 20
Time taken for this run:   0.068s

DOCKED: MODEL        2
DOCKED: USER    Run = 2
DOCKED: USER
DOCKED: USER    Estimated Free Energy of Binding    =  -6.23 kcal/mol  [=(1)+(2)+(3)-(4)]
DOCKED: USER
DOCKED: USER    (1) Final Intermolecular Energy     =  -9.21 kcal/mol
DOCKED: USER        vdW + Hbond + desolv Energy     =  -9.29 kcal/mol
DOCKED: USER        Electrostatic Energy            =  +0.07 kcal/mol
DOCKED: USER        Moving Ligand-Fixed Receptor    =  -9.21 kcal/mol
DOCKED: USER        Moving Ligand-Moving Receptor   =  +0.00 kcal/mol
DOCKED: USER    (2) Final Total Internal Energy     =  -0.67 kcal/mol
DOCKED: USER    (3) Torsional Free Energy           =  +2.98 kcal/mol
DOCKED: USER    (4) Unbound System's Energy         =  -0.67 kcal/mol
DOCKED: USER
DOCKED: USER
DOCKED: REMARK SMILES O/C(=C/CCOc1ccc(Cl)cc1Cl)[N-]/N=C/c1cccnc1F
DOCKED: REMARK SMILES IDX 2 1 1 2 15 4 16 5 17 6 18 7 23 8 19 9 22 10 20 11 21 12
DOCKED: REMARK SMILES IDX 24 13 3 14 4 15 5 16 6 17 7 18 8 19 13 20 9 21 12 22 10 23
DOCKED: REMARK SMILES IDX 14 24 11 25
DOCKED: REMARK H PARENT 1 3
DOCKED: USER                              x       y       z     vdW  Elec       q    Type
DOCKED: USER                           _______ _______ _______ _____ _____    ______ ____
DOCKED: ROOT
DOCKED: ATOM      1  C   UNL     1     140.078  73.956 221.795 -0.25 -0.00    +0.023 C  
DOCKED: ENDROOT
DOCKED: BRANCH   1   2
DOCKED: ATOM      2  O   UNL     1     138.825  74.449 222.166 -0.22 +0.15    -0.530 OA 
DOCKED: ATOM      3  H   UNL     1     138.360  74.151 223.016 -0.50 -0.20    +0.290 HD 
DOCKED: ENDBRANCH   1   2
DOCKED: BRANCH   1   4
DOCKED: ATOM      4  N   UNL     1     140.701  72.927 222.579 -0.38 -0.01    -0.546 NA 
DOCKED: BRANCH   4   5
DOCKED: ATOM      5  N   UNL     1     140.102  72.277 223.674 -0.18 +0.07    -0.372 NA 
DOCKED: BRANCH   5   6
DOCKED: ATOM      6  C   UNL     1     140.467  71.110 224.108 -0.35 -0.01    +0.099 C  
DOCKED: BRANCH   6   7
DOCKED: ATOM      7  C   UNL     1     140.544  70.817 225.557 -0.53 -0.01    +0.046 A  
DOCKED: ATOM      8  C   UNL     1     140.240  69.549 226.095 -0.34 -0.04    +0.221 A  
DOCKED: ATOM      9  C   UNL     1     140.938  71.836 226.437 -0.68 -0.00    +0.016 A  
DOCKED: ATOM     10  N   UNL     1     140.330  69.339 227.436 -0.35 +0.04    -0.228 NA 
DOCKED: ATOM     11  C   UNL     1     141.022  71.591 227.808 -0.79 -0.00    +0.021 A  
DOCKED: ATOM     12  C   UNL     1     140.710  70.321 228.294 -0.47 -0.02    +0.114 A  
DOCKED: ATOM     13  F   UNL     1     139.856  68.520 225.300 -0.12 +0.03    -0.184 F  
DOCKED: ENDBRANCH   6   7
DOCKED: ENDBRANCH   5   6
DOCKED: ENDBRANCH   4   5
DOCKED: ENDBRANCH   1   4
DOCKED: BRANCH   1  14
DOCKED: ATOM     14  C   UNL     1     140.704  74.466 220.727 -0.24 +0.00    -0.001 C  
DOCKED: BRANCH  14  15
DOCKED: ATOM     15  C   UNL     1     141.797  75.497 220.826 -0.25 -0.03    +0.071 C  
DOCKED: BRANCH  15  16
DOCKED: ATOM     16  C   UNL     1     141.256  76.918 220.630 -0.19 -0.11    +0.234 C  
DOCKED: BRANCH  16  17
DOCKED: ATOM     17  O   UNL     1     141.529  77.737 221.768 -0.09 +0.27    -0.492 OA 
DOCKED: BRANCH  17  18
DOCKED: ATOM     18  C   UNL     1     140.591  78.526 222.456 -0.32 -0.04    +0.137 A  
DOCKED: ATOM     19  C   UNL     1     139.220  78.205 222.501 -0.28 -0.01    +0.049 A  
DOCKED: ATOM     20  C   UNL     1     141.042  79.683 223.113 -0.44 -0.02    +0.084 A  
DOCKED: ATOM     21  C   UNL     1     138.325  79.022 223.198 -0.26 -0.00    +0.024 A  
DOCKED: ATOM     22  C   UNL     1     140.142  80.498 223.809 -0.39 -0.01    +0.045 A  
DOCKED: ATOM     23  C   UNL     1     138.784  80.168 223.852 -0.39 -0.00    +0.042 A  
DOCKED: ATOM     24  Cl  UNL     1     142.744  80.119 223.080 -0.80 +0.03    -0.080 Cl 
DOCKED: ATOM     25  Cl  UNL     1     137.659  81.192 224.726 -0.46 +0.01    -0.084 Cl 
DOCKED: ENDBRANCH  17  18
DOCKED: ENDBRANCH  16  17
DOCKED: ENDBRANCH  15  16
DOCKED: ENDBRANCH  14  15
DOCKED: ENDBRANCH   1  14
DOCKED: TORSDOF 10
DOCKED: TER
DOCKED: ENDMDL
________________________________________________________________________________


    FINAL DOCKED STATE:
    ________________________


Run:   3 / 20
Time taken for this run:   0.068s

DOCKED: MODEL        3
DOCKED: USER    Run = 3
DOCKED: USER
DOCKED: USER    Estimated Free Energy of Binding    =  -6.57 kcal/mol  [=(1)+(2)+(3)-(4)]
DOCKED: USER
DOCKED: USER    (1) Final Intermolecular Energy     =  -9.55 kcal/mol
DOCKED: USER        vdW + Hbond + desolv Energy     =  -9.46 kcal/mol
DOCKED: USER        Electrostatic Energy            =  -0.09 kcal/mol
DOCKED: USER        Moving Ligand-Fixed Receptor    =  -9.55 kcal/mol
DOCKED: USER        Moving Ligand-Moving Receptor   =  +0.00 kcal/mol
DOCKED: USER    (2) Final Total Internal Energy     =  -0.59 kcal/mol
DOCKED: USER    (3) Torsional Free Energy           =  +2.98 kcal/mol
DOCKED: USER    (4) Unbound System's Energy         =  -0.59 kcal/mol
DOCKED: USER
DOCKED: USER
DOCKED: REMARK SMILES O/C(=C/CCOc1ccc(Cl)cc1Cl)[N-]/N=C/c1cccnc1F
DOCKED: REMARK SMILES IDX 2 1 1 2 15 4 16 5 17 6 18 7 23 8 19 9 22 10 20 11 21 12
DOCKED: REMARK SMILES IDX 24 13 3 14 4 15 5 16 6 17 7 18 8 19 13 20 9 21 12 22 10 23
DOCKED: REMARK SMILES IDX 14 24 11 25
DOCKED: REMARK H PARENT 1 3
DOCKED: USER                              x       y       z     vdW  Elec       q    Type
DOCKED: USER                           _______ _______ _______ _____ _____    ______ ____
DOCKED: ROOT
DOCKED: ATOM      1  C   UNL     1     140.738  73.278 221.903 -0.27 -0.00    +0.023 C  
DOCKED: ENDROOT
DOCKED: BRANCH   1   2
DOCKED: ATOM      2  O   UNL     1     139.826  74.228 222.367 -0.68 +0.03    -0.530 OA 
DOCKED: ATOM      3  H   UNL     1     139.141  74.011 223.082 -0.48 -0.13    +0.290 HD 
DOCKED: ENDBRANCH   1   2
DOCKED: BRANCH   1   4
DOCKED: ATOM      4  N   UNL     1     140.762  71.966 222.486 -0.09 +0.05    -0.546 NA 
DOCKED: BRANCH   4   5
DOCKED: ATOM      5  N   UNL     1     140.630  71.696 223.860 -0.18 +0.04    -0.372 NA 
DOCKED: BRANCH   5   6
DOCKED: ATOM      6  C   UNL     1     139.577  71.152 224.391 -0.37 -0.02    +0.099 C  
DOCKED: BRANCH   6   7
DOCKED: ATOM      7  C   UNL     1     139.679  69.944 225.239 -0.40 -0.01    +0.046 A  
DOCKED: ATOM      8  C   UNL     1     139.076  68.717 224.892 -0.27 -0.02    +0.221 A  
DOCKED: ATOM      9  C   UNL     1     140.407  70.013 226.436 -0.53 -0.00    +0.016 A  
DOCKED: ATOM     10  N   UNL     1     139.206  67.639 225.712 -0.83 +0.00    -0.228 NA 
DOCKED: ATOM     11  C   UNL     1     140.523  68.890 227.257 -0.61 -0.00    +0.021 A  
DOCKED: ATOM     12  C   UNL     1     139.908  67.699 226.873 -0.55 -0.02    +0.114 A  
DOCKED: ATOM     13  F   UNL     1     138.362  68.581 223.747 -0.08 +0.02    -0.184 F  
DOCKED: ENDBRANCH   6   7
DOCKED: ENDBRANCH   5   6
DOCKED: ENDBRANCH   4   5
DOCKED: ENDBRANCH   1   4
DOCKED: BRANCH   1  14
DOCKED: ATOM     14  C   UNL     1     141.606  73.606 220.936 -0.27 +0.00    -0.001 C  
DOCKED: BRANCH  14  15
DOCKED: ATOM     15  C   UNL     1     141.816  75.018 220.460 -0.26 -0.02    +0.071 C  
DOCKED: BRANCH  15  16
DOCKED: ATOM     16  C   UNL     1     140.507  75.658 219.984 -0.09 -0.07    +0.234 C  
DOCKED: BRANCH  16  17
DOCKED: ATOM     17  O   UNL     1     140.640  77.074 219.857 -0.00 +0.18    -0.492 OA 
DOCKED: BRANCH  17  18
DOCKED: ATOM     18  C   UNL     1     141.105  77.949 220.853 -0.23 -0.06    +0.137 A  
DOCKED: ATOM     19  C   UNL     1     140.984  77.663 222.228 -0.40 -0.02    +0.049 A  
DOCKED: ATOM     20  C   UNL     1     141.704  79.157 220.459 -0.26 -0.05    +0.084 A  
DOCKED: ATOM     21  C   UNL     1     141.463  78.566 223.183 -0.55 -0.01    +0.024 A  
DOCKED: ATOM     22  C   UNL     1     142.181  80.057 221.419 -0.38 -0.02    +0.045 A  
DOCKED: ATOM     23  C   UNL     1     142.061  79.762 222.780 -0.55 -0.01    +0.042 A  
DOCKED: ATOM     24  Cl  UNL     1     141.873  79.551 218.754 -0.36 +0.05    -0.080 Cl 
DOCKED: ATOM     25  Cl  UNL     1     142.660  80.893 223.980 -0.73 +0.01    -0.084 Cl 
DOCKED: ENDBRANCH  17  18
DOCKED: ENDBRANCH  16  17
DOCKED: ENDBRANCH  15  16
DOCKED: ENDBRANCH  14  15
DOCKED: ENDBRANCH   1  14
DOCKED: TORSDOF 10
DOCKED: TER
DOCKED: ENDMDL
________________________________________________________________________________


    FINAL DOCKED STATE:
    ________________________


Run:   4 / 20
Time taken for this run:   0.068s

DOCKED: MODEL        4
DOCKED: USER    Run = 4
DOCKED: USER
DOCKED: USER    Estimated Free Energy of Binding    =  -6.38 kcal/mol  [=(1)+(2)+(3)-(4)]
DOCKED: USER
DOCKED: USER    (1) Final Intermolecular Energy     =  -9.36 kcal/mol
DOCKED: USER        vdW + Hbond + desolv Energy     =  -9.55 kcal/mol
DOCKED: USER        Electrostatic Energy            =  +0.19 kcal/mol
DOCKED: USER        Moving Ligand-Fixed Receptor    =  -9.36 kcal/mol
DOCKED: USER        Moving Ligand-Moving Receptor   =  +0.00 kcal/mol
DOCKED: USER    (2) Final Total Internal Energy     =  -1.04 kcal/mol
DOCKED: USER    (3) Torsional Free Energy           =  +2.98 kcal/mol
DOCKED: USER    (4) Unbound System's Energy         =  -1.04 kcal/mol
DOCKED: USER
DOCKED: USER
DOCKED: REMARK SMILES O/C(=C/CCOc1ccc(Cl)cc1Cl)[N-]/N=C/c1cccnc1F
DOCKED: REMARK SMILES IDX 2 1 1 2 15 4 16 5 17 6 18 7 23 8 19 9 22 10 20 11 21 12
DOCKED: REMARK SMILES IDX 24 13 3 14 4 15 5 16 6 17 7 18 8 19 13 20 9 21 12 22 10 23
DOCKED: REMARK SMILES IDX 14 24 11 25
DOCKED: REMARK H PARENT 1 3
DOCKED: USER                              x       y       z     vdW  Elec       q    Type
DOCKED: USER                           _______ _______ _______ _____ _____    ______ ____
DOCKED: ROOT
DOCKED: ATOM      1  C   UNL     1     140.444  74.377 221.794 -0.20 -0.00    +0.023 C  
DOCKED: ENDROOT
DOCKED: BRANCH   1   2
DOCKED: ATOM      2  O   UNL     1     139.176  74.182 222.345 -0.53 +0.13    -0.530 OA 
DOCKED: ATOM      3  H   UNL     1     139.011  73.515 223.091 -0.46 -0.15    +0.290 HD 
DOCKED: ENDBRANCH   1   2
DOCKED: BRANCH   1   4
DOCKED: ATOM      4  N   UNL     1     141.087  75.655 221.917 -0.21 +0.14    -0.546 NA 
DOCKED: BRANCH   4   5
DOCKED: ATOM      5  N   UNL     1     140.623  76.713 222.719 -0.17 +0.10    -0.372 NA 
DOCKED: BRANCH   5   6
DOCKED: ATOM      6  C   UNL     1     140.398  77.912 222.273 -0.35 -0.03    +0.099 C  
DOCKED: BRANCH   6   7
DOCKED: ATOM      7  C   UNL     1     141.120  79.083 222.815 -0.46 -0.01    +0.046 A  
DOCKED: ATOM      8  C   UNL     1     140.464  80.151 223.462 -0.32 -0.04    +0.221 A  
DOCKED: ATOM      9  C   UNL     1     142.517  79.140 222.688 -0.51 -0.01    +0.016 A  
DOCKED: ATOM     10  N   UNL     1     141.183  81.202 223.943 -0.26 +0.02    -0.228 NA 
DOCKED: ATOM     11  C   UNL     1     143.227  80.231 223.191 -0.62 -0.01    +0.021 A  
DOCKED: ATOM     12  C   UNL     1     142.534  81.264 223.822 -0.53 -0.02    +0.114 A  
DOCKED: ATOM     13  F   UNL     1     139.117  80.157 223.622 -0.13 +0.02    -0.184 F  
DOCKED: ENDBRANCH   6   7
DOCKED: ENDBRANCH   5   6
DOCKED: ENDBRANCH   4   5
DOCKED: ENDBRANCH   1   4
DOCKED: BRANCH   1  14
DOCKED: ATOM     14  C   UNL     1     141.041  73.380 221.128 -0.27 +0.00    -0.001 C  
DOCKED: BRANCH  14  15
DOCKED: ATOM     15  C   UNL     1     141.344  72.041 221.746 -0.19 -0.01    +0.071 C  
DOCKED: BRANCH  15  16
DOCKED: ATOM     16  C   UNL     1     140.064  71.292 222.133 -0.17 -0.04    +0.234 C  
DOCKED: BRANCH  16  17
DOCKED: ATOM     17  O   UNL     1     139.628  71.656 223.444 -0.16 +0.11    -0.492 OA 
DOCKED: BRANCH  17  18
DOCKED: ATOM     18  C   UNL     1     139.920  70.959 224.629 -0.37 -0.02    +0.137 A  
DOCKED: ATOM     19  C   UNL     1     140.820  71.452 225.594 -0.56 -0.01    +0.049 A  
DOCKED: ATOM     20  C   UNL     1     139.295  69.721 224.850 -0.33 -0.01    +0.084 A  
DOCKED: ATOM     21  C   UNL     1     141.078  70.722 226.758 -0.61 -0.00    +0.024 A  
DOCKED: ATOM     22  C   UNL     1     139.556  68.994 226.017 -0.46 -0.01    +0.045 A  
DOCKED: ATOM     23  C   UNL     1     140.448  69.493 226.971 -0.54 -0.01    +0.042 A  
DOCKED: ATOM     24  Cl  UNL     1     138.166  69.071 223.670 -0.35 +0.01    -0.080 Cl 
DOCKED: ATOM     25  Cl  UNL     1     140.773  68.579 228.432 -0.78 +0.02    -0.084 Cl 
DOCKED: ENDBRANCH  17  18
DOCKED: ENDBRANCH  16  17
DOCKED: ENDBRANCH  15  16
DOCKED: ENDBRANCH  14  15
DOCKED: ENDBRANCH   1  14
DOCKED: TORSDOF 10
DOCKED: TER
DOCKED: ENDMDL
________________________________________________________________________________


    FINAL DOCKED STATE:
    ________________________


Run:   5 / 20
Time taken for this run:   0.068s

DOCKED: MODEL        5
DOCKED: USER    Run = 5
DOCKED: USER
DOCKED: USER    Estimated Free Energy of Binding    =  -5.59 kcal/mol  [=(1)+(2)+(3)-(4)]
DOCKED: USER
DOCKED: USER    (1) Final Intermolecular Energy     =  -8.57 kcal/mol
DOCKED: USER        vdW + Hbond + desolv Energy     =  -8.55 kcal/mol
DOCKED: USER        Electrostatic Energy            =  -0.02 kcal/mol
DOCKED: USER        Moving Ligand-Fixed Receptor    =  -8.57 kcal/mol
DOCKED: USER        Moving Ligand-Moving Receptor   =  +0.00 kcal/mol
DOCKED: USER    (2) Final Total Internal Energy     =  -1.39 kcal/mol
DOCKED: USER    (3) Torsional Free Energy           =  +2.98 kcal/mol
DOCKED: USER    (4) Unbound System's Energy         =  -1.39 kcal/mol
DOCKED: USER
DOCKED: USER
DOCKED: REMARK SMILES O/C(=C/CCOc1ccc(Cl)cc1Cl)[N-]/N=C/c1cccnc1F
DOCKED: REMARK SMILES IDX 2 1 1 2 15 4 16 5 17 6 18 7 23 8 19 9 22 10 20 11 21 12
DOCKED: REMARK SMILES IDX 24 13 3 14 4 15 5 16 6 17 7 18 8 19 13 20 9 21 12 22 10 23
DOCKED: REMARK SMILES IDX 14 24 11 25
DOCKED: REMARK H PARENT 1 3
DOCKED: USER                              x       y       z     vdW  Elec       q    Type
DOCKED: USER                           _______ _______ _______ _____ _____    ______ ____
DOCKED: ROOT
DOCKED: ATOM      1  C   UNL     1     138.064  69.225 224.716 -0.33 -0.00    +0.023 C  
DOCKED: ENDROOT
DOCKED: BRANCH   1   2
DOCKED: ATOM      2  O   UNL     1     136.810  69.201 225.328 -0.03 +0.02    -0.530 OA 
DOCKED: ATOM      3  H   UNL     1     136.055  69.810 225.031 +0.11 -0.02    +0.290 HD 
DOCKED: ENDBRANCH   1   2
DOCKED: BRANCH   1   4
DOCKED: ATOM      4  N   UNL     1     138.928  68.082 224.813 -0.41 +0.01    -0.546 NA 
DOCKED: BRANCH   4   5
DOCKED: ATOM      5  N   UNL     1     139.211  67.388 226.004 -0.75 +0.00    -0.372 NA 
DOCKED: BRANCH   5   6
DOCKED: ATOM      6  C   UNL     1     139.966  67.857 226.950 -0.57 -0.02    +0.099 C  
DOCKED: BRANCH   6   7
DOCKED: ATOM      7  C   UNL     1     140.327  69.291 227.008 -0.55 -0.01    +0.046 A  
DOCKED: ATOM      8  C   UNL     1     139.901  70.143 228.047 -0.43 -0.04    +0.221 A  
DOCKED: ATOM      9  C   UNL     1     141.131  69.830 225.992 -0.52 -0.00    +0.016 A  
DOCKED: ATOM     10  N   UNL     1     140.267  71.453 228.047 -0.47 +0.05    -0.228 NA 
DOCKED: ATOM     11  C   UNL     1     141.491  71.178 226.019 -0.59 -0.00    +0.021 A  
DOCKED: ATOM     12  C   UNL     1     141.044  71.983 227.066 -0.68 -0.02    +0.114 A  
DOCKED: ATOM     13  F   UNL     1     139.125  69.685 229.061 -0.16 +0.02    -0.184 F  
DOCKED: ENDBRANCH   6   7
DOCKED: ENDBRANCH   5   6
DOCKED: ENDBRANCH   4   5
DOCKED: ENDBRANCH   1   4
DOCKED: BRANCH   1  14
DOCKED: ATOM     14  C   UNL     1     138.468  70.325 224.067 -0.31 +0.00    -0.001 C  
DOCKED: BRANCH  14  15
DOCKED: ATOM     15  C   UNL     1     137.573  71.509 223.815 -0.14 -0.02    +0.071 C  
DOCKED: BRANCH  15  16
DOCKED: ATOM     16  C   UNL     1     136.270  71.097 223.121 -0.10 -0.04    +0.234 C  
DOCKED: BRANCH  16  17
DOCKED: ATOM     17  O   UNL     1     135.147  71.262 223.990 -0.03 +0.06    -0.492 OA 
DOCKED: BRANCH  17  18
DOCKED: ATOM     18  C   UNL     1     134.776  72.453 224.636 -0.17 -0.01    +0.137 A  
DOCKED: ATOM     19  C   UNL     1     135.190  73.721 224.181 -0.24 -0.01    +0.049 A  
DOCKED: ATOM     20  C   UNL     1     133.971  72.370 225.784 -0.27 -0.00    +0.084 A  
DOCKED: ATOM     21  C   UNL     1     134.795  74.879 224.859 -0.34 -0.00    +0.024 A  
DOCKED: ATOM     22  C   UNL     1     133.578  73.532 226.459 -0.31 +0.00    +0.045 A  
DOCKED: ATOM     23  C   UNL     1     133.990  74.786 225.997 -0.36 +0.00    +0.042 A  
DOCKED: ATOM     24  Cl  UNL     1     133.435  70.808 226.384 -0.43 +0.01    -0.080 Cl 
DOCKED: ATOM     25  Cl  UNL     1     133.495  76.240 226.845 -0.49 +0.00    -0.084 Cl 
DOCKED: ENDBRANCH  17  18
DOCKED: ENDBRANCH  16  17
DOCKED: ENDBRANCH  15  16
DOCKED: ENDBRANCH  14  15
DOCKED: ENDBRANCH   1  14
DOCKED: TORSDOF 10
DOCKED: TER
DOCKED: ENDMDL
________________________________________________________________________________


    FINAL DOCKED STATE:
    ________________________


Run:   6 / 20
Time taken for this run:   0.068s

DOCKED: MODEL        6
DOCKED: USER    Run = 6
DOCKED: USER
DOCKED: USER    Estimated Free Energy of Binding    =  -6.49 kcal/mol  [=(1)+(2)+(3)-(4)]
DOCKED: USER
DOCKED: USER    (1) Final Intermolecular Energy     =  -9.47 kcal/mol
DOCKED: USER        vdW + Hbond + desolv Energy     =  -9.43 kcal/mol
DOCKED: USER        Electrostatic Energy            =  -0.04 kcal/mol
DOCKED: USER        Moving Ligand-Fixed Receptor    =  -9.47 kcal/mol
DOCKED: USER        Moving Ligand-Moving Receptor   =  +0.00 kcal/mol
DOCKED: USER    (2) Final Total Internal Energy     =  -0.73 kcal/mol
DOCKED: USER    (3) Torsional Free Energy           =  +2.98 kcal/mol
DOCKED: USER    (4) Unbound System's Energy         =  -0.73 kcal/mol
DOCKED: USER
DOCKED: USER
DOCKED: REMARK SMILES O/C(=C/CCOc1ccc(Cl)cc1Cl)[N-]/N=C/c1cccnc1F
DOCKED: REMARK SMILES IDX 2 1 1 2 15 4 16 5 17 6 18 7 23 8 19 9 22 10 20 11 21 12
DOCKED: REMARK SMILES IDX 24 13 3 14 4 15 5 16 6 17 7 18 8 19 13 20 9 21 12 22 10 23
DOCKED: REMARK SMILES IDX 14 24 11 25
DOCKED: REMARK H PARENT 1 3
DOCKED: USER                              x       y       z     vdW  Elec       q    Type
DOCKED: USER                           _______ _______ _______ _____ _____    ______ ____
DOCKED: ROOT
DOCKED: ATOM      1  C   UNL     1     140.660  73.751 221.957 -0.20 -0.00    +0.023 C  
DOCKED: ENDROOT
DOCKED: BRANCH   1   2
DOCKED: ATOM      2  O   UNL     1     139.568  74.573 222.242 -0.62 +0.07    -0.530 OA 
DOCKED: ATOM      3  H   UNL     1     138.836  74.292 222.886 -0.50 -0.14    +0.290 HD 
DOCKED: ENDBRANCH   1   2
DOCKED: BRANCH   1   4
DOCKED: ATOM      4  N   UNL     1     140.885  72.566 222.737 -0.20 +0.00    -0.546 NA 
DOCKED: BRANCH   4   5
DOCKED: ATOM      5  N   UNL     1     139.915  71.936 223.538 -0.20 +0.07    -0.372 NA 
DOCKED: BRANCH   5   6
DOCKED: ATOM      6  C   UNL     1     140.105  70.805 224.147 -0.35 -0.02    +0.099 C  
DOCKED: BRANCH   6   7
DOCKED: ATOM      7  C   UNL     1     140.359  70.748 225.603 -0.52 -0.01    +0.046 A  
DOCKED: ATOM      8  C   UNL     1     140.128  69.588 226.372 -0.35 -0.04    +0.221 A  
DOCKED: ATOM      9  C   UNL     1     140.853  71.889 226.253 -0.62 -0.00    +0.016 A  
DOCKED: ATOM     10  N   UNL     1     140.381  69.594 227.708 -0.35 +0.04    -0.228 NA 
DOCKED: ATOM     11  C   UNL     1     141.104  71.866 227.626 -0.82 -0.00    +0.021 A  
DOCKED: ATOM     12  C   UNL     1     140.858  70.696 228.344 -0.49 -0.02    +0.114 A  
DOCKED: ATOM     13  F   UNL     1     139.654  68.450 225.805 -0.14 +0.03    -0.184 F  
DOCKED: ENDBRANCH   6   7
DOCKED: ENDBRANCH   5   6
DOCKED: ENDBRANCH   4   5
DOCKED: ENDBRANCH   1   4
DOCKED: BRANCH   1  14
DOCKED: ATOM     14  C   UNL     1     141.508  74.087 220.977 -0.28 +0.00    -0.001 C  
DOCKED: BRANCH  14  15
DOCKED: ATOM     15  C   UNL     1     141.660  75.494 220.463 -0.25 -0.03    +0.071 C  
DOCKED: BRANCH  15  16
DOCKED: ATOM     16  C   UNL     1     140.325  76.066 219.972 -0.08 -0.07    +0.234 C  
DOCKED: BRANCH  16  17
DOCKED: ATOM     17  O   UNL     1     140.312  77.492 220.052 +0.01 +0.17    -0.492 OA 
DOCKED: BRANCH  17  18
DOCKED: ATOM     18  C   UNL     1     140.922  78.264 221.056 -0.22 -0.06    +0.137 A  
DOCKED: ATOM     19  C   UNL     1     140.830  77.936 222.423 -0.41 -0.02    +0.049 A  
DOCKED: ATOM     20  C   UNL     1     141.639  79.411 220.677 -0.28 -0.04    +0.084 A  
DOCKED: ATOM     21  C   UNL     1     141.453  78.737 223.386 -0.57 -0.01    +0.024 A  
DOCKED: ATOM     22  C   UNL     1     142.262  80.208 221.644 -0.41 -0.02    +0.045 A  
DOCKED: ATOM     23  C   UNL     1     142.169  79.872 222.998 -0.58 -0.01    +0.042 A  
DOCKED: ATOM     24  Cl  UNL     1     141.777  79.854 218.982 -0.36 +0.05    -0.080 Cl 
DOCKED: ATOM     25  Cl  UNL     1     142.950  80.874 224.208 -0.63 +0.01    -0.084 Cl 
DOCKED: ENDBRANCH  17  18
DOCKED: ENDBRANCH  16  17
DOCKED: ENDBRANCH  15  16
DOCKED: ENDBRANCH  14  15
DOCKED: ENDBRANCH   1  14
DOCKED: TORSDOF 10
DOCKED: TER
DOCKED: ENDMDL
________________________________________________________________________________


    FINAL DOCKED STATE:
    ________________________


Run:   7 / 20
Time taken for this run:   0.068s

DOCKED: MODEL        7
DOCKED: USER    Run = 7
DOCKED: USER
DOCKED: USER    Estimated Free Energy of Binding    =  -5.65 kcal/mol  [=(1)+(2)+(3)-(4)]
DOCKED: USER
DOCKED: USER    (1) Final Intermolecular Energy     =  -8.64 kcal/mol
DOCKED: USER        vdW + Hbond + desolv Energy     =  -8.67 kcal/mol
DOCKED: USER        Electrostatic Energy            =  +0.03 kcal/mol
DOCKED: USER        Moving Ligand-Fixed Receptor    =  -8.64 kcal/mol
DOCKED: USER        Moving Ligand-Moving Receptor   =  +0.00 kcal/mol
DOCKED: USER    (2) Final Total Internal Energy     =  -1.22 kcal/mol
DOCKED: USER    (3) Torsional Free Energy           =  +2.98 kcal/mol
DOCKED: USER    (4) Unbound System's Energy         =  -1.22 kcal/mol
DOCKED: USER
DOCKED: USER
DOCKED: REMARK SMILES O/C(=C/CCOc1ccc(Cl)cc1Cl)[N-]/N=C/c1cccnc1F
DOCKED: REMARK SMILES IDX 2 1 1 2 15 4 16 5 17 6 18 7 23 8 19 9 22 10 20 11 21 12
DOCKED: REMARK SMILES IDX 24 13 3 14 4 15 5 16 6 17 7 18 8 19 13 20 9 21 12 22 10 23
DOCKED: REMARK SMILES IDX 14 24 11 25
DOCKED: REMARK H PARENT 1 3
DOCKED: USER                              x       y       z     vdW  Elec       q    Type
DOCKED: USER                           _______ _______ _______ _____ _____    ______ ____
DOCKED: ROOT
DOCKED: ATOM      1  C   UNL     1     139.683  73.962 221.940 -0.25 -0.00    +0.023 C  
DOCKED: ENDROOT
DOCKED: BRANCH   1   2
DOCKED: ATOM      2  O   UNL     1     140.746  74.846 222.136 -0.50 +0.01    -0.530 OA 
DOCKED: ATOM      3  H   UNL     1     140.683  75.827 221.884 +0.10 -0.07    +0.290 HD 
DOCKED: ENDBRANCH   1   2
DOCKED: BRANCH   1   4
DOCKED: ATOM      4  N   UNL     1     139.596  72.764 222.727 -0.29 +0.12    -0.546 NA 
DOCKED: BRANCH   4   5
DOCKED: ATOM      5  N   UNL     1     140.659  72.208 223.463 -0.21 +0.02    -0.372 NA 
DOCKED: BRANCH   5   6
DOCKED: ATOM      6  C   UNL     1     140.591  71.066 224.078 -0.30 -0.01    +0.099 C  
DOCKED: BRANCH   6   7
DOCKED: ATOM      7  C   UNL     1     140.492  70.991 225.552 -0.54 -0.01    +0.046 A  
DOCKED: ATOM      8  C   UNL     1     139.788  69.966 226.217 -0.33 -0.03    +0.221 A  
DOCKED: ATOM      9  C   UNL     1     141.126  71.974 226.328 -0.62 -0.00    +0.016 A  
DOCKED: ATOM     10  N   UNL     1     139.733  69.948 227.576 -0.33 +0.03    -0.228 NA 
DOCKED: ATOM     11  C   UNL     1     141.052  71.929 227.720 -0.82 -0.00    +0.021 A  
DOCKED: ATOM     12  C   UNL     1     140.343  70.897 228.333 -0.53 -0.02    +0.114 A  
DOCKED: ATOM     13  F   UNL     1     139.156  68.983 225.528 -0.11 +0.02    -0.184 F  
DOCKED: ENDBRANCH   6   7
DOCKED: ENDBRANCH   5   6
DOCKED: ENDBRANCH   4   5
DOCKED: ENDBRANCH   1   4
DOCKED: BRANCH   1  14
DOCKED: ATOM     14  C   UNL     1     138.767  74.221 220.998 -0.16 +0.00    -0.001 C  
DOCKED: BRANCH  14  15
DOCKED: ATOM     15  C   UNL     1     137.654  75.218 221.181 -0.12 -0.02    +0.071 C  
DOCKED: BRANCH  15  16
DOCKED: ATOM     16  C   UNL     1     138.088  76.397 222.061 -0.18 -0.05    +0.234 C  
DOCKED: BRANCH  16  17
DOCKED: ATOM     17  O   UNL     1     139.082  77.189 221.409 -0.03 +0.11    -0.492 OA 
DOCKED: BRANCH  17  18
DOCKED: ATOM     18  C   UNL     1     139.968  78.078 222.042 -0.25 -0.04    +0.137 A  
DOCKED: ATOM     19  C   UNL     1     139.595  78.853 223.158 -0.34 -0.01    +0.049 A  
DOCKED: ATOM     20  C   UNL     1     141.271  78.202 221.531 -0.32 -0.04    +0.084 A  
DOCKED: ATOM     21  C   UNL     1     140.513  79.724 223.752 -0.47 -0.00    +0.024 A  
DOCKED: ATOM     22  C   UNL     1     142.186  79.075 222.130 -0.45 -0.02    +0.045 A  
DOCKED: ATOM     23  C   UNL     1     141.807  79.836 223.240 -0.56 -0.01    +0.042 A  
DOCKED: ATOM     24  Cl  UNL     1     141.776  77.254 220.140 -0.37 +0.04    -0.080 Cl 
DOCKED: ATOM     25  Cl  UNL     1     142.957  80.931 223.989 -0.67 +0.01    -0.084 Cl 
DOCKED: ENDBRANCH  17  18
DOCKED: ENDBRANCH  16  17
DOCKED: ENDBRANCH  15  16
DOCKED: ENDBRANCH  14  15
DOCKED: ENDBRANCH   1  14
DOCKED: TORSDOF 10
DOCKED: TER
DOCKED: ENDMDL
________________________________________________________________________________


    FINAL DOCKED STATE:
    ________________________


Run:   8 / 20
Time taken for this run:   0.068s

DOCKED: MODEL        8
DOCKED: USER    Run = 8
DOCKED: USER
DOCKED: USER    Estimated Free Energy of Binding    =  -5.19 kcal/mol  [=(1)+(2)+(3)-(4)]
DOCKED: USER
DOCKED: USER    (1) Final Intermolecular Energy     =  -8.17 kcal/mol
DOCKED: USER        vdW + Hbond + desolv Energy     =  -8.21 kcal/mol
DOCKED: USER        Electrostatic Energy            =  +0.04 kcal/mol
DOCKED: USER        Moving Ligand-Fixed Receptor    =  -8.17 kcal/mol
DOCKED: USER        Moving Ligand-Moving Receptor   =  +0.00 kcal/mol
DOCKED: USER    (2) Final Total Internal Energy     =  -1.39 kcal/mol
DOCKED: USER    (3) Torsional Free Energy           =  +2.98 kcal/mol
DOCKED: USER    (4) Unbound System's Energy         =  -1.39 kcal/mol
DOCKED: USER
DOCKED: USER
DOCKED: REMARK SMILES O/C(=C/CCOc1ccc(Cl)cc1Cl)[N-]/N=C/c1cccnc1F
DOCKED: REMARK SMILES IDX 2 1 1 2 15 4 16 5 17 6 18 7 23 8 19 9 22 10 20 11 21 12
DOCKED: REMARK SMILES IDX 24 13 3 14 4 15 5 16 6 17 7 18 8 19 13 20 9 21 12 22 10 23
DOCKED: REMARK SMILES IDX 14 24 11 25
DOCKED: REMARK H PARENT 1 3
DOCKED: USER                              x       y       z     vdW  Elec       q    Type
DOCKED: USER                           _______ _______ _______ _____ _____    ______ ____
DOCKED: ROOT
DOCKED: ATOM      1  C   UNL     1     140.313  73.440 221.724 -0.28 -0.00    +0.023 C  
DOCKED: ENDROOT
DOCKED: BRANCH   1   2
DOCKED: ATOM      2  O   UNL     1     139.403  73.016 222.694 -0.37 +0.14    -0.530 OA 
DOCKED: ATOM      3  H   UNL     1     138.714  73.643 223.095 -0.48 -0.19    +0.290 HD 
DOCKED: ENDBRANCH   1   2
DOCKED: BRANCH   1   4
DOCKED: ATOM      4  N   UNL     1     141.073  74.640 221.933 -0.38 +0.04    -0.546 NA 
DOCKED: BRANCH   4   5
DOCKED: ATOM      5  N   UNL     1     140.528  75.879 222.317 -0.32 +0.07    -0.372 NA 
DOCKED: BRANCH   5   6
DOCKED: ATOM      6  C   UNL     1     140.572  76.947 221.581 -0.31 -0.03    +0.099 C  
DOCKED: BRANCH   6   7
DOCKED: ATOM      7  C   UNL     1     141.223  78.186 222.060 -0.39 -0.02    +0.046 A  
DOCKED: ATOM      8  C   UNL     1     141.621  79.223 221.190 -0.24 -0.11    +0.221 A  
DOCKED: ATOM      9  C   UNL     1     141.454  78.345 223.435 -0.54 -0.01    +0.016 A  
DOCKED: ATOM     10  N   UNL     1     142.213  80.341 221.690 -0.29 +0.09    -0.228 NA 
DOCKED: ATOM     11  C   UNL     1     142.065  79.503 223.918 -0.57 -0.01    +0.021 A  
DOCKED: ATOM     12  C   UNL     1     142.441  80.501 223.019 -0.55 -0.03    +0.114 A  
DOCKED: ATOM     13  F   UNL     1     141.423  79.135 219.851 -0.06 +0.09    -0.184 F  
DOCKED: ENDBRANCH   6   7
DOCKED: ENDBRANCH   5   6
DOCKED: ENDBRANCH   4   5
DOCKED: ENDBRANCH   1   4
DOCKED: BRANCH   1  14
DOCKED: ATOM     14  C   UNL     1     140.451  72.741 220.589 -0.16 +0.00    -0.001 C  
DOCKED: BRANCH  14  15
DOCKED: ATOM     15  C   UNL     1     139.867  73.180 219.273 -0.04 -0.01    +0.071 C  
DOCKED: BRANCH  15  16
DOCKED: ATOM     16  C   UNL     1     140.632  74.371 218.683 -0.02 -0.06    +0.234 C  
DOCKED: BRANCH  16  17
DOCKED: ATOM     17  O   UNL     1     141.946  73.989 218.272 +0.02 +0.13    -0.492 OA 
DOCKED: BRANCH  17  18
DOCKED: ATOM     18  C   UNL     1     143.052  73.808 219.120 -0.15 -0.03    +0.137 A  
DOCKED: ATOM     19  C   UNL     1     143.521  72.532 219.490 -0.19 -0.01    +0.049 A  
DOCKED: ATOM     20  C   UNL     1     143.704  74.946 219.623 -0.34 -0.04    +0.084 A  
DOCKED: ATOM     21  C   UNL     1     144.625  72.403 220.337 -0.39 -0.00    +0.024 A  
DOCKED: ATOM     22  C   UNL     1     144.810  74.812 220.470 -0.37 -0.02    +0.045 A  
DOCKED: ATOM     23  C   UNL     1     145.270  73.541 220.828 -0.59 -0.01    +0.042 A  
DOCKED: ATOM     24  Cl  UNL     1     143.150  76.556 219.185 -0.45 +0.05    -0.080 Cl 
DOCKED: ATOM     25  Cl  UNL     1     146.656  73.376 221.891 -0.76 +0.01    -0.084 Cl 
DOCKED: ENDBRANCH  17  18
DOCKED: ENDBRANCH  16  17
DOCKED: ENDBRANCH  15  16
DOCKED: ENDBRANCH  14  15
DOCKED: ENDBRANCH   1  14
DOCKED: TORSDOF 10
DOCKED: TER
DOCKED: ENDMDL
________________________________________________________________________________


    FINAL DOCKED STATE:
    ________________________


Run:   9 / 20
Time taken for this run:   0.068s

DOCKED: MODEL        9
DOCKED: USER    Run = 9
DOCKED: USER
DOCKED: USER    Estimated Free Energy of Binding    =  -6.22 kcal/mol  [=(1)+(2)+(3)-(4)]
DOCKED: USER
DOCKED: USER    (1) Final Intermolecular Energy     =  -9.21 kcal/mol
DOCKED: USER        vdW + Hbond + desolv Energy     =  -9.13 kcal/mol
DOCKED: USER        Electrostatic Energy            =  -0.08 kcal/mol
DOCKED: USER        Moving Ligand-Fixed Receptor    =  -9.21 kcal/mol
DOCKED: USER        Moving Ligand-Moving Receptor   =  +0.00 kcal/mol
DOCKED: USER    (2) Final Total Internal Energy     =  -0.59 kcal/mol
DOCKED: USER    (3) Torsional Free Energy           =  +2.98 kcal/mol
DOCKED: USER    (4) Unbound System's Energy         =  -0.59 kcal/mol
DOCKED: USER
DOCKED: USER
DOCKED: REMARK SMILES O/C(=C/CCOc1ccc(Cl)cc1Cl)[N-]/N=C/c1cccnc1F
DOCKED: REMARK SMILES IDX 2 1 1 2 15 4 16 5 17 6 18 7 23 8 19 9 22 10 20 11 21 12
DOCKED: REMARK SMILES IDX 24 13 3 14 4 15 5 16 6 17 7 18 8 19 13 20 9 21 12 22 10 23
DOCKED: REMARK SMILES IDX 14 24 11 25
DOCKED: REMARK H PARENT 1 3
DOCKED: USER                              x       y       z     vdW  Elec       q    Type
DOCKED: USER                           _______ _______ _______ _____ _____    ______ ____
DOCKED: ROOT
DOCKED: ATOM      1  C   UNL     1     140.419  74.443 221.589 -0.30 -0.00    +0.023 C  
DOCKED: ENDROOT
DOCKED: BRANCH   1   2
DOCKED: ATOM      2  O   UNL     1     141.760  74.828 221.544 -0.14 +0.13    -0.530 OA 
DOCKED: ATOM      3  H   UNL     1     142.094  75.670 222.000 -0.42 -0.17    +0.290 HD 
DOCKED: ENDBRANCH   1   2
DOCKED: BRANCH   1   4
DOCKED: ATOM      4  N   UNL     1     139.960  73.572 222.635 -0.49 +0.02    -0.546 NA 
DOCKED: BRANCH   4   5
DOCKED: ATOM      5  N   UNL     1     140.676  72.467 223.130 -0.27 +0.01    -0.372 NA 
DOCKED: BRANCH   5   6
DOCKED: ATOM      6  C   UNL     1     140.114  71.400 223.613 -0.34 -0.02    +0.099 C  
DOCKED: BRANCH   6   7
DOCKED: ATOM      7  C   UNL     1     140.229  71.051 225.046 -0.48 -0.01    +0.046 A  
DOCKED: ATOM      8  C   UNL     1     139.618  69.908 225.603 -0.30 -0.03    +0.221 A  
DOCKED: ATOM      9  C   UNL     1     140.979  71.883 225.891 -0.55 -0.00    +0.016 A  
DOCKED: ATOM     10  N   UNL     1     139.761  69.637 226.928 -0.30 +0.03    -0.228 NA 
DOCKED: ATOM     11  C   UNL     1     141.107  71.579 227.247 -0.75 -0.00    +0.021 A  
DOCKED: ATOM     12  C   UNL     1     140.483  70.439 227.753 -0.55 -0.02    +0.114 A  
DOCKED: ATOM     13  F   UNL     1     138.883  69.060 224.841 -0.10 +0.02    -0.184 F  
DOCKED: ENDBRANCH   6   7
DOCKED: ENDBRANCH   5   6
DOCKED: ENDBRANCH   4   5
DOCKED: ENDBRANCH   1   4
DOCKED: BRANCH   1  14
DOCKED: ATOM     14  C   UNL     1     139.573  74.864 220.640 -0.17 +0.00    -0.001 C  
DOCKED: BRANCH  14  15
DOCKED: ATOM     15  C   UNL     1     138.794  76.149 220.740 -0.12 -0.02    +0.071 C  
DOCKED: BRANCH  15  16
DOCKED: ATOM     16  C   UNL     1     138.110  76.292 222.104 -0.19 -0.05    +0.234 C  
DOCKED: BRANCH  16  17
DOCKED: ATOM     17  O   UNL     1     138.157  77.643 222.568 -0.09 +0.09    -0.492 OA 
DOCKED: BRANCH  17  18
DOCKED: ATOM     18  C   UNL     1     139.324  78.372 222.855 -0.25 -0.02    +0.137 A  
DOCKED: ATOM     19  C   UNL     1     140.615  77.839 222.665 -0.41 -0.01    +0.049 A  
DOCKED: ATOM     20  C   UNL     1     139.192  79.676 223.361 -0.34 -0.01    +0.084 A  
DOCKED: ATOM     21  C   UNL     1     141.746  78.605 222.967 -0.52 -0.01    +0.024 A  
DOCKED: ATOM     22  C   UNL     1     140.327  80.437 223.661 -0.41 -0.01    +0.045 A  
DOCKED: ATOM     23  C   UNL     1     141.603  79.902 223.465 -0.55 -0.01    +0.042 A  
DOCKED: ATOM     24  Cl  UNL     1     137.599  80.375 223.612 -0.36 +0.01    -0.080 Cl 
DOCKED: ATOM     25  Cl  UNL     1     143.025  80.859 223.842 -0.71 +0.02    -0.084 Cl 
DOCKED: ENDBRANCH  17  18
DOCKED: ENDBRANCH  16  17
DOCKED: ENDBRANCH  15  16
DOCKED: ENDBRANCH  14  15
DOCKED: ENDBRANCH   1  14
DOCKED: TORSDOF 10
DOCKED: TER
DOCKED: ENDMDL
________________________________________________________________________________


    FINAL DOCKED STATE:
    ________________________


Run:   10 / 20
Time taken for this run:   0.068s

DOCKED: MODEL        10
DOCKED: USER    Run = 10
DOCKED: USER
DOCKED: USER    Estimated Free Energy of Binding    =  -5.80 kcal/mol  [=(1)+(2)+(3)-(4)]
DOCKED: USER
DOCKED: USER    (1) Final Intermolecular Energy     =  -8.78 kcal/mol
DOCKED: USER        vdW + Hbond + desolv Energy     =  -8.81 kcal/mol
DOCKED: USER        Electrostatic Energy            =  +0.03 kcal/mol
DOCKED: USER        Moving Ligand-Fixed Receptor    =  -8.78 kcal/mol
DOCKED: USER        Moving Ligand-Moving Receptor   =  +0.00 kcal/mol
DOCKED: USER    (2) Final Total Internal Energy     =  -0.72 kcal/mol
DOCKED: USER    (3) Torsional Free Energy           =  +2.98 kcal/mol
DOCKED: USER    (4) Unbound System's Energy         =  -0.72 kcal/mol
DOCKED: USER
DOCKED: USER
DOCKED: REMARK SMILES O/C(=C/CCOc1ccc(Cl)cc1Cl)[N-]/N=C/c1cccnc1F
DOCKED: REMARK SMILES IDX 2 1 1 2 15 4 16 5 17 6 18 7 23 8 19 9 22 10 20 11 21 12
DOCKED: REMARK SMILES IDX 24 13 3 14 4 15 5 16 6 17 7 18 8 19 13 20 9 21 12 22 10 23
DOCKED: REMARK SMILES IDX 14 24 11 25
DOCKED: REMARK H PARENT 1 3
DOCKED: USER                              x       y       z     vdW  Elec       q    Type
DOCKED: USER                           _______ _______ _______ _____ _____    ______ ____
DOCKED: ROOT
DOCKED: ATOM      1  C   UNL     1     138.498  68.529 223.923 -0.30 -0.00    +0.023 C  
DOCKED: ENDROOT
DOCKED: BRANCH   1   2
DOCKED: ATOM      2  O   UNL     1     137.900  68.169 222.715 -0.05 +0.07    -0.530 OA 
DOCKED: ATOM      3  H   UNL     1     137.590  67.221 222.529 +0.07 -0.04    +0.290 HD 
DOCKED: ENDBRANCH   1   2
DOCKED: BRANCH   1   4
DOCKED: ATOM      4  N   UNL     1     139.213  67.546 224.688 -0.52 -0.00    -0.546 NA 
DOCKED: BRANCH   4   5
DOCKED: ATOM      5  N   UNL     1     139.175  67.436 226.090 -0.72 +0.00    -0.372 NA 
DOCKED: BRANCH   5   6
DOCKED: ATOM      6  C   UNL     1     140.118  67.862 226.873 -0.59 -0.02    +0.099 C  
DOCKED: BRANCH   6   7
DOCKED: ATOM      7  C   UNL     1     140.402  69.307 227.021 -0.55 -0.01    +0.046 A  
DOCKED: ATOM      8  C   UNL     1     139.949  70.065 228.120 -0.43 -0.04    +0.221 A  
DOCKED: ATOM      9  C   UNL     1     141.157  69.956 226.032 -0.52 -0.00    +0.016 A  
DOCKED: ATOM     10  N   UNL     1     140.244  71.390 228.202 -0.47 +0.05    -0.228 NA 
DOCKED: ATOM     11  C   UNL     1     141.444  71.317 226.143 -0.62 -0.00    +0.021 A  
DOCKED: ATOM     12  C   UNL     1     140.973  72.025 227.248 -0.69 -0.02    +0.114 A  
DOCKED: ATOM     13  F   UNL     1     139.218  69.498 229.113 -0.15 +0.02    -0.184 F  
DOCKED: ENDBRANCH   6   7
DOCKED: ENDBRANCH   5   6
DOCKED: ENDBRANCH   4   5
DOCKED: ENDBRANCH   1   4
DOCKED: BRANCH   1  14
DOCKED: ATOM     14  C   UNL     1     138.377  69.783 224.378 -0.33 +0.00    -0.001 C  
DOCKED: BRANCH  14  15
DOCKED: ATOM     15  C   UNL     1     137.393  70.774 223.817 -0.21 -0.01    +0.071 C  
DOCKED: BRANCH  15  16
DOCKED: ATOM     16  C   UNL     1     136.051  70.720 224.555 -0.05 -0.03    +0.234 C  
DOCKED: BRANCH  16  17
DOCKED: ATOM     17  O   UNL     1     135.148  71.712 224.061 -0.04 +0.07    -0.492 OA 
DOCKED: BRANCH  17  18
DOCKED: ATOM     18  C   UNL     1     134.788  72.897 224.723 -0.19 -0.01    +0.137 A  
DOCKED: ATOM     19  C   UNL     1     135.328  74.152 224.378 -0.27 -0.01    +0.049 A  
DOCKED: ATOM     20  C   UNL     1     133.860  72.821 225.776 -0.27 -0.00    +0.084 A  
DOCKED: ATOM     21  C   UNL     1     134.938  75.304 225.068 -0.37 -0.00    +0.024 A  
DOCKED: ATOM     22  C   UNL     1     133.473  73.977 226.463 -0.30 +0.00    +0.045 A  
DOCKED: ATOM     23  C   UNL     1     134.011  75.218 226.110 -0.38 +0.00    +0.042 A  
DOCKED: ATOM     24  Cl  UNL     1     133.163  71.275 226.238 -0.40 +0.01    -0.080 Cl 
DOCKED: ATOM     25  Cl  UNL     1     133.524  76.665 226.974 -0.44 +0.01    -0.084 Cl 
DOCKED: ENDBRANCH  17  18
DOCKED: ENDBRANCH  16  17
DOCKED: ENDBRANCH  15  16
DOCKED: ENDBRANCH  14  15
DOCKED: ENDBRANCH   1  14
DOCKED: TORSDOF 10
DOCKED: TER
DOCKED: ENDMDL
________________________________________________________________________________


    FINAL DOCKED STATE:
    ________________________


Run:   11 / 20
Time taken for this run:   0.068s

DOCKED: MODEL        11
DOCKED: USER    Run = 11
DOCKED: USER
DOCKED: USER    Estimated Free Energy of Binding    =  -6.70 kcal/mol  [=(1)+(2)+(3)-(4)]
DOCKED: USER
DOCKED: USER    (1) Final Intermolecular Energy     =  -9.69 kcal/mol
DOCKED: USER        vdW + Hbond + desolv Energy     =  -9.59 kcal/mol
DOCKED: USER        Electrostatic Energy            =  -0.10 kcal/mol
DOCKED: USER        Moving Ligand-Fixed Receptor    =  -9.69 kcal/mol
DOCKED: USER        Moving Ligand-Moving Receptor   =  +0.00 kcal/mol
DOCKED: USER    (2) Final Total Internal Energy     =  -0.68 kcal/mol
DOCKED: USER    (3) Torsional Free Energy           =  +2.98 kcal/mol
DOCKED: USER    (4) Unbound System's Energy         =  -0.68 kcal/mol
DOCKED: USER
DOCKED: USER
DOCKED: REMARK SMILES O/C(=C/CCOc1ccc(Cl)cc1Cl)[N-]/N=C/c1cccnc1F
DOCKED: REMARK SMILES IDX 2 1 1 2 15 4 16 5 17 6 18 7 23 8 19 9 22 10 20 11 21 12
DOCKED: REMARK SMILES IDX 24 13 3 14 4 15 5 16 6 17 7 18 8 19 13 20 9 21 12 22 10 23
DOCKED: REMARK SMILES IDX 14 24 11 25
DOCKED: REMARK H PARENT 1 3
DOCKED: USER                              x       y       z     vdW  Elec       q    Type
DOCKED: USER                           _______ _______ _______ _____ _____    ______ ____
DOCKED: ROOT
DOCKED: ATOM      1  C   UNL     1     140.544  73.422 221.947 -0.27 -0.00    +0.023 C  
DOCKED: ENDROOT
DOCKED: BRANCH   1   2
DOCKED: ATOM      2  O   UNL     1     139.536  74.312 222.322 -0.66 +0.08    -0.530 OA 
DOCKED: ATOM      3  H   UNL     1     138.870  74.092 223.055 -0.50 -0.17    +0.290 HD 
DOCKED: ENDBRANCH   1   2
DOCKED: BRANCH   1   4
DOCKED: ATOM      4  N   UNL     1     140.750  72.216 222.699 -0.15 +0.03    -0.546 NA 
DOCKED: BRANCH   4   5
DOCKED: ATOM      5  N   UNL     1     140.066  71.882 223.882 -0.20 +0.07    -0.372 NA 
DOCKED: BRANCH   5   6
DOCKED: ATOM      6  C   UNL     1     139.259  70.870 223.989 -0.32 -0.02    +0.099 C  
DOCKED: BRANCH   6   7
DOCKED: ATOM      7  C   UNL     1     139.514  69.781 224.957 -0.37 -0.01    +0.046 A  
DOCKED: ATOM      8  C   UNL     1     138.928  68.503 224.839 -0.27 -0.02    +0.221 A  
DOCKED: ATOM      9  C   UNL     1     140.378  70.019 226.037 -0.51 -0.00    +0.016 A  
DOCKED: ATOM     10  N   UNL     1     139.202  67.540 225.760 -0.84 -0.00    -0.228 NA 
DOCKED: ATOM     11  C   UNL     1     140.640  69.012 226.967 -0.59 -0.00    +0.021 A  
DOCKED: ATOM     12  C   UNL     1     140.035  67.765 226.809 -0.58 -0.02    +0.114 A  
DOCKED: ATOM     13  F   UNL     1     138.088  68.205 223.817 -0.08 +0.01    -0.184 F  
DOCKED: ENDBRANCH   6   7
DOCKED: ENDBRANCH   5   6
DOCKED: ENDBRANCH   4   5
DOCKED: ENDBRANCH   1   4
DOCKED: BRANCH   1  14
DOCKED: ATOM     14  C   UNL     1     141.334  73.712 220.905 -0.27 +0.00    -0.001 C  
DOCKED: BRANCH  14  15
DOCKED: ATOM     15  C   UNL     1     142.163  74.966 220.821 -0.25 -0.03    +0.071 C  
DOCKED: BRANCH  15  16
DOCKED: ATOM     16  C   UNL     1     141.632  75.926 219.750 -0.15 -0.10    +0.234 C  
DOCKED: BRANCH  16  17
DOCKED: ATOM     17  O   UNL     1     140.796  76.932 220.326 -0.03 +0.19    -0.492 OA 
DOCKED: BRANCH  17  18
DOCKED: ATOM     18  C   UNL     1     141.204  77.910 221.248 -0.26 -0.07    +0.137 A  
DOCKED: ATOM     19  C   UNL     1     141.093  77.729 222.642 -0.43 -0.02    +0.049 A  
DOCKED: ATOM     20  C   UNL     1     141.733  79.115 220.757 -0.28 -0.05    +0.084 A  
DOCKED: ATOM     21  C   UNL     1     141.512  78.734 223.520 -0.58 -0.01    +0.024 A  
DOCKED: ATOM     22  C   UNL     1     142.152  80.117 221.641 -0.43 -0.02    +0.045 A  
DOCKED: ATOM     23  C   UNL     1     142.041  79.927 223.021 -0.57 -0.01    +0.042 A  
DOCKED: ATOM     24  Cl  UNL     1     141.888  79.379 219.027 -0.35 +0.05    -0.080 Cl 
DOCKED: ATOM     25  Cl  UNL     1     142.567  81.184 224.126 -0.66 +0.01    -0.084 Cl 
DOCKED: ENDBRANCH  17  18
DOCKED: ENDBRANCH  16  17
DOCKED: ENDBRANCH  15  16
DOCKED: ENDBRANCH  14  15
DOCKED: ENDBRANCH   1  14
DOCKED: TORSDOF 10
DOCKED: TER
DOCKED: ENDMDL
________________________________________________________________________________


    FINAL DOCKED STATE:
    ________________________


Run:   12 / 20
Time taken for this run:   0.068s

DOCKED: MODEL        12
DOCKED: USER    Run = 12
DOCKED: USER
DOCKED: USER    Estimated Free Energy of Binding    =  -5.66 kcal/mol  [=(1)+(2)+(3)-(4)]
DOCKED: USER
DOCKED: USER    (1) Final Intermolecular Energy     =  -8.64 kcal/mol
DOCKED: USER        vdW + Hbond + desolv Energy     =  -8.64 kcal/mol
DOCKED: USER        Electrostatic Energy            =  -0.01 kcal/mol
DOCKED: USER        Moving Ligand-Fixed Receptor    =  -8.64 kcal/mol
DOCKED: USER        Moving Ligand-Moving Receptor   =  +0.00 kcal/mol
DOCKED: USER    (2) Final Total Internal Energy     =  -1.02 kcal/mol
DOCKED: USER    (3) Torsional Free Energy           =  +2.98 kcal/mol
DOCKED: USER    (4) Unbound System's Energy         =  -1.02 kcal/mol
DOCKED: USER
DOCKED: USER
DOCKED: REMARK SMILES O/C(=C/CCOc1ccc(Cl)cc1Cl)[N-]/N=C/c1cccnc1F
DOCKED: REMARK SMILES IDX 2 1 1 2 15 4 16 5 17 6 18 7 23 8 19 9 22 10 20 11 21 12
DOCKED: REMARK SMILES IDX 24 13 3 14 4 15 5 16 6 17 7 18 8 19 13 20 9 21 12 22 10 23
DOCKED: REMARK SMILES IDX 14 24 11 25
DOCKED: REMARK H PARENT 1 3
DOCKED: USER                              x       y       z     vdW  Elec       q    Type
DOCKED: USER                           _______ _______ _______ _____ _____    ______ ____
DOCKED: ROOT
DOCKED: ATOM      1  C   UNL     1     138.579  68.900 223.904 -0.30 -0.00    +0.023 C  
DOCKED: ENDROOT
DOCKED: BRANCH   1   2
DOCKED: ATOM      2  O   UNL     1     138.989  68.243 222.742 -0.06 +0.10    -0.530 OA 
DOCKED: ATOM      3  H   UNL     1     139.556  67.402 222.771 +0.01 -0.08    +0.290 HD 
DOCKED: ENDBRANCH   1   2
DOCKED: BRANCH   1   4
DOCKED: ATOM      4  N   UNL     1     138.513  68.182 225.145 -0.32 -0.02    -0.546 NA 
DOCKED: BRANCH   4   5
DOCKED: ATOM      5  N   UNL     1     139.545  67.378 225.664 -0.69 +0.02    -0.372 NA 
DOCKED: BRANCH   5   6
DOCKED: ATOM      6  C   UNL     1     140.368  67.769 226.589 -0.60 -0.02    +0.099 C  
DOCKED: BRANCH   6   7
DOCKED: ATOM      7  C   UNL     1     140.573  69.205 226.880 -0.55 -0.01    +0.046 A  
DOCKED: ATOM      8  C   UNL     1     140.166  69.803 228.091 -0.42 -0.04    +0.221 A  
DOCKED: ATOM      9  C   UNL     1     141.203  70.011 225.919 -0.52 -0.00    +0.016 A  
DOCKED: ATOM     10  N   UNL     1     140.384  71.129 228.303 -0.44 +0.05    -0.228 NA 
DOCKED: ATOM     11  C   UNL     1     141.413  71.368 226.165 -0.63 -0.00    +0.021 A  
DOCKED: ATOM     12  C   UNL     1     140.991  71.915 227.377 -0.71 -0.02    +0.114 A  
DOCKED: ATOM     13  F   UNL     1     139.555  69.080 229.063 -0.14 +0.03    -0.184 F  
DOCKED: ENDBRANCH   6   7
DOCKED: ENDBRANCH   5   6
DOCKED: ENDBRANCH   4   5
DOCKED: ENDBRANCH   1   4
DOCKED: BRANCH   1  14
DOCKED: ATOM     14  C   UNL     1     138.220  70.189 223.848 -0.29 +0.00    -0.001 C  
DOCKED: BRANCH  14  15
DOCKED: ATOM     15  C   UNL     1     139.169  71.293 223.464 -0.29 -0.02    +0.071 C  
DOCKED: BRANCH  15  16
DOCKED: ATOM     16  C   UNL     1     139.842  71.020 222.114 -0.15 -0.04    +0.234 C  
DOCKED: BRANCH  16  17
DOCKED: ATOM     17  O   UNL     1     139.642  72.107 221.208 -0.03 +0.09    -0.492 OA 
DOCKED: BRANCH  17  18
DOCKED: ATOM     18  C   UNL     1     139.853  73.466 221.496 -0.21 -0.02    +0.137 A  
DOCKED: ATOM     19  C   UNL     1     138.826  74.308 221.968 -0.21 -0.01    +0.049 A  
DOCKED: ATOM     20  C   UNL     1     141.136  74.003 221.294 -0.26 -0.01    +0.084 A  
DOCKED: ATOM     21  C   UNL     1     139.086  75.655 222.239 -0.31 -0.01    +0.024 A  
DOCKED: ATOM     22  C   UNL     1     141.390  75.351 221.568 -0.29 -0.01    +0.045 A  
DOCKED: ATOM     23  C   UNL     1     140.366  76.177 222.040 -0.36 -0.01    +0.042 A  
DOCKED: ATOM     24  Cl  UNL     1     142.443  72.986 220.706 -0.32 +0.01    -0.080 Cl 
DOCKED: ATOM     25  Cl  UNL     1     140.688  77.868 222.382 -0.54 +0.03    -0.084 Cl 
DOCKED: ENDBRANCH  17  18
DOCKED: ENDBRANCH  16  17
DOCKED: ENDBRANCH  15  16
DOCKED: ENDBRANCH  14  15
DOCKED: ENDBRANCH   1  14
DOCKED: TORSDOF 10
DOCKED: TER
DOCKED: ENDMDL
________________________________________________________________________________


    FINAL DOCKED STATE:
    ________________________


Run:   13 / 20
Time taken for this run:   0.068s

DOCKED: MODEL        13
DOCKED: USER    Run = 13
DOCKED: USER
DOCKED: USER    Estimated Free Energy of Binding    =  -6.19 kcal/mol  [=(1)+(2)+(3)-(4)]
DOCKED: USER
DOCKED: USER    (1) Final Intermolecular Energy     =  -9.18 kcal/mol
DOCKED: USER        vdW + Hbond + desolv Energy     =  -9.47 kcal/mol
DOCKED: USER        Electrostatic Energy            =  +0.29 kcal/mol
DOCKED: USER        Moving Ligand-Fixed Receptor    =  -9.18 kcal/mol
DOCKED: USER        Moving Ligand-Moving Receptor   =  +0.00 kcal/mol
DOCKED: USER    (2) Final Total Internal Energy     =  -1.02 kcal/mol
DOCKED: USER    (3) Torsional Free Energy           =  +2.98 kcal/mol
DOCKED: USER    (4) Unbound System's Energy         =  -1.02 kcal/mol
DOCKED: USER
DOCKED: USER
DOCKED: REMARK SMILES O/C(=C/CCOc1ccc(Cl)cc1Cl)[N-]/N=C/c1cccnc1F
DOCKED: REMARK SMILES IDX 2 1 1 2 15 4 16 5 17 6 18 7 23 8 19 9 22 10 20 11 21 12
DOCKED: REMARK SMILES IDX 24 13 3 14 4 15 5 16 6 17 7 18 8 19 13 20 9 21 12 22 10 23
DOCKED: REMARK SMILES IDX 14 24 11 25
DOCKED: REMARK H PARENT 1 3
DOCKED: USER                              x       y       z     vdW  Elec       q    Type
DOCKED: USER                           _______ _______ _______ _____ _____    ______ ____
DOCKED: ROOT
DOCKED: ATOM      1  C   UNL     1     140.198  74.588 221.442 -0.29 -0.00    +0.023 C  
DOCKED: ENDROOT
DOCKED: BRANCH   1   2
DOCKED: ATOM      2  O   UNL     1     139.161  74.353 222.346 -0.52 +0.13    -0.530 OA 
DOCKED: ATOM      3  H   UNL     1     139.250  73.685 223.105 -0.46 -0.12    +0.290 HD 
DOCKED: ENDBRANCH   1   2
DOCKED: BRANCH   1   4
DOCKED: ATOM      4  N   UNL     1     140.547  75.936 221.090 -0.05 +0.16    -0.546 NA 
DOCKED: BRANCH   4   5
DOCKED: ATOM      5  N   UNL     1     141.112  76.875 221.973 -0.15 +0.16    -0.372 NA 
DOCKED: BRANCH   5   6
DOCKED: ATOM      6  C   UNL     1     140.455  77.874 222.481 -0.36 -0.03    +0.099 C  
DOCKED: BRANCH   6   7
DOCKED: ATOM      7  C   UNL     1     141.150  79.092 222.952 -0.48 -0.01    +0.046 A  
DOCKED: ATOM      8  C   UNL     1     140.469  80.178 223.541 -0.32 -0.04    +0.221 A  
DOCKED: ATOM      9  C   UNL     1     142.544  79.176 222.815 -0.53 -0.01    +0.016 A  
DOCKED: ATOM     10  N   UNL     1     141.163  81.272 223.958 -0.25 +0.02    -0.228 NA 
DOCKED: ATOM     11  C   UNL     1     143.228  80.311 223.252 -0.62 -0.01    +0.021 A  
DOCKED: ATOM     12  C   UNL     1     142.512  81.361 223.826 -0.49 -0.02    +0.114 A  
DOCKED: ATOM     13  F   UNL     1     139.123  80.159 223.707 -0.13 +0.02    -0.184 F  
DOCKED: ENDBRANCH   6   7
DOCKED: ENDBRANCH   5   6
DOCKED: ENDBRANCH   4   5
DOCKED: ENDBRANCH   1   4
DOCKED: BRANCH   1  14
DOCKED: ATOM     14  C   UNL     1     140.843  73.555 220.884 -0.24 +0.00    -0.001 C  
DOCKED: BRANCH  14  15
DOCKED: ATOM     15  C   UNL     1     141.448  72.432 221.683 -0.19 -0.01    +0.071 C  
DOCKED: BRANCH  15  16
DOCKED: ATOM     16  C   UNL     1     140.373  71.509 222.270 -0.19 -0.03    +0.234 C  
DOCKED: BRANCH  16  17
DOCKED: ATOM     17  O   UNL     1     140.011  71.913 223.592 -0.21 +0.09    -0.492 OA 
DOCKED: BRANCH  17  18
DOCKED: ATOM     18  C   UNL     1     140.187  71.151 224.760 -0.40 -0.02    +0.137 A  
DOCKED: ATOM     19  C   UNL     1     141.075  71.533 225.785 -0.59 -0.01    +0.049 A  
DOCKED: ATOM     20  C   UNL     1     139.455  69.960 224.900 -0.35 -0.01    +0.084 A  
DOCKED: ATOM     21  C   UNL     1     141.215  70.741 226.929 -0.55 -0.00    +0.024 A  
DOCKED: ATOM     22  C   UNL     1     139.599  69.172 226.047 -0.45 -0.01    +0.045 A  
DOCKED: ATOM     23  C   UNL     1     140.479  69.561 227.061 -0.55 -0.01    +0.042 A  
DOCKED: ATOM     24  Cl  UNL     1     138.337  69.449 223.643 -0.34 +0.01    -0.080 Cl 
DOCKED: ATOM     25  Cl  UNL     1     140.658  68.570 228.498 -0.76 +0.02    -0.084 Cl 
DOCKED: ENDBRANCH  17  18
DOCKED: ENDBRANCH  16  17
DOCKED: ENDBRANCH  15  16
DOCKED: ENDBRANCH  14  15
DOCKED: ENDBRANCH   1  14
DOCKED: TORSDOF 10
DOCKED: TER
DOCKED: ENDMDL
________________________________________________________________________________


    FINAL DOCKED STATE:
    ________________________


Run:   14 / 20
Time taken for this run:   0.068s

DOCKED: MODEL        14
DOCKED: USER    Run = 14
DOCKED: USER
DOCKED: USER    Estimated Free Energy of Binding    =  -6.47 kcal/mol  [=(1)+(2)+(3)-(4)]
DOCKED: USER
DOCKED: USER    (1) Final Intermolecular Energy     =  -9.45 kcal/mol
DOCKED: USER        vdW + Hbond + desolv Energy     =  -9.50 kcal/mol
DOCKED: USER        Electrostatic Energy            =  +0.05 kcal/mol
DOCKED: USER        Moving Ligand-Fixed Receptor    =  -9.45 kcal/mol
DOCKED: USER        Moving Ligand-Moving Receptor   =  +0.00 kcal/mol
DOCKED: USER    (2) Final Total Internal Energy     =  -0.68 kcal/mol
DOCKED: USER    (3) Torsional Free Energy           =  +2.98 kcal/mol
DOCKED: USER    (4) Unbound System's Energy         =  -0.68 kcal/mol
DOCKED: USER
DOCKED: USER
DOCKED: REMARK SMILES O/C(=C/CCOc1ccc(Cl)cc1Cl)[N-]/N=C/c1cccnc1F
DOCKED: REMARK SMILES IDX 2 1 1 2 15 4 16 5 17 6 18 7 23 8 19 9 22 10 20 11 21 12
DOCKED: REMARK SMILES IDX 24 13 3 14 4 15 5 16 6 17 7 18 8 19 13 20 9 21 12 22 10 23
DOCKED: REMARK SMILES IDX 14 24 11 25
DOCKED: REMARK H PARENT 1 3
DOCKED: USER                              x       y       z     vdW  Elec       q    Type
DOCKED: USER                           _______ _______ _______ _____ _____    ______ ____
DOCKED: ROOT
DOCKED: ATOM      1  C   UNL     1     140.376  74.305 221.906 -0.17 -0.00    +0.023 C  
DOCKED: ENDROOT
DOCKED: BRANCH   1   2
DOCKED: ATOM      2  O   UNL     1     139.181  74.898 222.316 -0.46 +0.11    -0.530 OA 
DOCKED: ATOM      3  H   UNL     1     138.596  74.488 223.036 -0.49 -0.17    +0.290 HD 
DOCKED: ENDBRANCH   1   2
DOCKED: BRANCH   1   4
DOCKED: ATOM      4  N   UNL     1     140.730  73.001 222.392 -0.45 +0.00    -0.546 NA 
DOCKED: BRANCH   4   5
DOCKED: ATOM      5  N   UNL     1     140.092  72.341 223.459 -0.24 +0.06    -0.372 NA 
DOCKED: BRANCH   5   6
DOCKED: ATOM      6  C   UNL     1     140.463  71.185 223.918 -0.33 -0.01    +0.099 C  
DOCKED: BRANCH   6   7
DOCKED: ATOM      7  C   UNL     1     140.509  70.912 225.372 -0.52 -0.01    +0.046 A  
DOCKED: ATOM      8  C   UNL     1     140.054  69.702 225.935 -0.32 -0.04    +0.221 A  
DOCKED: ATOM      9  C   UNL     1     141.031  71.892 226.231 -0.65 -0.00    +0.016 A  
DOCKED: ATOM     10  N   UNL     1     140.124  69.508 227.280 -0.33 +0.04    -0.228 NA 
DOCKED: ATOM     11  C   UNL     1     141.090  71.664 227.606 -0.79 -0.00    +0.021 A  
DOCKED: ATOM     12  C   UNL     1     140.626  70.452 228.117 -0.52 -0.02    +0.114 A  
DOCKED: ATOM     13  F   UNL     1     139.542  68.713 225.161 -0.11 +0.03    -0.184 F  
DOCKED: ENDBRANCH   6   7
DOCKED: ENDBRANCH   5   6
DOCKED: ENDBRANCH   4   5
DOCKED: ENDBRANCH   1   4
DOCKED: BRANCH   1  14
DOCKED: ATOM     14  C   UNL     1     141.201  74.967 221.085 -0.31 +0.00    -0.001 C  
DOCKED: BRANCH  14  15
DOCKED: ATOM     15  C   UNL     1     140.752  76.103 220.204 -0.18 -0.02    +0.071 C  
DOCKED: BRANCH  15  16
DOCKED: ATOM     16  C   UNL     1     141.502  77.400 220.526 -0.20 -0.12    +0.234 C  
DOCKED: BRANCH  16  17
DOCKED: ATOM     17  O   UNL     1     141.460  77.689 221.925 -0.12 +0.26    -0.492 OA 
DOCKED: BRANCH  17  18
DOCKED: ATOM     18  C   UNL     1     140.520  78.513 222.566 -0.33 -0.04    +0.137 A  
DOCKED: ATOM     19  C   UNL     1     139.150  78.188 222.632 -0.29 -0.01    +0.049 A  
DOCKED: ATOM     20  C   UNL     1     140.966  79.709 223.152 -0.44 -0.02    +0.084 A  
DOCKED: ATOM     21  C   UNL     1     138.252  79.042 223.281 -0.23 -0.00    +0.024 A  
DOCKED: ATOM     22  C   UNL     1     140.063  80.559 223.801 -0.38 -0.01    +0.045 A  
DOCKED: ATOM     23  C   UNL     1     138.707  80.226 223.865 -0.39 -0.00    +0.042 A  
DOCKED: ATOM     24  Cl  UNL     1     142.666  80.150 223.091 -0.81 +0.02    -0.080 Cl 
DOCKED: ATOM     25  Cl  UNL     1     137.578  81.294 224.679 -0.45 +0.01    -0.084 Cl 
DOCKED: ENDBRANCH  17  18
DOCKED: ENDBRANCH  16  17
DOCKED: ENDBRANCH  15  16
DOCKED: ENDBRANCH  14  15
DOCKED: ENDBRANCH   1  14
DOCKED: TORSDOF 10
DOCKED: TER
DOCKED: ENDMDL
________________________________________________________________________________


    FINAL DOCKED STATE:
    ________________________


Run:   15 / 20
Time taken for this run:   0.068s

DOCKED: MODEL        15
DOCKED: USER    Run = 15
DOCKED: USER
DOCKED: USER    Estimated Free Energy of Binding    =  -5.94 kcal/mol  [=(1)+(2)+(3)-(4)]
DOCKED: USER
DOCKED: USER    (1) Final Intermolecular Energy     =  -8.92 kcal/mol
DOCKED: USER        vdW + Hbond + desolv Energy     =  -8.94 kcal/mol
DOCKED: USER        Electrostatic Energy            =  +0.02 kcal/mol
DOCKED: USER        Moving Ligand-Fixed Receptor    =  -8.92 kcal/mol
DOCKED: USER        Moving Ligand-Moving Receptor   =  +0.00 kcal/mol
DOCKED: USER    (2) Final Total Internal Energy     =  -0.84 kcal/mol
DOCKED: USER    (3) Torsional Free Energy           =  +2.98 kcal/mol
DOCKED: USER    (4) Unbound System's Energy         =  -0.84 kcal/mol
DOCKED: USER
DOCKED: USER
DOCKED: REMARK SMILES O/C(=C/CCOc1ccc(Cl)cc1Cl)[N-]/N=C/c1cccnc1F
DOCKED: REMARK SMILES IDX 2 1 1 2 15 4 16 5 17 6 18 7 23 8 19 9 22 10 20 11 21 12
DOCKED: REMARK SMILES IDX 24 13 3 14 4 15 5 16 6 17 7 18 8 19 13 20 9 21 12 22 10 23
DOCKED: REMARK SMILES IDX 14 24 11 25
DOCKED: REMARK H PARENT 1 3
DOCKED: USER                              x       y       z     vdW  Elec       q    Type
DOCKED: USER                           _______ _______ _______ _____ _____    ______ ____
DOCKED: ROOT
DOCKED: ATOM      1  C   UNL     1     140.368  72.743 222.033 -0.30 -0.00    +0.023 C  
DOCKED: ENDROOT
DOCKED: BRANCH   1   2
DOCKED: ATOM      2  O   UNL     1     139.644  73.880 222.394 -0.67 +0.07    -0.530 OA 
DOCKED: ATOM      3  H   UNL     1     138.854  73.835 223.029 -0.49 -0.17    +0.290 HD 
DOCKED: ENDBRANCH   1   2
DOCKED: BRANCH   1   4
DOCKED: ATOM      4  N   UNL     1     139.853  71.439 222.343 -0.05 +0.09    -0.546 NA 
DOCKED: BRANCH   4   5
DOCKED: ATOM      5  N   UNL     1     139.339  71.056 223.596 -0.14 +0.08    -0.372 NA 
DOCKED: BRANCH   5   6
DOCKED: ATOM      6  C   UNL     1     139.943  70.240 224.405 -0.33 -0.02    +0.099 C  
DOCKED: BRANCH   6   7
DOCKED: ATOM      7  C   UNL     1     140.328  70.654 225.771 -0.52 -0.01    +0.046 A  
DOCKED: ATOM      8  C   UNL     1     139.992  69.905 226.918 -0.38 -0.04    +0.221 A  
DOCKED: ATOM      9  C   UNL     1     141.061  71.839 225.941 -0.58 -0.00    +0.016 A  
DOCKED: ATOM     10  N   UNL     1     140.377  70.336 228.150 -0.37 +0.04    -0.228 NA 
DOCKED: ATOM     11  C   UNL     1     141.441  72.256 227.218 -0.80 -0.00    +0.021 A  
DOCKED: ATOM     12  C   UNL     1     141.085  71.482 228.322 -0.64 -0.03    +0.114 A  
DOCKED: ATOM     13  F   UNL     1     139.288  68.750 226.824 -0.14 +0.02    -0.184 F  
DOCKED: ENDBRANCH   6   7
DOCKED: ENDBRANCH   5   6
DOCKED: ENDBRANCH   4   5
DOCKED: ENDBRANCH   1   4
DOCKED: BRANCH   1  14
DOCKED: ATOM     14  C   UNL     1     141.554  72.874 221.424 -0.22 +0.00    -0.001 C  
DOCKED: BRANCH  14  15
DOCKED: ATOM     15  C   UNL     1     141.963  74.112 220.672 -0.24 -0.02    +0.071 C  
DOCKED: BRANCH  15  16
DOCKED: ATOM     16  C   UNL     1     141.018  74.403 219.501 -0.06 -0.06    +0.234 C  
DOCKED: BRANCH  16  17
DOCKED: ATOM     17  O   UNL     1     140.585  75.764 219.510 +0.01 +0.15    -0.492 OA 
DOCKED: BRANCH  17  18
DOCKED: ATOM     18  C   UNL     1     140.893  76.717 220.496 -0.18 -0.05    +0.137 A  
DOCKED: ATOM     19  C   UNL     1     140.305  76.699 221.776 -0.33 -0.01    +0.049 A  
DOCKED: ATOM     20  C   UNL     1     141.816  77.730 220.184 -0.27 -0.05    +0.084 A  
DOCKED: ATOM     21  C   UNL     1     140.644  77.671 222.723 -0.42 -0.01    +0.024 A  
DOCKED: ATOM     22  C   UNL     1     142.152  78.699 221.136 -0.18 -0.03    +0.045 A  
DOCKED: ATOM     23  C   UNL     1     141.566  78.670 222.405 -0.45 -0.02    +0.042 A  
DOCKED: ATOM     24  Cl  UNL     1     142.572  77.787 218.598 -0.40 +0.06    -0.080 Cl 
DOCKED: ATOM     25  Cl  UNL     1     141.989  79.887 223.596 -0.76 +0.02    -0.084 Cl 
DOCKED: ENDBRANCH  17  18
DOCKED: ENDBRANCH  16  17
DOCKED: ENDBRANCH  15  16
DOCKED: ENDBRANCH  14  15
DOCKED: ENDBRANCH   1  14
DOCKED: TORSDOF 10
DOCKED: TER
DOCKED: ENDMDL
________________________________________________________________________________


    FINAL DOCKED STATE:
    ________________________


Run:   16 / 20
Time taken for this run:   0.068s

DOCKED: MODEL        16
DOCKED: USER    Run = 16
DOCKED: USER
DOCKED: USER    Estimated Free Energy of Binding    =  -6.74 kcal/mol  [=(1)+(2)+(3)-(4)]
DOCKED: USER
DOCKED: USER    (1) Final Intermolecular Energy     =  -9.72 kcal/mol
DOCKED: USER        vdW + Hbond + desolv Energy     =  -9.62 kcal/mol
DOCKED: USER        Electrostatic Energy            =  -0.10 kcal/mol
DOCKED: USER        Moving Ligand-Fixed Receptor    =  -9.72 kcal/mol
DOCKED: USER        Moving Ligand-Moving Receptor   =  +0.00 kcal/mol
DOCKED: USER    (2) Final Total Internal Energy     =  -0.63 kcal/mol
DOCKED: USER    (3) Torsional Free Energy           =  +2.98 kcal/mol
DOCKED: USER    (4) Unbound System's Energy         =  -0.63 kcal/mol
DOCKED: USER
DOCKED: USER
DOCKED: REMARK SMILES O/C(=C/CCOc1ccc(Cl)cc1Cl)[N-]/N=C/c1cccnc1F
DOCKED: REMARK SMILES IDX 2 1 1 2 15 4 16 5 17 6 18 7 23 8 19 9 22 10 20 11 21 12
DOCKED: REMARK SMILES IDX 24 13 3 14 4 15 5 16 6 17 7 18 8 19 13 20 9 21 12 22 10 23
DOCKED: REMARK SMILES IDX 14 24 11 25
DOCKED: REMARK H PARENT 1 3
DOCKED: USER                              x       y       z     vdW  Elec       q    Type
DOCKED: USER                           _______ _______ _______ _____ _____    ______ ____
DOCKED: ROOT
DOCKED: ATOM      1  C   UNL     1     140.700  73.217 221.983 -0.27 -0.00    +0.023 C  
DOCKED: ENDROOT
DOCKED: BRANCH   1   2
DOCKED: ATOM      2  O   UNL     1     139.776  74.215 222.299 -0.70 +0.05    -0.530 OA 
DOCKED: ATOM      3  H   UNL     1     139.147  74.134 223.090 -0.49 -0.12    +0.290 HD 
DOCKED: ENDBRANCH   1   2
DOCKED: BRANCH   1   4
DOCKED: ATOM      4  N   UNL     1     140.697  71.982 222.716 -0.12 +0.04    -0.546 NA 
DOCKED: BRANCH   4   5
DOCKED: ATOM      5  N   UNL     1     140.323  71.851 224.066 -0.20 +0.06    -0.372 NA 
DOCKED: BRANCH   5   6
DOCKED: ATOM      6  C   UNL     1     139.361  71.081 224.477 -0.35 -0.02    +0.099 C  
DOCKED: BRANCH   6   7
DOCKED: ATOM      7  C   UNL     1     139.640  69.811 225.181 -0.39 -0.01    +0.046 A  
DOCKED: ATOM      8  C   UNL     1     138.906  68.630 224.942 -0.28 -0.02    +0.221 A  
DOCKED: ATOM      9  C   UNL     1     140.678  69.769 226.125 -0.51 -0.00    +0.016 A  
DOCKED: ATOM     10  N   UNL     1     139.210  67.490 225.620 -0.85 -0.00    -0.228 NA 
DOCKED: ATOM     11  C   UNL     1     140.966  68.585 226.805 -0.60 -0.00    +0.021 A  
DOCKED: ATOM     12  C   UNL     1     140.212  67.443 226.535 -0.57 -0.02    +0.114 A  
DOCKED: ATOM     13  F   UNL     1     137.893  68.600 224.041 -0.08 +0.01    -0.184 F  
DOCKED: ENDBRANCH   6   7
DOCKED: ENDBRANCH   5   6
DOCKED: ENDBRANCH   4   5
DOCKED: ENDBRANCH   1   4
DOCKED: BRANCH   1  14
DOCKED: ATOM     14  C   UNL     1     141.604  73.428 221.017 -0.26 +0.00    -0.001 C  
DOCKED: BRANCH  14  15
DOCKED: ATOM     15  C   UNL     1     142.210  74.777 220.735 -0.26 -0.02    +0.071 C  
DOCKED: BRANCH  15  16
DOCKED: ATOM     16  C   UNL     1     141.349  75.593 219.763 -0.12 -0.08    +0.234 C  
DOCKED: BRANCH  16  17
DOCKED: ATOM     17  O   UNL     1     140.564  76.564 220.458 -0.02 +0.17    -0.492 OA 
DOCKED: BRANCH  17  18
DOCKED: ATOM     18  C   UNL     1     141.060  77.568 221.306 -0.27 -0.06    +0.137 A  
DOCKED: ATOM     19  C   UNL     1     140.976  77.483 222.710 -0.42 -0.02    +0.049 A  
DOCKED: ATOM     20  C   UNL     1     141.653  78.702 220.726 -0.28 -0.05    +0.084 A  
DOCKED: ATOM     21  C   UNL     1     141.484  78.510 223.512 -0.55 -0.01    +0.024 A  
DOCKED: ATOM     22  C   UNL     1     142.160  79.727 221.533 -0.38 -0.02    +0.045 A  
DOCKED: ATOM     23  C   UNL     1     142.076  79.631 222.925 -0.56 -0.01    +0.042 A  
DOCKED: ATOM     24  Cl  UNL     1     141.776  78.847 218.978 -0.34 +0.05    -0.080 Cl 
DOCKED: ATOM     25  Cl  UNL     1     142.713  80.917 223.934 -0.74 +0.01    -0.084 Cl 
DOCKED: ENDBRANCH  17  18
DOCKED: ENDBRANCH  16  17
DOCKED: ENDBRANCH  15  16
DOCKED: ENDBRANCH  14  15
DOCKED: ENDBRANCH   1  14
DOCKED: TORSDOF 10
DOCKED: TER
DOCKED: ENDMDL
________________________________________________________________________________


    FINAL DOCKED STATE:
    ________________________


Run:   17 / 20
Time taken for this run:   0.068s

DOCKED: MODEL        17
DOCKED: USER    Run = 17
DOCKED: USER
DOCKED: USER    Estimated Free Energy of Binding    =  -6.20 kcal/mol  [=(1)+(2)+(3)-(4)]
DOCKED: USER
DOCKED: USER    (1) Final Intermolecular Energy     =  -9.18 kcal/mol
DOCKED: USER        vdW + Hbond + desolv Energy     =  -9.12 kcal/mol
DOCKED: USER        Electrostatic Energy            =  -0.06 kcal/mol
DOCKED: USER        Moving Ligand-Fixed Receptor    =  -9.18 kcal/mol
DOCKED: USER        Moving Ligand-Moving Receptor   =  +0.00 kcal/mol
DOCKED: USER    (2) Final Total Internal Energy     =  -0.49 kcal/mol
DOCKED: USER    (3) Torsional Free Energy           =  +2.98 kcal/mol
DOCKED: USER    (4) Unbound System's Energy         =  -0.49 kcal/mol
DOCKED: USER
DOCKED: USER
DOCKED: REMARK SMILES O/C(=C/CCOc1ccc(Cl)cc1Cl)[N-]/N=C/c1cccnc1F
DOCKED: REMARK SMILES IDX 2 1 1 2 15 4 16 5 17 6 18 7 23 8 19 9 22 10 20 11 21 12
DOCKED: REMARK SMILES IDX 24 13 3 14 4 15 5 16 6 17 7 18 8 19 13 20 9 21 12 22 10 23
DOCKED: REMARK SMILES IDX 14 24 11 25
DOCKED: REMARK H PARENT 1 3
DOCKED: USER                              x       y       z     vdW  Elec       q    Type
DOCKED: USER                           _______ _______ _______ _____ _____    ______ ____
DOCKED: ROOT
DOCKED: ATOM      1  C   UNL     1     140.541  73.006 221.838 -0.29 -0.00    +0.023 C  
DOCKED: ENDROOT
DOCKED: BRANCH   1   2
DOCKED: ATOM      2  O   UNL     1     139.904  74.138 222.349 -0.72 +0.02    -0.530 OA 
DOCKED: ATOM      3  H   UNL     1     139.220  74.079 223.096 -0.48 -0.11    +0.290 HD 
DOCKED: ENDBRANCH   1   2
DOCKED: BRANCH   1   4
DOCKED: ATOM      4  N   UNL     1     140.435  71.752 222.530 -0.09 +0.06    -0.546 NA 
DOCKED: BRANCH   4   5
DOCKED: ATOM      5  N   UNL     1     139.751  71.562 223.745 -0.18 +0.08    -0.372 NA 
DOCKED: BRANCH   5   6
DOCKED: ATOM      6  C   UNL     1     140.338  71.271 224.866 -0.44 -0.02    +0.099 C  
DOCKED: BRANCH   6   7
DOCKED: ATOM      7  C   UNL     1     140.187  69.939 225.492 -0.44 -0.01    +0.046 A  
DOCKED: ATOM      8  C   UNL     1     139.293  68.964 225.001 -0.27 -0.03    +0.221 A  
DOCKED: ATOM      9  C   UNL     1     140.963  69.624 226.617 -0.54 -0.00    +0.016 A  
DOCKED: ATOM     10  N   UNL     1     139.199  67.755 225.618 -0.83 +0.00    -0.228 NA 
DOCKED: ATOM     11  C   UNL     1     140.844  68.375 227.229 -0.64 -0.00    +0.021 A  
DOCKED: ATOM     12  C   UNL     1     139.946  67.444 226.708 -0.54 -0.02    +0.114 A  
DOCKED: ATOM     13  F   UNL     1     138.516  69.203 223.915 -0.07 +0.02    -0.184 F  
DOCKED: ENDBRANCH   6   7
DOCKED: ENDBRANCH   5   6
DOCKED: ENDBRANCH   4   5
DOCKED: ENDBRANCH   1   4
DOCKED: BRANCH   1  14
DOCKED: ATOM     14  C   UNL     1     141.272  73.101 220.719 -0.23 +0.00    -0.001 C  
DOCKED: BRANCH  14  15
DOCKED: ATOM     15  C   UNL     1     141.009  74.125 219.647 -0.11 -0.02    +0.071 C  
DOCKED: BRANCH  15  16
DOCKED: ATOM     16  C   UNL     1     141.576  75.499 220.024 -0.15 -0.09    +0.234 C  
DOCKED: BRANCH  16  17
DOCKED: ATOM     17  O   UNL     1     140.602  76.291 220.705 -0.05 +0.16    -0.492 OA 
DOCKED: BRANCH  17  18
DOCKED: ATOM     18  C   UNL     1     140.859  77.473 221.421 -0.27 -0.06    +0.137 A  
DOCKED: ATOM     19  C   UNL     1     142.003  78.263 221.192 -0.24 -0.03    +0.049 A  
DOCKED: ATOM     20  C   UNL     1     139.941  77.871 222.408 -0.32 -0.02    +0.084 A  
DOCKED: ATOM     21  C   UNL     1     142.215  79.431 221.932 -0.46 -0.01    +0.024 A  
DOCKED: ATOM     22  C   UNL     1     140.158  79.041 223.145 -0.40 -0.01    +0.045 A  
DOCKED: ATOM     23  C   UNL     1     141.294  79.821 222.907 -0.48 -0.01    +0.042 A  
DOCKED: ATOM     24  Cl  UNL     1     138.502  76.913 222.724 -0.32 +0.01    -0.080 Cl 
DOCKED: ATOM     25  Cl  UNL     1     141.563  81.287 223.833 -0.57 +0.01    -0.084 Cl 
DOCKED: ENDBRANCH  17  18
DOCKED: ENDBRANCH  16  17
DOCKED: ENDBRANCH  15  16
DOCKED: ENDBRANCH  14  15
DOCKED: ENDBRANCH   1  14
DOCKED: TORSDOF 10
DOCKED: TER
DOCKED: ENDMDL
________________________________________________________________________________


    FINAL DOCKED STATE:
    ________________________


Run:   18 / 20
Time taken for this run:   0.068s

DOCKED: MODEL        18
DOCKED: USER    Run = 18
DOCKED: USER
DOCKED: USER    Estimated Free Energy of Binding    =  -6.17 kcal/mol  [=(1)+(2)+(3)-(4)]
DOCKED: USER
DOCKED: USER    (1) Final Intermolecular Energy     =  -9.15 kcal/mol
DOCKED: USER        vdW + Hbond + desolv Energy     =  -9.17 kcal/mol
DOCKED: USER        Electrostatic Energy            =  +0.02 kcal/mol
DOCKED: USER        Moving Ligand-Fixed Receptor    =  -9.15 kcal/mol
DOCKED: USER        Moving Ligand-Moving Receptor   =  +0.00 kcal/mol
DOCKED: USER    (2) Final Total Internal Energy     =  -1.04 kcal/mol
DOCKED: USER    (3) Torsional Free Energy           =  +2.98 kcal/mol
DOCKED: USER    (4) Unbound System's Energy         =  -1.04 kcal/mol
DOCKED: USER
DOCKED: USER
DOCKED: REMARK SMILES O/C(=C/CCOc1ccc(Cl)cc1Cl)[N-]/N=C/c1cccnc1F
DOCKED: REMARK SMILES IDX 2 1 1 2 15 4 16 5 17 6 18 7 23 8 19 9 22 10 20 11 21 12
DOCKED: REMARK SMILES IDX 24 13 3 14 4 15 5 16 6 17 7 18 8 19 13 20 9 21 12 22 10 23
DOCKED: REMARK SMILES IDX 14 24 11 25
DOCKED: REMARK H PARENT 1 3
DOCKED: USER                              x       y       z     vdW  Elec       q    Type
DOCKED: USER                           _______ _______ _______ _____ _____    ______ ____
DOCKED: ROOT
DOCKED: ATOM      1  C   UNL     1     138.399  68.843 224.106 -0.31 -0.00    +0.023 C  
DOCKED: ENDROOT
DOCKED: BRANCH   1   2
DOCKED: ATOM      2  O   UNL     1     137.235  69.260 224.755 -0.06 +0.03    -0.530 OA 
DOCKED: ATOM      3  H   UNL     1     136.980  68.918 225.675 +0.15 -0.01    +0.290 HD 
DOCKED: ENDBRANCH   1   2
DOCKED: BRANCH   1   4
DOCKED: ATOM      4  N   UNL     1     139.169  67.759 224.647 -0.51 +0.02    -0.546 NA 
DOCKED: BRANCH   4   5
DOCKED: ATOM      5  N   UNL     1     139.196  67.392 226.005 -0.75 +0.00    -0.372 NA 
DOCKED: BRANCH   5   6
DOCKED: ATOM      6  C   UNL     1     140.090  67.812 226.849 -0.59 -0.02    +0.099 C  
DOCKED: BRANCH   6   7
DOCKED: ATOM      7  C   UNL     1     140.370  69.255 227.019 -0.55 -0.01    +0.046 A  
DOCKED: ATOM      8  C   UNL     1     139.922  69.991 228.136 -0.42 -0.04    +0.221 A  
DOCKED: ATOM      9  C   UNL     1     141.114  69.924 226.035 -0.52 -0.00    +0.016 A  
DOCKED: ATOM     10  N   UNL     1     140.213  71.316 228.239 -0.46 +0.05    -0.228 NA 
DOCKED: ATOM     11  C   UNL     1     141.396  71.284 226.168 -0.63 -0.00    +0.021 A  
DOCKED: ATOM     12  C   UNL     1     140.931  71.971 227.290 -0.69 -0.02    +0.114 A  
DOCKED: ATOM     13  F   UNL     1     139.202  69.405 229.124 -0.14 +0.02    -0.184 F  
DOCKED: ENDBRANCH   6   7
DOCKED: ENDBRANCH   5   6
DOCKED: ENDBRANCH   4   5
DOCKED: ENDBRANCH   1   4
DOCKED: BRANCH   1  14
DOCKED: ATOM     14  C   UNL     1     138.807  69.476 222.999 -0.23 +0.00    -0.001 C  
DOCKED: BRANCH  14  15
DOCKED: ATOM     15  C   UNL     1     138.701  70.967 222.814 -0.21 -0.01    +0.071 C  
DOCKED: BRANCH  15  16
DOCKED: ATOM     16  C   UNL     1     140.068  71.651 222.932 -0.24 -0.04    +0.234 C  
DOCKED: BRANCH  16  17
DOCKED: ATOM     17  O   UNL     1     139.965  73.056 222.694 -0.60 +0.05    -0.492 OA 
DOCKED: BRANCH  17  18
DOCKED: ATOM     18  C   UNL     1     140.771  73.801 221.817 -0.20 -0.01    +0.137 A  
DOCKED: ATOM     19  C   UNL     1     141.919  73.263 221.201 -0.23 -0.01    +0.049 A  
DOCKED: ATOM     20  C   UNL     1     140.420  75.136 221.555 -0.30 -0.02    +0.084 A  
DOCKED: ATOM     21  C   UNL     1     142.689  74.045 220.336 -0.29 -0.01    +0.024 A  
DOCKED: ATOM     22  C   UNL     1     141.195  75.915 220.687 -0.26 -0.02    +0.045 A  
DOCKED: ATOM     23  C   UNL     1     142.329  75.370 220.078 -0.28 -0.02    +0.042 A  
DOCKED: ATOM     24  Cl  UNL     1     138.996  75.845 222.303 -0.38 +0.02    -0.080 Cl 
DOCKED: ATOM     25  Cl  UNL     1     143.298  76.349 218.991 -0.45 +0.05    -0.084 Cl 
DOCKED: ENDBRANCH  17  18
DOCKED: ENDBRANCH  16  17
DOCKED: ENDBRANCH  15  16
DOCKED: ENDBRANCH  14  15
DOCKED: ENDBRANCH   1  14
DOCKED: TORSDOF 10
DOCKED: TER
DOCKED: ENDMDL
________________________________________________________________________________


    FINAL DOCKED STATE:
    ________________________


Run:   19 / 20
Time taken for this run:   0.068s

DOCKED: MODEL        19
DOCKED: USER    Run = 19
DOCKED: USER
DOCKED: USER    Estimated Free Energy of Binding    =  -5.42 kcal/mol  [=(1)+(2)+(3)-(4)]
DOCKED: USER
DOCKED: USER    (1) Final Intermolecular Energy     =  -8.40 kcal/mol
DOCKED: USER        vdW + Hbond + desolv Energy     =  -8.34 kcal/mol
DOCKED: USER        Electrostatic Energy            =  -0.06 kcal/mol
DOCKED: USER        Moving Ligand-Fixed Receptor    =  -8.40 kcal/mol
DOCKED: USER        Moving Ligand-Moving Receptor   =  +0.00 kcal/mol
DOCKED: USER    (2) Final Total Internal Energy     =  -1.43 kcal/mol
DOCKED: USER    (3) Torsional Free Energy           =  +2.98 kcal/mol
DOCKED: USER    (4) Unbound System's Energy         =  -1.43 kcal/mol
DOCKED: USER
DOCKED: USER
DOCKED: REMARK SMILES O/C(=C/CCOc1ccc(Cl)cc1Cl)[N-]/N=C/c1cccnc1F
DOCKED: REMARK SMILES IDX 2 1 1 2 15 4 16 5 17 6 18 7 23 8 19 9 22 10 20 11 21 12
DOCKED: REMARK SMILES IDX 24 13 3 14 4 15 5 16 6 17 7 18 8 19 13 20 9 21 12 22 10 23
DOCKED: REMARK SMILES IDX 14 24 11 25
DOCKED: REMARK H PARENT 1 3
DOCKED: USER                              x       y       z     vdW  Elec       q    Type
DOCKED: USER                           _______ _______ _______ _____ _____    ______ ____
DOCKED: ROOT
DOCKED: ATOM      1  C   UNL     1     137.769  68.907 223.902 -0.26 -0.00    +0.023 C  
DOCKED: ENDROOT
DOCKED: BRANCH   1   2
DOCKED: ATOM      2  O   UNL     1     136.531  68.922 224.548 -0.14 +0.01    -0.530 OA 
DOCKED: ATOM      3  H   UNL     1     136.068  69.788 224.802 +0.10 -0.02    +0.290 HD 
DOCKED: ENDBRANCH   1   2
DOCKED: BRANCH   1   4
DOCKED: ATOM      4  N   UNL     1     138.796  68.008 224.348 -0.33 +0.01    -0.546 NA 
DOCKED: BRANCH   4   5
DOCKED: ATOM      5  N   UNL     1     138.989  67.608 225.683 -0.67 -0.02    -0.372 NA 
DOCKED: BRANCH   5   6
DOCKED: ATOM      6  C   UNL     1     140.054  67.883 226.372 -0.58 -0.02    +0.099 C  
DOCKED: BRANCH   6   7
DOCKED: ATOM      7  C   UNL     1     140.397  69.276 226.737 -0.53 -0.01    +0.046 A  
DOCKED: ATOM      8  C   UNL     1     140.689  69.667 228.060 -0.42 -0.04    +0.221 A  
DOCKED: ATOM      9  C   UNL     1     140.439  70.252 225.729 -0.51 -0.00    +0.016 A  
DOCKED: ATOM     10  N   UNL     1     141.000  70.963 228.334 -0.42 +0.04    -0.228 NA 
DOCKED: ATOM     11  C   UNL     1     140.761  71.573 226.041 -0.62 -0.00    +0.021 A  
DOCKED: ATOM     12  C   UNL     1     141.041  71.913 227.365 -0.71 -0.02    +0.114 A  
DOCKED: ATOM     13  F   UNL     1     140.670  68.773 229.080 -0.14 +0.04    -0.184 F  
DOCKED: ENDBRANCH   6   7
DOCKED: ENDBRANCH   5   6
DOCKED: ENDBRANCH   4   5
DOCKED: ENDBRANCH   1   4
DOCKED: BRANCH   1  14
DOCKED: ATOM     14  C   UNL     1     138.002  69.751 222.889 -0.20 +0.00    -0.001 C  
DOCKED: BRANCH  14  15
DOCKED: ATOM     15  C   UNL     1     137.113  70.924 222.571 -0.12 -0.01    +0.071 C  
DOCKED: BRANCH  15  16
DOCKED: ATOM     16  C   UNL     1     136.836  71.779 223.813 -0.07 -0.06    +0.234 C  
DOCKED: BRANCH  16  17
DOCKED: ATOM     17  O   UNL     1     135.581  71.438 224.406 -0.05 +0.06    -0.492 OA 
DOCKED: BRANCH  17  18
DOCKED: ATOM     18  C   UNL     1     134.750  72.310 225.129 -0.15 -0.01    +0.137 A  
DOCKED: ATOM     19  C   UNL     1     134.718  73.698 224.888 -0.27 -0.00    +0.049 A  
DOCKED: ATOM     20  C   UNL     1     133.930  71.774 226.136 -0.30 -0.00    +0.084 A  
DOCKED: ATOM     21  C   UNL     1     133.874  74.526 225.636 -0.32 -0.00    +0.024 A  
DOCKED: ATOM     22  C   UNL     1     133.088  72.607 226.881 -0.39 -0.00    +0.045 A  
DOCKED: ATOM     23  C   UNL     1     133.059  73.982 226.631 -0.33 +0.00    +0.042 A  
DOCKED: ATOM     24  Cl  UNL     1     133.942  70.048 226.468 -0.41 +0.00    -0.080 Cl 
DOCKED: ATOM     25  Cl  UNL     1     132.002  75.023 227.567 -0.48 +0.00    -0.084 Cl 
DOCKED: ENDBRANCH  17  18
DOCKED: ENDBRANCH  16  17
DOCKED: ENDBRANCH  15  16
DOCKED: ENDBRANCH  14  15
DOCKED: ENDBRANCH   1  14
DOCKED: TORSDOF 10
DOCKED: TER
DOCKED: ENDMDL
________________________________________________________________________________


    FINAL DOCKED STATE:
    ________________________


Run:   20 / 20
Time taken for this run:   0.068s

DOCKED: MODEL        20
DOCKED: USER    Run = 20
DOCKED: USER
DOCKED: USER    Estimated Free Energy of Binding    =  -6.35 kcal/mol  [=(1)+(2)+(3)-(4)]
DOCKED: USER
DOCKED: USER    (1) Final Intermolecular Energy     =  -9.34 kcal/mol
DOCKED: USER        vdW + Hbond + desolv Energy     =  -9.58 kcal/mol
DOCKED: USER        Electrostatic Energy            =  +0.24 kcal/mol
DOCKED: USER        Moving Ligand-Fixed Receptor    =  -9.34 kcal/mol
DOCKED: USER        Moving Ligand-Moving Receptor   =  +0.00 kcal/mol
DOCKED: USER    (2) Final Total Internal Energy     =  -1.03 kcal/mol
DOCKED: USER    (3) Torsional Free Energy           =  +2.98 kcal/mol
DOCKED: USER    (4) Unbound System's Energy         =  -1.03 kcal/mol
DOCKED: USER
DOCKED: USER
DOCKED: REMARK SMILES O/C(=C/CCOc1ccc(Cl)cc1Cl)[N-]/N=C/c1cccnc1F
DOCKED: REMARK SMILES IDX 2 1 1 2 15 4 16 5 17 6 18 7 23 8 19 9 22 10 20 11 21 12
DOCKED: REMARK SMILES IDX 24 13 3 14 4 15 5 16 6 17 7 18 8 19 13 20 9 21 12 22 10 23
DOCKED: REMARK SMILES IDX 14 24 11 25
DOCKED: REMARK H PARENT 1 3
DOCKED: USER                              x       y       z     vdW  Elec       q    Type
DOCKED: USER                           _______ _______ _______ _____ _____    ______ ____
DOCKED: ROOT
DOCKED: ATOM      1  C   UNL     1     140.491  74.344 221.771 -0.21 -0.00    +0.023 C  
DOCKED: ENDROOT
DOCKED: BRANCH   1   2
DOCKED: ATOM      2  O   UNL     1     139.214  74.338 222.335 -0.55 +0.12    -0.530 OA 
DOCKED: ATOM      3  H   UNL     1     138.956  73.695 223.075 -0.48 -0.16    +0.290 HD 
DOCKED: ENDBRANCH   1   2
DOCKED: BRANCH   1   4
DOCKED: ATOM      4  N   UNL     1     141.266  75.553 221.767 -0.15 +0.16    -0.546 NA 
DOCKED: BRANCH   4   5
DOCKED: ATOM      5  N   UNL     1     140.729  76.849 221.664 -0.15 +0.13    -0.372 NA 
DOCKED: BRANCH   5   6
DOCKED: ATOM      6  C   UNL     1     140.340  77.552 222.684 -0.31 -0.03    +0.099 C  
DOCKED: BRANCH   6   7
DOCKED: ATOM      7  C   UNL     1     140.975  78.847 223.014 -0.47 -0.01    +0.046 A  
DOCKED: ATOM      8  C   UNL     1     140.257  79.932 223.558 -0.31 -0.04    +0.221 A  
DOCKED: ATOM      9  C   UNL     1     142.350  79.008 222.784 -0.51 -0.01    +0.016 A  
DOCKED: ATOM     10  N   UNL     1     140.896  81.098 223.843 -0.27 +0.03    -0.228 NA 
DOCKED: ATOM     11  C   UNL     1     142.979  80.217 223.087 -0.65 -0.01    +0.021 A  
DOCKED: ATOM     12  C   UNL     1     142.226  81.262 223.622 -0.53 -0.02    +0.114 A  
DOCKED: ATOM     13  F   UNL     1     138.926  79.841 223.808 -0.13 +0.02    -0.184 F  
DOCKED: ENDBRANCH   6   7
DOCKED: ENDBRANCH   5   6
DOCKED: ENDBRANCH   4   5
DOCKED: ENDBRANCH   1   4
DOCKED: BRANCH   1  14
DOCKED: ATOM     14  C   UNL     1     140.976  73.228 221.209 -0.27 +0.00    -0.001 C  
DOCKED: BRANCH  14  15
DOCKED: ATOM     15  C   UNL     1     141.106  71.922 221.947 -0.23 -0.01    +0.071 C  
DOCKED: BRANCH  15  16
DOCKED: ATOM     16  C   UNL     1     139.737  71.350 222.333 -0.18 -0.04    +0.234 C  
DOCKED: BRANCH  16  17
DOCKED: ATOM     17  O   UNL     1     139.399  71.680 223.681 -0.14 +0.13    -0.492 OA 
DOCKED: BRANCH  17  18
DOCKED: ATOM     18  C   UNL     1     139.777  70.955 224.824 -0.37 -0.03    +0.137 A  
DOCKED: ATOM     19  C   UNL     1     140.722  71.440 225.750 -0.57 -0.01    +0.049 A  
DOCKED: ATOM     20  C   UNL     1     139.195  69.695 225.041 -0.34 -0.01    +0.084 A  
DOCKED: ATOM     21  C   UNL     1     141.066  70.680 226.872 -0.61 -0.00    +0.024 A  
DOCKED: ATOM     22  C   UNL     1     139.543  68.939 226.166 -0.48 -0.01    +0.045 A  
DOCKED: ATOM     23  C   UNL     1     140.478  69.431 227.081 -0.55 -0.01    +0.042 A  
DOCKED: ATOM     24  Cl  UNL     1     138.012  69.054 223.909 -0.35 +0.01    -0.080 Cl 
DOCKED: ATOM     25  Cl  UNL     1     140.911  68.480 228.491 -0.76 +0.02    -0.084 Cl 
DOCKED: ENDBRANCH  17  18
DOCKED: ENDBRANCH  16  17
DOCKED: ENDBRANCH  15  16
DOCKED: ENDBRANCH  14  15
DOCKED: ENDBRANCH   1  14
DOCKED: TORSDOF 10
DOCKED: TER
DOCKED: ENDMDL
________________________________________________________________________________


    CLUSTERING HISTOGRAM
    ____________________


________________________________________________________________________________
     |           |     |           |     |
Clus | Lowest    | Run | Mean      | Num | Histogram
-ter | Binding   |     | Binding   | in  |
Rank | Energy    |     | Energy    | Clus|    5    10   15   20   25   30   35
_____|___________|_____|___________|_____|____:____|____:____|____:____|____:___
   1 |     -6.74 |  16 |     -6.44 |   6 |######
   2 |     -6.47 |  14 |     -6.15 |   4 |####
   3 |     -6.38 |   4 |     -6.31 |   4 |####
   4 |     -6.17 |  18 |     -5.92 |   2 |##
   5 |     -5.80 |  10 |     -5.60 |   3 |###
   6 |     -5.19 |   8 |     -5.19 |   1 |#
_____|___________|_____|___________|_____|______________________________________


    RMSD TABLE
    __________


_______________________________________________________________________
     |      |      |           |         |                 |
Rank | Sub- | Run  | Binding   | Cluster | Reference       | Grep
     | Rank |      | Energy    | RMSD    | RMSD            | Pattern
_____|______|______|___________|_________|_________________|___________
   1      1     16       -6.74      0.00    271.63           RANKING
   1      2     11       -6.70      0.37    271.64           RANKING
   1      3      3       -6.57      0.45    271.59           RANKING
   1      4      6       -6.49      1.32    272.15           RANKING
   1      5     17       -6.20      1.30    271.60           RANKING
   1      6     15       -5.94      1.63    271.78           RANKING
   2      1     14       -6.47      0.00    272.29           RANKING
   2      2      2       -6.23      0.36    272.31           RANKING
   2      3      9       -6.22      1.51    272.16           RANKING
   2      4      7       -5.65      1.65    272.11           RANKING
   3      1      4       -6.38      0.00    272.27           RANKING
   3      2     20       -6.35      0.35    272.25           RANKING
   3      3      1       -6.30      1.28    272.31           RANKING
   3      4     13       -6.19      0.38    272.32           RANKING
   4      1     18       -6.17      0.00    271.58           RANKING
   4      2     12       -5.66      1.62    271.50           RANKING
   5      1     10       -5.80      0.00    271.41           RANKING
   5      2      5       -5.59      1.10    271.47           RANKING
   5      3     19       -5.42      1.35    271.34           RANKING
   6      1      8       -5.19      0.00    271.13           RANKING

Run time 1.325 sec
Idle time 0.000 sec
