AutoDock-GPU version: v1.6

**********************************************************
**    AutoDock-GPU AUTODOCKTOOLS-COMPATIBLE DLG FILE    **
**********************************************************


    DOCKING PARAMETERS
    ________________________


Ligand file:                               /home/a/REINVENT4/ReinventStudies/scoringData/graph-dock-34dfml/graph-DockGPU/node-autodockgpu/inputs/RRGBJOPXSUYLSO-YTLCHPFQNA-M.pdbqt
Grid fld file:                             /home/a/REINVENT4/ReinventStudies/mols/Rad51/maps/rad51_receptor.maps.fld

Random seed:                               42
Number of runs:                            20
Number of energy evaluations:              1132076
Number of generations:                     42000
Size of population:                        150
Rate of crossover:                         80.000000%
Tournament selection probability limit:    60.000000%
Rate of mutation:                          2.000000%
Maximal allowed delta movement:            +/- 6.000000A
Maximal allowed delta angle:               +/- 90.000000

Rate of local search:                      100.000000%
Maximal number of local search iterations: 300
Rho lower bound:                           0.010000
Spread of local search delta movement:     2.000000A
Spread of local search delta angle:        74.999999
Limit of consecutive successes/failures:   4

Handle symmetry during clustering:         YES
RMSD tolerance:                            2.000000A

Program call in command line was:          /home/a/REINVENT4/ReinventStudies/adgpu-v1.6_linux_x64_cuda12_128wi --filelist batch.txt --heuristics 1 --nrun 20 --psize 150 --lsit 300 --seed 42 --heurmax 12000000 


    GRID PARAMETERS
    ________________________


Receptor name:                             rad51_receptor
Number of grid points (x, y, z):           53, 53, 53
Grid center (x, y, z):                     139.950000, 75.640000, 221.970000A
Grid size (x, y, z):                       19.500000, 19.500000, 19.500000A
Grid spacing:                              0.375000A


    LIGAND PARAMETERS
    ________________________


Ligand name:                               /home/a/REINVENT4/ReinventStudies/scoringData/graph-dock-34dfml/graph-DockGPU/node-autodockgpu/inputs/RRGBJOPXSUYLSO-YTLCHPFQNA-M
Number of atoms:                           35
Number of rotatable bonds:                 5
Number of atom types:                      6


    DUMMY DATA (only for ADT-compatibility)
    ________________________


DPF> outlev 1
DPF> ga_run 20
DPF> fld /home/a/REINVENT4/ReinventStudies/mols/Rad51/maps/rad51_receptor.maps.fld
DPF> move /home/a/REINVENT4/ReinventStudies/scoringData/graph-dock-34dfml/graph-DockGPU/node-autodockgpu/inputs/RRGBJOPXSUYLSO-YTLCHPFQNA-M.pdbqt


    COUNTER STATES
    ________________________


Number of energy evaluations performed:    721691
Number of generations used:                50


    INPUT LIGAND PDBQT FILE:
    ________________________


INPUT-LIGAND-PDBQT: REMARK SMILES [NH-]C(=O)c1ccc2cc(C(=O)N3C[C@]4(CCN([C@H]5CCNC5)C4)c4ccccc43)[nH]c2c1
INPUT-LIGAND-PDBQT: REMARK SMILES IDX 4 1 5 2 6 3 7 4 8 5 9 6 30 7 31 8 32 9 2 11 3 12 1 13 10 15
INPUT-LIGAND-PDBQT: REMARK SMILES IDX 11 16 12 17 13 18 29 19 14 20 28 21 24 22 15 23 23 24 27 25
INPUT-LIGAND-PDBQT: REMARK SMILES IDX 25 26 16 27 17 28 26 29 18 30 19 31 22 32 20 33 21 34
INPUT-LIGAND-PDBQT: REMARK H PARENT 30 10 1 14 21 35
INPUT-LIGAND-PDBQT: ROOT
INPUT-LIGAND-PDBQT: ATOM      1  C   UNL     1      -2.591  -5.548   1.342  1.00  0.00     0.001 A 
INPUT-LIGAND-PDBQT: ATOM      2  C   UNL     1      -2.339  -5.582   2.741  1.00  0.00     0.011 A 
INPUT-LIGAND-PDBQT: ATOM      3  C   UNL     1      -1.300  -4.822   3.306  1.00  0.00     0.011 A 
INPUT-LIGAND-PDBQT: ATOM      4  C   UNL     1      -0.533  -4.035   2.454  1.00  0.00     0.000 A 
INPUT-LIGAND-PDBQT: ATOM      5  C   UNL     1       0.538  -3.211   2.718  1.00  0.00     0.042 A 
INPUT-LIGAND-PDBQT: ATOM      6  C   UNL     1       0.903  -2.687   1.480  1.00  0.00     0.106 A 
INPUT-LIGAND-PDBQT: ATOM      7  N   UNL     1       0.108  -3.174   0.496  1.00  0.00    -0.350 N 
INPUT-LIGAND-PDBQT: ATOM      8  C   UNL     1      -0.765  -3.991   1.106  1.00  0.00     0.047 A 
INPUT-LIGAND-PDBQT: ATOM      9  C   UNL     1      -1.781  -4.736   0.512  1.00  0.00     0.036 A 
INPUT-LIGAND-PDBQT: ATOM     10  H   UNL     1       0.182  -2.995  -0.530  1.00  0.00     0.167 HD
INPUT-LIGAND-PDBQT: ENDROOT
INPUT-LIGAND-PDBQT: BRANCH   1  11
INPUT-LIGAND-PDBQT: ATOM     11  C   UNL     1      -3.690  -6.353   0.761  1.00  0.00     0.080 C 
INPUT-LIGAND-PDBQT: ATOM     12  O   UNL     1      -4.437  -7.043   1.507  1.00  0.00    -0.315 OA
INPUT-LIGAND-PDBQT: BRANCH  11  13
INPUT-LIGAND-PDBQT: ATOM     13  N   UNL     1      -3.920  -6.356  -0.647  1.00  0.00    -0.664 NA
INPUT-LIGAND-PDBQT: ATOM     14  H   UNL     1      -4.696  -6.919  -1.063  1.00  0.00    -0.121 HD
INPUT-LIGAND-PDBQT: ENDBRANCH  11  13
INPUT-LIGAND-PDBQT: ENDBRANCH   1  11
INPUT-LIGAND-PDBQT: BRANCH   6  15
INPUT-LIGAND-PDBQT: ATOM     15  C   UNL     1       2.032  -1.768   1.254  1.00  0.00     0.274 C 
INPUT-LIGAND-PDBQT: ATOM     16  O   UNL     1       2.951  -1.700   2.114  1.00  0.00    -0.267 OA
INPUT-LIGAND-PDBQT: BRANCH  15  17
INPUT-LIGAND-PDBQT: ATOM     17  N   UNL     1       2.082  -0.930   0.088  1.00  0.00    -0.306 N 
INPUT-LIGAND-PDBQT: ATOM     18  C   UNL     1       0.959  -0.096  -0.350  1.00  0.00     0.139 C 
INPUT-LIGAND-PDBQT: ATOM     19  C   UNL     1       3.271  -0.444  -0.515  1.00  0.00     0.048 A 
INPUT-LIGAND-PDBQT: ATOM     20  C   UNL     1       1.571   0.990  -1.304  1.00  0.00     0.029 C 
INPUT-LIGAND-PDBQT: ATOM     21  C   UNL     1       4.558  -0.980  -0.384  1.00  0.00     0.026 A 
INPUT-LIGAND-PDBQT: ATOM     22  C   UNL     1       3.031   0.640  -1.320  1.00  0.00    -0.015 A 
INPUT-LIGAND-PDBQT: ATOM     23  C   UNL     1       0.938   0.964  -2.685  1.00  0.00     0.030 C 
INPUT-LIGAND-PDBQT: ATOM     24  C   UNL     1       1.297   2.419  -0.817  1.00  0.00     0.098 C 
INPUT-LIGAND-PDBQT: ATOM     25  C   UNL     1       5.615  -0.368  -1.076  1.00  0.00     0.002 A 
INPUT-LIGAND-PDBQT: ATOM     26  C   UNL     1       4.071   1.264  -2.019  1.00  0.00     0.006 A 
INPUT-LIGAND-PDBQT: ATOM     27  C   UNL     1      -0.253   1.889  -2.531  1.00  0.00     0.086 C 
INPUT-LIGAND-PDBQT: ATOM     28  N   UNL     1       0.114   2.925  -1.544  1.00  0.00    -0.298 NA
INPUT-LIGAND-PDBQT: ATOM     29  C   UNL     1       5.372   0.754  -1.889  1.00  0.00     0.000 A 
INPUT-LIGAND-PDBQT: BRANCH  28  30
INPUT-LIGAND-PDBQT: ATOM     30  C   UNL     1      -1.011   3.264  -0.639  1.00  0.00     0.071 C 
INPUT-LIGAND-PDBQT: ATOM     31  C   UNL     1      -0.675   4.433   0.269  1.00  0.00     0.036 C 
INPUT-LIGAND-PDBQT: ATOM     32  C   UNL     1      -2.230   3.780  -1.403  1.00  0.00     0.100 C 
INPUT-LIGAND-PDBQT: ATOM     33  C   UNL     1      -2.011   5.104   0.534  1.00  0.00     0.082 C 
INPUT-LIGAND-PDBQT: ATOM     34  N   UNL     1      -2.929   4.738  -0.546  1.00  0.00    -0.315 NA
INPUT-LIGAND-PDBQT: ATOM     35  H   UNL     1      -3.151   5.595  -1.108  1.00  0.00     0.122 HD
INPUT-LIGAND-PDBQT: ENDBRANCH  28  30
INPUT-LIGAND-PDBQT: ENDBRANCH  15  17
INPUT-LIGAND-PDBQT: ENDBRANCH   6  15
INPUT-LIGAND-PDBQT: TORSDOF 5


    FINAL DOCKED STATE:
    ________________________


Run:   1 / 20
Time taken for this run:   0.036s

DOCKED: MODEL        1
DOCKED: USER    Run = 1
DOCKED: USER
DOCKED: USER    Estimated Free Energy of Binding    =  -7.87 kcal/mol  [=(1)+(2)+(3)-(4)]
DOCKED: USER
DOCKED: USER    (1) Final Intermolecular Energy     =  -9.36 kcal/mol
DOCKED: USER        vdW + Hbond + desolv Energy     =  -9.44 kcal/mol
DOCKED: USER        Electrostatic Energy            =  +0.08 kcal/mol
DOCKED: USER        Moving Ligand-Fixed Receptor    =  -9.36 kcal/mol
DOCKED: USER        Moving Ligand-Moving Receptor   =  +0.00 kcal/mol
DOCKED: USER    (2) Final Total Internal Energy     =  -1.45 kcal/mol
DOCKED: USER    (3) Torsional Free Energy           =  +1.49 kcal/mol
DOCKED: USER    (4) Unbound System's Energy         =  -1.45 kcal/mol
DOCKED: USER
DOCKED: USER
DOCKED: REMARK SMILES [NH-]C(=O)c1ccc2cc(C(=O)N3C[C@]4(CCN([C@H]5CCNC5)C4)c4ccccc43)[nH]c2c1
DOCKED: REMARK SMILES IDX 4 1 5 2 6 3 7 4 8 5 9 6 30 7 31 8 32 9 2 11 3 12 1 13 10 15
DOCKED: REMARK SMILES IDX 11 16 12 17 13 18 29 19 14 20 28 21 24 22 15 23 23 24 27 25
DOCKED: REMARK SMILES IDX 25 26 16 27 17 28 26 29 18 30 19 31 22 32 20 33 21 34
DOCKED: REMARK H PARENT 30 10 1 14 21 35
DOCKED: USER                              x       y       z     vdW  Elec       q    Type
DOCKED: USER                           _______ _______ _______ _____ _____    ______ ____
DOCKED: ROOT
DOCKED: ATOM      1  C   UNL     1     133.246  74.483 226.308 -0.34 +0.00    +0.001 A  
DOCKED: ATOM      2  C   UNL     1     132.613  75.756 226.278 -0.27 -0.00    +0.011 A  
DOCKED: ATOM      3  C   UNL     1     133.132  76.802 225.495 -0.20 -0.00    +0.011 A  
DOCKED: ATOM      4  C   UNL     1     134.279  76.549 224.751 -0.23 -0.00    +0.000 A  
DOCKED: ATOM      5  C   UNL     1     135.005  77.371 223.918 -0.15 -0.01    +0.042 A  
DOCKED: ATOM      6  C   UNL     1     136.052  76.578 223.453 -0.18 -0.02    +0.106 A  
DOCKED: ATOM      7  N   UNL     1     135.987  75.332 223.984 -0.16 +0.09    -0.350 N  
DOCKED: ATOM      8  C   UNL     1     134.898  75.329 224.769 -0.32 -0.01    +0.047 A  
DOCKED: ATOM      9  C   UNL     1     134.415  74.273 225.538 -0.33 -0.00    +0.036 A  
DOCKED: ATOM     10  H   UNL     1     136.664  74.548 223.853 -0.39 -0.09    +0.167 HD 
DOCKED: ENDROOT
DOCKED: BRANCH   1  11
DOCKED: ATOM     11  C   UNL     1     132.687  73.390 227.136 -0.35 -0.01    +0.080 C  
DOCKED: ATOM     12  O   UNL     1     131.523  73.484 227.613 -0.30 +0.05    -0.315 OA 
DOCKED: BRANCH  11  13
DOCKED: ATOM     13  N   UNL     1     133.455  72.217 227.403 -0.13 +0.07    -0.664 NA 
DOCKED: ATOM     14  H   UNL     1     133.373  71.719 228.318 -0.25 +0.04    -0.121 HD 
DOCKED: ENDBRANCH  11  13
DOCKED: ENDBRANCH   1  11
DOCKED: BRANCH   6  15
DOCKED: ATOM     15  C   UNL     1     137.120  77.038 222.549 -0.15 -0.05    +0.274 C  
DOCKED: ATOM     16  O   UNL     1     137.549  76.258 221.657 -0.10 +0.06    -0.267 OA 
DOCKED: BRANCH  15  17
DOCKED: ATOM     17  N   UNL     1     137.697  78.346 222.691 -0.11 +0.05    -0.306 N  
DOCKED: ATOM     18  C   UNL     1     136.926  79.523 223.102 -0.16 -0.02    +0.139 C  
DOCKED: ATOM     19  C   UNL     1     139.076  78.610 222.900 -0.30 -0.01    +0.048 A  
DOCKED: ATOM     20  C   UNL     1     137.977  80.575 223.608 -0.33 -0.00    +0.029 C  
DOCKED: ATOM     21  C   UNL     1     140.147  77.758 222.605 -0.36 -0.01    +0.026 A  
DOCKED: ATOM     22  C   UNL     1     139.285  79.865 223.412 -0.39 +0.00    -0.015 A  
DOCKED: ATOM     23  C   UNL     1     137.891  81.885 222.844 -0.19 -0.00    +0.030 C  
DOCKED: ATOM     24  C   UNL     1     137.729  80.997 225.062 -0.33 -0.01    +0.098 C  
DOCKED: ATOM     25  C   UNL     1     141.452  78.204 222.868 -0.50 -0.00    +0.002 A  
DOCKED: ATOM     26  C   UNL     1     140.579  80.328 223.681 -0.45 -0.00    +0.006 A  
DOCKED: ATOM     27  C   UNL     1     136.854  82.668 223.625 -0.15 -0.01    +0.086 C  
DOCKED: ATOM     28  N   UNL     1     136.966  82.263 225.041 -0.16 +0.02    -0.298 NA 
DOCKED: ATOM     29  C   UNL     1     141.667  79.485 223.409 -0.59 -0.00    +0.000 A  
DOCKED: BRANCH  28  30
DOCKED: ATOM     30  C   UNL     1     135.642  82.143 225.699 -0.24 -0.01    +0.071 C  
DOCKED: ATOM     31  C   UNL     1     134.848  80.966 225.163 -0.17 -0.00    +0.036 C  
DOCKED: ATOM     32  C   UNL     1     135.765  81.808 227.185 -0.36 -0.02    +0.100 C  
DOCKED: ATOM     33  C   UNL     1     133.979  80.532 226.329 -0.16 -0.01    +0.082 C  
DOCKED: ATOM     34  N   UNL     1     134.602  81.006 227.566 -0.09 +0.10    -0.315 NA 
DOCKED: ATOM     35  H   UNL     1     134.929  80.179 228.121 -0.53 -0.12    +0.122 HD 
DOCKED: ENDBRANCH  28  30
DOCKED: ENDBRANCH  15  17
DOCKED: ENDBRANCH   6  15
DOCKED: TORSDOF 5
DOCKED: TER
DOCKED: ENDMDL
________________________________________________________________________________


    FINAL DOCKED STATE:
    ________________________


Run:   2 / 20
Time taken for this run:   0.036s

DOCKED: MODEL        2
DOCKED: USER    Run = 2
DOCKED: USER
DOCKED: USER    Estimated Free Energy of Binding    =  -7.77 kcal/mol  [=(1)+(2)+(3)-(4)]
DOCKED: USER
DOCKED: USER    (1) Final Intermolecular Energy     =  -9.26 kcal/mol
DOCKED: USER        vdW + Hbond + desolv Energy     =  -8.77 kcal/mol
DOCKED: USER        Electrostatic Energy            =  -0.49 kcal/mol
DOCKED: USER        Moving Ligand-Fixed Receptor    =  -9.26 kcal/mol
DOCKED: USER        Moving Ligand-Moving Receptor   =  +0.00 kcal/mol
DOCKED: USER    (2) Final Total Internal Energy     =  -1.61 kcal/mol
DOCKED: USER    (3) Torsional Free Energy           =  +1.49 kcal/mol
DOCKED: USER    (4) Unbound System's Energy         =  -1.61 kcal/mol
DOCKED: USER
DOCKED: USER
DOCKED: REMARK SMILES [NH-]C(=O)c1ccc2cc(C(=O)N3C[C@]4(CCN([C@H]5CCNC5)C4)c4ccccc43)[nH]c2c1
DOCKED: REMARK SMILES IDX 4 1 5 2 6 3 7 4 8 5 9 6 30 7 31 8 32 9 2 11 3 12 1 13 10 15
DOCKED: REMARK SMILES IDX 11 16 12 17 13 18 29 19 14 20 28 21 24 22 15 23 23 24 27 25
DOCKED: REMARK SMILES IDX 25 26 16 27 17 28 26 29 18 30 19 31 22 32 20 33 21 34
DOCKED: REMARK H PARENT 30 10 1 14 21 35
DOCKED: USER                              x       y       z     vdW  Elec       q    Type
DOCKED: USER                           _______ _______ _______ _____ _____    ______ ____
DOCKED: ROOT
DOCKED: ATOM      1  C   UNL     1     144.112  74.072 220.203 -0.43 -0.00    +0.001 A  
DOCKED: ATOM      2  C   UNL     1     144.104  75.399 219.693 -0.29 -0.01    +0.011 A  
DOCKED: ATOM      3  C   UNL     1     142.967  76.215 219.823 -0.35 -0.01    +0.011 A  
DOCKED: ATOM      4  C   UNL     1     141.856  75.684 220.469 -0.29 -0.00    +0.000 A  
DOCKED: ATOM      5  C   UNL     1     140.621  76.235 220.726 -0.23 -0.01    +0.042 A  
DOCKED: ATOM      6  C   UNL     1     139.913  75.239 221.395 -0.25 -0.02    +0.106 A  
DOCKED: ATOM      7  N   UNL     1     140.667  74.120 221.531 -0.16 +0.04    -0.350 N  
DOCKED: ATOM      8  C   UNL     1     141.850  74.408 220.965 -0.26 -0.01    +0.047 A  
DOCKED: ATOM      9  C   UNL     1     142.956  73.570 220.848 -0.25 -0.01    +0.036 A  
DOCKED: ATOM     10  H   UNL     1     140.380  73.205 221.944 +0.04 -0.01    +0.167 HD 
DOCKED: ENDROOT
DOCKED: BRANCH   1  11
DOCKED: ATOM     11  C   UNL     1     145.318  73.224 220.060 -0.47 -0.00    +0.080 C  
DOCKED: ATOM     12  O   UNL     1     145.833  72.674 221.071 -0.37 +0.04    -0.315 OA 
DOCKED: BRANCH  11  13
DOCKED: ATOM     13  N   UNL     1     145.910  73.016 218.778 -0.52 -0.44    -0.664 NA 
DOCKED: ATOM     14  H   UNL     1     146.448  73.777 218.305 -0.48 -0.05    -0.121 HD 
DOCKED: ENDBRANCH  11  13
DOCKED: ENDBRANCH   1  11
DOCKED: BRANCH   6  15
DOCKED: ATOM     15  C   UNL     1     138.517  75.357 221.850 -0.17 -0.07    +0.274 C  
DOCKED: ATOM     16  O   UNL     1     137.832  74.312 222.011 -0.14 +0.08    -0.267 OA 
DOCKED: BRANCH  15  17
DOCKED: ATOM     17  N   UNL     1     137.921  76.644 222.080 -0.13 +0.06    -0.306 N  
DOCKED: ATOM     18  C   UNL     1     138.562  77.696 222.875 -0.16 -0.02    +0.139 C  
DOCKED: ATOM     19  C   UNL     1     136.922  77.236 221.264 -0.09 -0.01    +0.048 A  
DOCKED: ATOM     20  C   UNL     1     137.859  79.038 222.466 -0.21 -0.00    +0.029 C  
DOCKED: ATOM     21  C   UNL     1     136.058  76.575 220.382 -0.03 -0.00    +0.026 A  
DOCKED: ATOM     22  C   UNL     1     136.844  78.592 221.453 -0.09 +0.00    -0.015 A  
DOCKED: ATOM     23  C   UNL     1     137.237  79.747 223.658 -0.19 -0.00    +0.030 C  
DOCKED: ATOM     24  C   UNL     1     138.848  80.074 221.916 -0.17 -0.02    +0.098 C  
DOCKED: ATOM     25  C   UNL     1     135.117  77.334 219.668 -0.01 -0.00    +0.002 A  
DOCKED: ATOM     26  C   UNL     1     135.913  79.366 220.751 -0.03 -0.00    +0.006 A  
DOCKED: ATOM     27  C   UNL     1     138.377  80.599 224.179 -0.36 -0.01    +0.086 C  
DOCKED: ATOM     28  N   UNL     1     139.209  80.986 223.021 -0.15 +0.04    -0.298 NA 
DOCKED: ATOM     29  C   UNL     1     135.048  78.727 219.849 -0.01 -0.00    +0.000 A  
DOCKED: BRANCH  28  30
DOCKED: ATOM     30  C   UNL     1     140.658  80.959 223.335 -0.41 -0.01    +0.071 C  
DOCKED: ATOM     31  C   UNL     1     141.099  79.603 223.856 -0.52 -0.01    +0.036 C  
DOCKED: ATOM     32  C   UNL     1     141.521  81.128 222.085 -0.41 -0.02    +0.100 C  
DOCKED: ATOM     33  C   UNL     1     142.550  79.484 223.424 -0.51 -0.03    +0.082 C  
DOCKED: ATOM     34  N   UNL     1     142.765  80.384 222.290 -0.28 +0.12    -0.315 NA 
DOCKED: ATOM     35  H   UNL     1     142.961  79.811 221.434 -0.43 -0.09    +0.122 HD 
DOCKED: ENDBRANCH  28  30
DOCKED: ENDBRANCH  15  17
DOCKED: ENDBRANCH   6  15
DOCKED: TORSDOF 5
DOCKED: TER
DOCKED: ENDMDL
________________________________________________________________________________


    FINAL DOCKED STATE:
    ________________________


Run:   3 / 20
Time taken for this run:   0.036s

DOCKED: MODEL        3
DOCKED: USER    Run = 3
DOCKED: USER
DOCKED: USER    Estimated Free Energy of Binding    =  -8.56 kcal/mol  [=(1)+(2)+(3)-(4)]
DOCKED: USER
DOCKED: USER    (1) Final Intermolecular Energy     = -10.05 kcal/mol
DOCKED: USER        vdW + Hbond + desolv Energy     =  -9.16 kcal/mol
DOCKED: USER        Electrostatic Energy            =  -0.90 kcal/mol
DOCKED: USER        Moving Ligand-Fixed Receptor    = -10.05 kcal/mol
DOCKED: USER        Moving Ligand-Moving Receptor   =  +0.00 kcal/mol
DOCKED: USER    (2) Final Total Internal Energy     =  -0.98 kcal/mol
DOCKED: USER    (3) Torsional Free Energy           =  +1.49 kcal/mol
DOCKED: USER    (4) Unbound System's Energy         =  -0.98 kcal/mol
DOCKED: USER
DOCKED: USER
DOCKED: REMARK SMILES [NH-]C(=O)c1ccc2cc(C(=O)N3C[C@]4(CCN([C@H]5CCNC5)C4)c4ccccc43)[nH]c2c1
DOCKED: REMARK SMILES IDX 4 1 5 2 6 3 7 4 8 5 9 6 30 7 31 8 32 9 2 11 3 12 1 13 10 15
DOCKED: REMARK SMILES IDX 11 16 12 17 13 18 29 19 14 20 28 21 24 22 15 23 23 24 27 25
DOCKED: REMARK SMILES IDX 25 26 16 27 17 28 26 29 18 30 19 31 22 32 20 33 21 34
DOCKED: REMARK H PARENT 30 10 1 14 21 35
DOCKED: USER                              x       y       z     vdW  Elec       q    Type
DOCKED: USER                           _______ _______ _______ _____ _____    ______ ____
DOCKED: ROOT
DOCKED: ATOM      1  C   UNL     1     145.322  70.827 219.411 -0.26 +0.00    +0.001 A  
DOCKED: ATOM      2  C   UNL     1     145.942  72.090 219.615 -0.33 +0.01    +0.011 A  
DOCKED: ATOM      3  C   UNL     1     145.211  73.182 220.114 -0.51 -0.00    +0.011 A  
DOCKED: ATOM      4  C   UNL     1     143.865  72.984 220.405 -0.37 -0.00    +0.000 A  
DOCKED: ATOM      5  C   UNL     1     142.915  73.857 220.884 -0.20 -0.01    +0.042 A  
DOCKED: ATOM      6  C   UNL     1     141.747  73.105 220.973 -0.22 -0.01    +0.106 A  
DOCKED: ATOM      7  N   UNL     1     141.958  71.833 220.555 -0.07 +0.05    -0.350 N  
DOCKED: ATOM      8  C   UNL     1     143.255  71.774 220.215 -0.23 -0.01    +0.047 A  
DOCKED: ATOM      9  C   UNL     1     143.948  70.673 219.717 -0.23 +0.00    +0.036 A  
DOCKED: ATOM     10  H   UNL     1     141.254  71.066 220.466 +0.04 -0.02    +0.167 HD 
DOCKED: ENDROOT
DOCKED: BRANCH   1  11
DOCKED: ATOM     11  C   UNL     1     146.106  69.685 218.887 -0.31 +0.05    +0.080 C  
DOCKED: ATOM     12  O   UNL     1     146.254  68.642 219.580 -0.71 -0.14    -0.315 OA 
DOCKED: BRANCH  11  13
DOCKED: ATOM     13  N   UNL     1     146.699  69.748 217.591 +0.08 -0.55    -0.664 NA 
DOCKED: ATOM     14  H   UNL     1     147.706  70.003 217.474 -0.46 -0.24    -0.121 HD 
DOCKED: ENDBRANCH  11  13
DOCKED: ENDBRANCH   1  11
DOCKED: BRANCH   6  15
DOCKED: ATOM     15  C   UNL     1     140.440  73.626 221.412 -0.18 -0.04    +0.274 C  
DOCKED: ATOM     16  O   UNL     1     140.274  74.872 221.500 -0.42 +0.05    -0.267 OA 
DOCKED: BRANCH  15  17
DOCKED: ATOM     17  N   UNL     1     139.371  72.736 221.770 -0.12 +0.06    -0.306 N  
DOCKED: ATOM     18  C   UNL     1     139.582  71.474 222.484 -0.23 -0.03    +0.139 C  
DOCKED: ATOM     19  C   UNL     1     138.009  73.112 221.905 -0.15 -0.01    +0.048 A  
DOCKED: ATOM     20  C   UNL     1     138.191  71.086 223.101 -0.22 -0.01    +0.029 C  
DOCKED: ATOM     21  C   UNL     1     137.389  74.236 221.344 -0.12 -0.01    +0.026 A  
DOCKED: ATOM     22  C   UNL     1     137.298  72.203 222.645 -0.16 +0.00    -0.015 A  
DOCKED: ATOM     23  C   UNL     1     137.718  69.719 222.636 -0.16 -0.00    +0.030 C  
DOCKED: ATOM     24  C   UNL     1     138.247  70.940 224.627 +0.01 -0.02    +0.098 C  
DOCKED: ATOM     25  C   UNL     1     136.019  74.434 221.576 -0.09 -0.00    +0.002 A  
DOCKED: ATOM     26  C   UNL     1     135.930  72.382 222.887 -0.15 -0.00    +0.006 A  
DOCKED: ATOM     27  C   UNL     1     138.337  68.781 223.653 -0.25 -0.01    +0.086 C  
DOCKED: ATOM     28  N   UNL     1     138.412  69.505 224.938 -0.17 +0.03    -0.298 NA 
DOCKED: ATOM     29  C   UNL     1     135.292  73.510 222.349 -0.10 -0.00    +0.000 A  
DOCKED: BRANCH  28  30
DOCKED: ATOM     30  C   UNL     1     139.668  69.220 225.673 -0.43 -0.01    +0.071 C  
DOCKED: ATOM     31  C   UNL     1     139.567  69.603 227.138 -0.53 -0.01    +0.036 C  
DOCKED: ATOM     32  C   UNL     1     139.967  67.723 225.744 -0.48 -0.02    +0.100 C  
DOCKED: ATOM     33  C   UNL     1     140.502  68.640 227.848 -0.60 -0.02    +0.082 C  
DOCKED: ATOM     34  N   UNL     1     140.677  67.462 226.997 -0.32 +0.09    -0.315 NA 
DOCKED: ATOM     35  H   UNL     1     140.239  66.634 227.468 -0.51 -0.07    +0.122 HD 
DOCKED: ENDBRANCH  28  30
DOCKED: ENDBRANCH  15  17
DOCKED: ENDBRANCH   6  15
DOCKED: TORSDOF 5
DOCKED: TER
DOCKED: ENDMDL
________________________________________________________________________________


    FINAL DOCKED STATE:
    ________________________


Run:   4 / 20
Time taken for this run:   0.036s

DOCKED: MODEL        4
DOCKED: USER    Run = 4
DOCKED: USER
DOCKED: USER    Estimated Free Energy of Binding    =  -8.46 kcal/mol  [=(1)+(2)+(3)-(4)]
DOCKED: USER
DOCKED: USER    (1) Final Intermolecular Energy     =  -9.95 kcal/mol
DOCKED: USER        vdW + Hbond + desolv Energy     =  -9.12 kcal/mol
DOCKED: USER        Electrostatic Energy            =  -0.83 kcal/mol
DOCKED: USER        Moving Ligand-Fixed Receptor    =  -9.95 kcal/mol
DOCKED: USER        Moving Ligand-Moving Receptor   =  +0.00 kcal/mol
DOCKED: USER    (2) Final Total Internal Energy     =  -1.13 kcal/mol
DOCKED: USER    (3) Torsional Free Energy           =  +1.49 kcal/mol
DOCKED: USER    (4) Unbound System's Energy         =  -1.13 kcal/mol
DOCKED: USER
DOCKED: USER
DOCKED: REMARK SMILES [NH-]C(=O)c1ccc2cc(C(=O)N3C[C@]4(CCN([C@H]5CCNC5)C4)c4ccccc43)[nH]c2c1
DOCKED: REMARK SMILES IDX 4 1 5 2 6 3 7 4 8 5 9 6 30 7 31 8 32 9 2 11 3 12 1 13 10 15
DOCKED: REMARK SMILES IDX 11 16 12 17 13 18 29 19 14 20 28 21 24 22 15 23 23 24 27 25
DOCKED: REMARK SMILES IDX 25 26 16 27 17 28 26 29 18 30 19 31 22 32 20 33 21 34
DOCKED: REMARK H PARENT 30 10 1 14 21 35
DOCKED: USER                              x       y       z     vdW  Elec       q    Type
DOCKED: USER                           _______ _______ _______ _____ _____    ______ ____
DOCKED: ROOT
DOCKED: ATOM      1  C   UNL     1     144.420  73.214 220.522 -0.45 -0.00    +0.001 A  
DOCKED: ATOM      2  C   UNL     1     143.778  71.975 220.794 -0.32 -0.00    +0.011 A  
DOCKED: ATOM      3  C   UNL     1     142.407  71.923 221.099 -0.22 -0.00    +0.011 A  
DOCKED: ATOM      4  C   UNL     1     141.701  73.121 221.122 -0.27 -0.00    +0.000 A  
DOCKED: ATOM      5  C   UNL     1     140.375  73.374 221.397 -0.25 -0.01    +0.042 A  
DOCKED: ATOM      6  C   UNL     1     140.239  74.755 221.273 -0.24 -0.02    +0.106 A  
DOCKED: ATOM      7  N   UNL     1     141.424  75.330 220.954 -0.14 +0.12    -0.350 N  
DOCKED: ATOM      8  C   UNL     1     142.304  74.321 220.861 -0.26 -0.01    +0.047 A  
DOCKED: ATOM      9  C   UNL     1     143.662  74.409 220.562 -0.34 -0.01    +0.036 A  
DOCKED: ATOM     10  H   UNL     1     141.630  76.349 220.848 -0.04 -0.08    +0.167 HD 
DOCKED: ENDROOT
DOCKED: BRANCH   1  11
DOCKED: ATOM     11  C   UNL     1     145.865  73.253 220.200 -0.53 +0.01    +0.080 C  
DOCKED: ATOM     12  O   UNL     1     146.712  73.497 221.103 -0.49 -0.02    -0.315 OA 
DOCKED: BRANCH  11  13
DOCKED: ATOM     13  N   UNL     1     146.317  73.011 218.869 -0.42 -0.73    -0.664 NA 
DOCKED: ATOM     14  H   UNL     1     146.716  73.784 218.289 -0.47 -0.08    -0.121 HD 
DOCKED: ENDBRANCH  11  13
DOCKED: ENDBRANCH   1  11
DOCKED: BRANCH   6  15
DOCKED: ATOM     15  C   UNL     1     138.992  75.503 221.508 -0.17 -0.06    +0.274 C  
DOCKED: ATOM     16  O   UNL     1     137.909  75.054 221.044 -0.07 +0.06    -0.267 OA 
DOCKED: BRANCH  15  17
DOCKED: ATOM     17  N   UNL     1     138.999  76.747 222.227 -0.17 +0.06    -0.306 N  
DOCKED: ATOM     18  C   UNL     1     140.097  77.715 222.146 -0.30 -0.04    +0.139 C  
DOCKED: ATOM     19  C   UNL     1     137.845  77.409 222.720 -0.26 -0.01    +0.048 A  
DOCKED: ATOM     20  C   UNL     1     139.507  79.082 222.641 -0.32 -0.01    +0.029 C  
DOCKED: ATOM     21  C   UNL     1     136.594  76.835 222.978 -0.22 -0.00    +0.026 A  
DOCKED: ATOM     22  C   UNL     1     138.085  78.734 222.977 -0.24 +0.00    -0.015 A  
DOCKED: ATOM     23  C   UNL     1     140.276  79.646 223.823 -0.44 -0.00    +0.030 C  
DOCKED: ATOM     24  C   UNL     1     139.625  80.188 221.584 -0.17 -0.02    +0.098 C  
DOCKED: ATOM     25  C   UNL     1     135.570  77.652 223.483 -0.15 -0.00    +0.002 A  
DOCKED: ATOM     26  C   UNL     1     137.078  79.565 223.482 -0.21 -0.00    +0.006 A  
DOCKED: ATOM     27  C   UNL     1     141.375  80.454 223.161 -0.49 -0.02    +0.086 C  
DOCKED: ATOM     28  N   UNL     1     140.835  80.979 221.890 -0.16 +0.07    -0.298 NA 
DOCKED: ATOM     29  C   UNL     1     135.812  79.015 223.731 -0.12 -0.00    +0.000 A  
DOCKED: BRANCH  28  30
DOCKED: ATOM     30  C   UNL     1     141.835  80.941 220.795 -0.29 -0.02    +0.071 C  
DOCKED: ATOM     31  C   UNL     1     141.834  79.606 220.073 -0.27 -0.02    +0.036 C  
DOCKED: ATOM     32  C   UNL     1     141.499  81.923 219.673 -0.21 -0.03    +0.100 C  
DOCKED: ATOM     33  C   UNL     1     142.266  79.940 218.657 -0.28 -0.06    +0.082 C  
DOCKED: ATOM     34  N   UNL     1     141.987  81.357 218.416 -0.15 +0.18    -0.315 NA 
DOCKED: ATOM     35  H   UNL     1     141.231  81.436 217.693 +0.03 -0.06    +0.122 HD 
DOCKED: ENDBRANCH  28  30
DOCKED: ENDBRANCH  15  17
DOCKED: ENDBRANCH   6  15
DOCKED: TORSDOF 5
DOCKED: TER
DOCKED: ENDMDL
________________________________________________________________________________


    FINAL DOCKED STATE:
    ________________________


Run:   5 / 20
Time taken for this run:   0.036s

DOCKED: MODEL        5
DOCKED: USER    Run = 5
DOCKED: USER
DOCKED: USER    Estimated Free Energy of Binding    =  -8.47 kcal/mol  [=(1)+(2)+(3)-(4)]
DOCKED: USER
DOCKED: USER    (1) Final Intermolecular Energy     =  -9.96 kcal/mol
DOCKED: USER        vdW + Hbond + desolv Energy     =  -9.13 kcal/mol
DOCKED: USER        Electrostatic Energy            =  -0.83 kcal/mol
DOCKED: USER        Moving Ligand-Fixed Receptor    =  -9.96 kcal/mol
DOCKED: USER        Moving Ligand-Moving Receptor   =  +0.00 kcal/mol
DOCKED: USER    (2) Final Total Internal Energy     =  -1.13 kcal/mol
DOCKED: USER    (3) Torsional Free Energy           =  +1.49 kcal/mol
DOCKED: USER    (4) Unbound System's Energy         =  -1.13 kcal/mol
DOCKED: USER
DOCKED: USER
DOCKED: REMARK SMILES [NH-]C(=O)c1ccc2cc(C(=O)N3C[C@]4(CCN([C@H]5CCNC5)C4)c4ccccc43)[nH]c2c1
DOCKED: REMARK SMILES IDX 4 1 5 2 6 3 7 4 8 5 9 6 30 7 31 8 32 9 2 11 3 12 1 13 10 15
DOCKED: REMARK SMILES IDX 11 16 12 17 13 18 29 19 14 20 28 21 24 22 15 23 23 24 27 25
DOCKED: REMARK SMILES IDX 25 26 16 27 17 28 26 29 18 30 19 31 22 32 20 33 21 34
DOCKED: REMARK H PARENT 30 10 1 14 21 35
DOCKED: USER                              x       y       z     vdW  Elec       q    Type
DOCKED: USER                           _______ _______ _______ _____ _____    ______ ____
DOCKED: ROOT
DOCKED: ATOM      1  C   UNL     1     144.420  73.255 220.504 -0.46 -0.00    +0.001 A  
DOCKED: ATOM      2  C   UNL     1     143.794  72.021 220.831 -0.32 -0.00    +0.011 A  
DOCKED: ATOM      3  C   UNL     1     142.428  71.970 221.159 -0.22 -0.00    +0.011 A  
DOCKED: ATOM      4  C   UNL     1     141.712  73.162 221.148 -0.27 -0.00    +0.000 A  
DOCKED: ATOM      5  C   UNL     1     140.388  73.413 221.433 -0.26 -0.01    +0.042 A  
DOCKED: ATOM      6  C   UNL     1     140.238  74.788 221.261 -0.24 -0.02    +0.106 A  
DOCKED: ATOM      7  N   UNL     1     141.413  75.361 220.903 -0.14 +0.12    -0.350 N  
DOCKED: ATOM      8  C   UNL     1     142.301  74.356 220.834 -0.27 -0.01    +0.047 A  
DOCKED: ATOM      9  C   UNL     1     143.653  74.445 220.511 -0.36 -0.01    +0.036 A  
DOCKED: ATOM     10  H   UNL     1     141.608  76.376 220.756 -0.02 -0.08    +0.167 HD 
DOCKED: ENDROOT
DOCKED: BRANCH   1  11
DOCKED: ATOM     11  C   UNL     1     145.860  73.294 220.159 -0.52 +0.01    +0.080 C  
DOCKED: ATOM     12  O   UNL     1     146.719  73.571 221.041 -0.49 -0.02    -0.315 OA 
DOCKED: BRANCH  11  13
DOCKED: ATOM     13  N   UNL     1     146.295  73.016 218.829 -0.43 -0.72    -0.664 NA 
DOCKED: ATOM     14  H   UNL     1     146.699  73.769 218.228 -0.46 -0.08    -0.121 HD 
DOCKED: ENDBRANCH  11  13
DOCKED: ENDBRANCH   1  11
DOCKED: BRANCH   6  15
DOCKED: ATOM     15  C   UNL     1     138.988  75.533 221.487 -0.16 -0.06    +0.274 C  
DOCKED: ATOM     16  O   UNL     1     137.910  75.084 221.012 -0.07 +0.06    -0.267 OA 
DOCKED: BRANCH  15  17
DOCKED: ATOM     17  N   UNL     1     138.987  76.775 222.211 -0.17 +0.06    -0.306 N  
DOCKED: ATOM     18  C   UNL     1     140.077  77.751 222.130 -0.29 -0.04    +0.139 C  
DOCKED: ATOM     19  C   UNL     1     137.829  77.426 222.708 -0.25 -0.01    +0.048 A  
DOCKED: ATOM     20  C   UNL     1     139.477  79.113 222.631 -0.32 -0.01    +0.029 C  
DOCKED: ATOM     21  C   UNL     1     136.583  76.842 222.966 -0.22 -0.00    +0.026 A  
DOCKED: ATOM     22  C   UNL     1     138.059  78.753 222.969 -0.24 +0.00    -0.015 A  
DOCKED: ATOM     23  C   UNL     1     140.245  79.679 223.814 -0.44 -0.00    +0.030 C  
DOCKED: ATOM     24  C   UNL     1     139.584  80.223 221.577 -0.17 -0.02    +0.098 C  
DOCKED: ATOM     25  C   UNL     1     135.554  77.649 223.477 -0.16 -0.00    +0.002 A  
DOCKED: ATOM     26  C   UNL     1     137.047  79.574 223.478 -0.21 -0.00    +0.006 A  
DOCKED: ATOM     27  C   UNL     1     141.336  80.497 223.151 -0.49 -0.02    +0.086 C  
DOCKED: ATOM     28  N   UNL     1     140.789  81.022 221.884 -0.16 +0.07    -0.298 NA 
DOCKED: ATOM     29  C   UNL     1     135.785  79.014 223.729 -0.13 -0.00    +0.000 A  
DOCKED: BRANCH  28  30
DOCKED: ATOM     30  C   UNL     1     141.787  80.996 220.787 -0.30 -0.02    +0.071 C  
DOCKED: ATOM     31  C   UNL     1     141.801  79.660 220.066 -0.28 -0.02    +0.036 C  
DOCKED: ATOM     32  C   UNL     1     141.436  81.972 219.664 -0.23 -0.03    +0.100 C  
DOCKED: ATOM     33  C   UNL     1     142.226  79.998 218.648 -0.29 -0.06    +0.082 C  
DOCKED: ATOM     34  N   UNL     1     141.928  81.411 218.406 -0.14 +0.17    -0.315 NA 
DOCKED: ATOM     35  H   UNL     1     141.169  81.479 217.685 +0.03 -0.06    +0.122 HD 
DOCKED: ENDBRANCH  28  30
DOCKED: ENDBRANCH  15  17
DOCKED: ENDBRANCH   6  15
DOCKED: TORSDOF 5
DOCKED: TER
DOCKED: ENDMDL
________________________________________________________________________________


    FINAL DOCKED STATE:
    ________________________


Run:   6 / 20
Time taken for this run:   0.036s

DOCKED: MODEL        6
DOCKED: USER    Run = 6
DOCKED: USER
DOCKED: USER    Estimated Free Energy of Binding    =  -8.17 kcal/mol  [=(1)+(2)+(3)-(4)]
DOCKED: USER
DOCKED: USER    (1) Final Intermolecular Energy     =  -9.66 kcal/mol
DOCKED: USER        vdW + Hbond + desolv Energy     =  -9.76 kcal/mol
DOCKED: USER        Electrostatic Energy            =  +0.10 kcal/mol
DOCKED: USER        Moving Ligand-Fixed Receptor    =  -9.66 kcal/mol
DOCKED: USER        Moving Ligand-Moving Receptor   =  +0.00 kcal/mol
DOCKED: USER    (2) Final Total Internal Energy     =  -1.46 kcal/mol
DOCKED: USER    (3) Torsional Free Energy           =  +1.49 kcal/mol
DOCKED: USER    (4) Unbound System's Energy         =  -1.46 kcal/mol
DOCKED: USER
DOCKED: USER
DOCKED: REMARK SMILES [NH-]C(=O)c1ccc2cc(C(=O)N3C[C@]4(CCN([C@H]5CCNC5)C4)c4ccccc43)[nH]c2c1
DOCKED: REMARK SMILES IDX 4 1 5 2 6 3 7 4 8 5 9 6 30 7 31 8 32 9 2 11 3 12 1 13 10 15
DOCKED: REMARK SMILES IDX 11 16 12 17 13 18 29 19 14 20 28 21 24 22 15 23 23 24 27 25
DOCKED: REMARK SMILES IDX 25 26 16 27 17 28 26 29 18 30 19 31 22 32 20 33 21 34
DOCKED: REMARK H PARENT 30 10 1 14 21 35
DOCKED: USER                              x       y       z     vdW  Elec       q    Type
DOCKED: USER                           _______ _______ _______ _____ _____    ______ ____
DOCKED: ROOT
DOCKED: ATOM      1  C   UNL     1     133.344  74.387 226.287 -0.34 +0.00    +0.001 A  
DOCKED: ATOM      2  C   UNL     1     132.647  75.625 226.228 -0.27 -0.00    +0.011 A  
DOCKED: ATOM      3  C   UNL     1     133.121  76.684 225.434 -0.20 -0.00    +0.011 A  
DOCKED: ATOM      4  C   UNL     1     134.289  76.478 224.707 -0.23 -0.00    +0.000 A  
DOCKED: ATOM      5  C   UNL     1     134.983  77.322 223.870 -0.16 -0.01    +0.042 A  
DOCKED: ATOM      6  C   UNL     1     136.075  76.577 223.431 -0.18 -0.02    +0.106 A  
DOCKED: ATOM      7  N   UNL     1     136.067  75.338 223.982 -0.15 +0.09    -0.350 N  
DOCKED: ATOM      8  C   UNL     1     134.970  75.292 224.754 -0.33 -0.01    +0.047 A  
DOCKED: ATOM      9  C   UNL     1     134.532  74.225 225.535 -0.31 -0.00    +0.036 A  
DOCKED: ATOM     10  H   UNL     1     136.785  74.588 223.872 -0.37 -0.10    +0.167 HD 
DOCKED: ENDROOT
DOCKED: BRANCH   1  11
DOCKED: ATOM     11  C   UNL     1     132.831  73.280 227.127 -0.34 -0.00    +0.080 C  
DOCKED: ATOM     12  O   UNL     1     133.536  72.254 227.327 -0.47 +0.03    -0.315 OA 
DOCKED: BRANCH  11  13
DOCKED: ATOM     13  N   UNL     1     131.537  73.362 227.722 -0.03 +0.13    -0.664 NA 
DOCKED: ATOM     14  H   UNL     1     131.390  73.103 228.724 -0.51 +0.05    -0.121 HD 
DOCKED: ENDBRANCH  11  13
DOCKED: ENDBRANCH   1  11
DOCKED: BRANCH   6  15
DOCKED: ATOM     15  C   UNL     1     137.129  77.077 222.532 -0.15 -0.05    +0.274 C  
DOCKED: ATOM     16  O   UNL     1     137.549  76.335 221.604 -0.09 +0.06    -0.267 OA 
DOCKED: BRANCH  15  17
DOCKED: ATOM     17  N   UNL     1     137.704  78.381 222.718 -0.12 +0.05    -0.306 N  
DOCKED: ATOM     18  C   UNL     1     136.928  79.546 223.153 -0.16 -0.02    +0.139 C  
DOCKED: ATOM     19  C   UNL     1     139.080  78.638 222.953 -0.30 -0.01    +0.048 A  
DOCKED: ATOM     20  C   UNL     1     137.971  80.582 223.702 -0.34 -0.00    +0.029 C  
DOCKED: ATOM     21  C   UNL     1     140.155  77.795 222.648 -0.37 -0.01    +0.026 A  
DOCKED: ATOM     22  C   UNL     1     139.282  79.878 223.504 -0.40 +0.00    -0.015 A  
DOCKED: ATOM     23  C   UNL     1     137.896  81.914 222.975 -0.19 -0.00    +0.030 C  
DOCKED: ATOM     24  C   UNL     1     137.705  80.963 225.164 -0.31 -0.01    +0.098 C  
DOCKED: ATOM     25  C   UNL     1     141.457  78.232 222.940 -0.52 -0.00    +0.002 A  
DOCKED: ATOM     26  C   UNL     1     140.572  80.333 223.802 -0.44 -0.00    +0.006 A  
DOCKED: ATOM     27  C   UNL     1     136.848  82.674 223.764 -0.15 -0.01    +0.086 C  
DOCKED: ATOM     28  N   UNL     1     136.942  82.229 225.170 -0.17 +0.02    -0.298 NA 
DOCKED: ATOM     29  C   UNL     1     141.664  79.497 223.520 -0.60 -0.00    +0.000 A  
DOCKED: BRANCH  28  30
DOCKED: ATOM     30  C   UNL     1     135.610  82.090 225.806 -0.25 -0.01    +0.071 C  
DOCKED: ATOM     31  C   UNL     1     134.854  80.883 225.282 -0.18 -0.00    +0.036 C  
DOCKED: ATOM     32  C   UNL     1     135.714  81.790 227.301 -0.36 -0.02    +0.100 C  
DOCKED: ATOM     33  C   UNL     1     133.974  80.453 226.442 -0.16 -0.02    +0.082 C  
DOCKED: ATOM     34  N   UNL     1     134.563  80.968 227.679 -0.08 +0.10    -0.315 NA 
DOCKED: ATOM     35  H   UNL     1     134.900  80.161 228.257 -0.53 -0.13    +0.122 HD 
DOCKED: ENDBRANCH  28  30
DOCKED: ENDBRANCH  15  17
DOCKED: ENDBRANCH   6  15
DOCKED: TORSDOF 5
DOCKED: TER
DOCKED: ENDMDL
________________________________________________________________________________


    FINAL DOCKED STATE:
    ________________________


Run:   7 / 20
Time taken for this run:   0.036s

DOCKED: MODEL        7
DOCKED: USER    Run = 7
DOCKED: USER
DOCKED: USER    Estimated Free Energy of Binding    =  -8.92 kcal/mol  [=(1)+(2)+(3)-(4)]
DOCKED: USER
DOCKED: USER    (1) Final Intermolecular Energy     = -10.41 kcal/mol
DOCKED: USER        vdW + Hbond + desolv Energy     =  -9.33 kcal/mol
DOCKED: USER        Electrostatic Energy            =  -1.08 kcal/mol
DOCKED: USER        Moving Ligand-Fixed Receptor    = -10.41 kcal/mol
DOCKED: USER        Moving Ligand-Moving Receptor   =  +0.00 kcal/mol
DOCKED: USER    (2) Final Total Internal Energy     =  -0.98 kcal/mol
DOCKED: USER    (3) Torsional Free Energy           =  +1.49 kcal/mol
DOCKED: USER    (4) Unbound System's Energy         =  -0.98 kcal/mol
DOCKED: USER
DOCKED: USER
DOCKED: REMARK SMILES [NH-]C(=O)c1ccc2cc(C(=O)N3C[C@]4(CCN([C@H]5CCNC5)C4)c4ccccc43)[nH]c2c1
DOCKED: REMARK SMILES IDX 4 1 5 2 6 3 7 4 8 5 9 6 30 7 31 8 32 9 2 11 3 12 1 13 10 15
DOCKED: REMARK SMILES IDX 11 16 12 17 13 18 29 19 14 20 28 21 24 22 15 23 23 24 27 25
DOCKED: REMARK SMILES IDX 25 26 16 27 17 28 26 29 18 30 19 31 22 32 20 33 21 34
DOCKED: REMARK H PARENT 30 10 1 14 21 35
DOCKED: USER                              x       y       z     vdW  Elec       q    Type
DOCKED: USER                           _______ _______ _______ _____ _____    ______ ____
DOCKED: ROOT
DOCKED: ATOM      1  C   UNL     1     145.272  71.022 219.444 -0.27 +0.00    +0.001 A  
DOCKED: ATOM      2  C   UNL     1     145.743  72.364 219.415 -0.33 +0.01    +0.011 A  
DOCKED: ATOM      3  C   UNL     1     144.942  73.420 219.881 -0.45 -0.00    +0.011 A  
DOCKED: ATOM      4  C   UNL     1     143.679  73.110 220.375 -0.35 -0.00    +0.000 A  
DOCKED: ATOM      5  C   UNL     1     142.689  73.924 220.877 -0.22 -0.01    +0.042 A  
DOCKED: ATOM      6  C   UNL     1     141.648  73.061 221.211 -0.23 -0.01    +0.106 A  
DOCKED: ATOM      7  N   UNL     1     141.971  71.778 220.915 -0.08 +0.04    -0.350 N  
DOCKED: ATOM      8  C   UNL     1     143.213  71.824 220.410 -0.25 -0.01    +0.047 A  
DOCKED: ATOM      9  C   UNL     1     143.978  70.754 219.951 -0.23 -0.00    +0.036 A  
DOCKED: ATOM     10  H   UNL     1     141.367  70.931 221.011 +0.05 -0.02    +0.167 HD 
DOCKED: ENDROOT
DOCKED: BRANCH   1  11
DOCKED: ATOM     11  C   UNL     1     146.128  69.919 218.951 -0.29 +0.06    +0.080 C  
DOCKED: ATOM     12  O   UNL     1     146.350  68.912 219.677 -0.65 -0.19    -0.315 OA 
DOCKED: BRANCH  11  13
DOCKED: ATOM     13  N   UNL     1     146.710  69.979 217.650 +0.19 -0.68    -0.664 NA 
DOCKED: ATOM     14  H   UNL     1     147.747  69.971 217.524 -0.45 -0.25    -0.121 HD 
DOCKED: ENDBRANCH  11  13
DOCKED: ENDBRANCH   1  11
DOCKED: BRANCH   6  15
DOCKED: ATOM     15  C   UNL     1     140.348  73.483 221.762 -0.18 -0.03    +0.274 C  
DOCKED: ATOM     16  O   UNL     1     140.127  74.710 221.945 -0.74 +0.03    -0.267 OA 
DOCKED: BRANCH  15  17
DOCKED: ATOM     17  N   UNL     1     139.348  72.516 222.120 -0.13 +0.06    -0.306 N  
DOCKED: ATOM     18  C   UNL     1     139.663  71.233 222.757 -0.24 -0.02    +0.139 C  
DOCKED: ATOM     19  C   UNL     1     137.976  72.805 222.337 -0.11 -0.02    +0.048 A  
DOCKED: ATOM     20  C   UNL     1     138.327  70.736 223.415 -0.25 -0.01    +0.029 C  
DOCKED: ATOM     21  C   UNL     1     137.269  73.918 221.864 -0.15 -0.01    +0.026 A  
DOCKED: ATOM     22  C   UNL     1     137.352  71.821 223.060 -0.18 +0.00    -0.015 A  
DOCKED: ATOM     23  C   UNL     1     137.908  69.369 222.901 -0.20 -0.00    +0.030 C  
DOCKED: ATOM     24  C   UNL     1     138.465  70.517 224.927 -0.09 -0.02    +0.098 C  
DOCKED: ATOM     25  C   UNL     1     135.902  74.024 222.168 -0.12 -0.00    +0.002 A  
DOCKED: ATOM     26  C   UNL     1     135.991  71.908 223.373 -0.18 -0.00    +0.006 A  
DOCKED: ATOM     27  C   UNL     1     138.627  68.418 223.838 -0.26 -0.01    +0.086 C  
DOCKED: ATOM     28  N   UNL     1     138.724  69.080 225.155 -0.21 +0.03    -0.298 NA 
DOCKED: ATOM     29  C   UNL     1     135.266  73.023 222.924 -0.13 -0.00    +0.000 A  
DOCKED: BRANCH  28  30
DOCKED: ATOM     30  C   UNL     1     140.028  68.832 225.816 -0.47 -0.01    +0.071 C  
DOCKED: ATOM     31  C   UNL     1     140.235  69.735 227.018 -0.57 -0.01    +0.036 C  
DOCKED: ATOM     32  C   UNL     1     140.105  67.436 226.434 -0.58 -0.02    +0.100 C  
DOCKED: ATOM     33  C   UNL     1     141.118  68.927 227.952 -0.51 -0.02    +0.082 C  
DOCKED: ATOM     34  N   UNL     1     140.968  67.511 227.613 -0.15 +0.10    -0.315 NA 
DOCKED: ATOM     35  H   UNL     1     140.495  67.019 228.410 -0.33 -0.08    +0.122 HD 
DOCKED: ENDBRANCH  28  30
DOCKED: ENDBRANCH  15  17
DOCKED: ENDBRANCH   6  15
DOCKED: TORSDOF 5
DOCKED: TER
DOCKED: ENDMDL
________________________________________________________________________________


    FINAL DOCKED STATE:
    ________________________


Run:   8 / 20
Time taken for this run:   0.036s

DOCKED: MODEL        8
DOCKED: USER    Run = 8
DOCKED: USER
DOCKED: USER    Estimated Free Energy of Binding    =  -8.13 kcal/mol  [=(1)+(2)+(3)-(4)]
DOCKED: USER
DOCKED: USER    (1) Final Intermolecular Energy     =  -9.62 kcal/mol
DOCKED: USER        vdW + Hbond + desolv Energy     =  -9.75 kcal/mol
DOCKED: USER        Electrostatic Energy            =  +0.13 kcal/mol
DOCKED: USER        Moving Ligand-Fixed Receptor    =  -9.62 kcal/mol
DOCKED: USER        Moving Ligand-Moving Receptor   =  +0.00 kcal/mol
DOCKED: USER    (2) Final Total Internal Energy     =  -1.47 kcal/mol
DOCKED: USER    (3) Torsional Free Energy           =  +1.49 kcal/mol
DOCKED: USER    (4) Unbound System's Energy         =  -1.47 kcal/mol
DOCKED: USER
DOCKED: USER
DOCKED: REMARK SMILES [NH-]C(=O)c1ccc2cc(C(=O)N3C[C@]4(CCN([C@H]5CCNC5)C4)c4ccccc43)[nH]c2c1
DOCKED: REMARK SMILES IDX 4 1 5 2 6 3 7 4 8 5 9 6 30 7 31 8 32 9 2 11 3 12 1 13 10 15
DOCKED: REMARK SMILES IDX 11 16 12 17 13 18 29 19 14 20 28 21 24 22 15 23 23 24 27 25
DOCKED: REMARK SMILES IDX 25 26 16 27 17 28 26 29 18 30 19 31 22 32 20 33 21 34
DOCKED: REMARK H PARENT 30 10 1 14 21 35
DOCKED: USER                              x       y       z     vdW  Elec       q    Type
DOCKED: USER                           _______ _______ _______ _____ _____    ______ ____
DOCKED: ROOT
DOCKED: ATOM      1  C   UNL     1     133.380  74.353 226.366 -0.34 +0.00    +0.001 A  
DOCKED: ATOM      2  C   UNL     1     132.696  75.599 226.327 -0.29 -0.00    +0.011 A  
DOCKED: ATOM      3  C   UNL     1     133.162  76.654 225.524 -0.21 -0.00    +0.011 A  
DOCKED: ATOM      4  C   UNL     1     134.309  76.438 224.768 -0.24 -0.00    +0.000 A  
DOCKED: ATOM      5  C   UNL     1     134.991  77.276 223.916 -0.15 -0.01    +0.042 A  
DOCKED: ATOM      6  C   UNL     1     136.063  76.520 223.448 -0.18 -0.02    +0.106 A  
DOCKED: ATOM      7  N   UNL     1     136.055  75.280 223.995 -0.15 +0.09    -0.350 N  
DOCKED: ATOM      8  C   UNL     1     134.977  75.243 224.794 -0.33 -0.01    +0.047 A  
DOCKED: ATOM      9  C   UNL     1     134.547  74.179 225.583 -0.30 +0.00    +0.036 A  
DOCKED: ATOM     10  H   UNL     1     136.761  74.521 223.865 -0.39 -0.10    +0.167 HD 
DOCKED: ENDROOT
DOCKED: BRANCH   1  11
DOCKED: ATOM     11  C   UNL     1     132.875  73.250 227.215 -0.30 -0.00    +0.080 C  
DOCKED: ATOM     12  O   UNL     1     133.594  72.237 227.437 -0.48 +0.03    -0.315 OA 
DOCKED: BRANCH  11  13
DOCKED: ATOM     13  N   UNL     1     131.574  73.319 227.796 -0.02 +0.14    -0.664 NA 
DOCKED: ATOM     14  H   UNL     1     131.427  73.114 228.810 -0.51 +0.05    -0.121 HD 
DOCKED: ENDBRANCH  11  13
DOCKED: ENDBRANCH   1  11
DOCKED: BRANCH   6  15
DOCKED: ATOM     15  C   UNL     1     137.101  77.010 222.523 -0.15 -0.05    +0.274 C  
DOCKED: ATOM     16  O   UNL     1     137.479  76.271 221.576 -0.09 +0.06    -0.267 OA 
DOCKED: BRANCH  15  17
DOCKED: ATOM     17  N   UNL     1     137.705  78.301 222.707 -0.12 +0.05    -0.306 N  
DOCKED: ATOM     18  C   UNL     1     136.954  79.486 223.131 -0.16 -0.02    +0.139 C  
DOCKED: ATOM     19  C   UNL     1     139.085  78.526 222.949 -0.30 -0.01    +0.048 A  
DOCKED: ATOM     20  C   UNL     1     138.019  80.500 223.682 -0.34 -0.00    +0.029 C  
DOCKED: ATOM     21  C   UNL     1     140.142  77.656 222.654 -0.36 -0.01    +0.026 A  
DOCKED: ATOM     22  C   UNL     1     139.314  79.764 223.495 -0.41 +0.00    -0.015 A  
DOCKED: ATOM     23  C   UNL     1     137.979  81.830 222.947 -0.19 -0.00    +0.030 C  
DOCKED: ATOM     24  C   UNL     1     137.752  80.895 225.140 -0.29 -0.01    +0.098 C  
DOCKED: ATOM     25  C   UNL     1     141.452  78.064 222.953 -0.48 -0.00    +0.002 A  
DOCKED: ATOM     26  C   UNL     1     140.612  80.189 223.799 -0.45 -0.00    +0.006 A  
DOCKED: ATOM     27  C   UNL     1     136.946  82.618 223.727 -0.16 -0.01    +0.086 C  
DOCKED: ATOM     28  N   UNL     1     137.020  82.178 225.135 -0.17 +0.02    -0.298 NA 
DOCKED: ATOM     29  C   UNL     1     141.685  79.327 223.528 -0.60 -0.00    +0.000 A  
DOCKED: BRANCH  28  30
DOCKED: ATOM     30  C   UNL     1     135.681  82.075 225.764 -0.25 -0.01    +0.071 C  
DOCKED: ATOM     31  C   UNL     1     134.893  80.893 225.228 -0.18 -0.00    +0.036 C  
DOCKED: ATOM     32  C   UNL     1     135.768  81.763 227.257 -0.37 -0.02    +0.100 C  
DOCKED: ATOM     33  C   UNL     1     133.995  80.481 226.381 -0.16 -0.01    +0.082 C  
DOCKED: ATOM     34  N   UNL     1     134.593  80.973 227.624 -0.09 +0.10    -0.315 NA 
DOCKED: ATOM     35  H   UNL     1     134.903  80.153 228.200 -0.53 -0.13    +0.122 HD 
DOCKED: ENDBRANCH  28  30
DOCKED: ENDBRANCH  15  17
DOCKED: ENDBRANCH   6  15
DOCKED: TORSDOF 5
DOCKED: TER
DOCKED: ENDMDL
________________________________________________________________________________


    FINAL DOCKED STATE:
    ________________________


Run:   9 / 20
Time taken for this run:   0.036s

DOCKED: MODEL        9
DOCKED: USER    Run = 9
DOCKED: USER
DOCKED: USER    Estimated Free Energy of Binding    =  -7.96 kcal/mol  [=(1)+(2)+(3)-(4)]
DOCKED: USER
DOCKED: USER    (1) Final Intermolecular Energy     =  -9.45 kcal/mol
DOCKED: USER        vdW + Hbond + desolv Energy     =  -8.91 kcal/mol
DOCKED: USER        Electrostatic Energy            =  -0.54 kcal/mol
DOCKED: USER        Moving Ligand-Fixed Receptor    =  -9.45 kcal/mol
DOCKED: USER        Moving Ligand-Moving Receptor   =  +0.00 kcal/mol
DOCKED: USER    (2) Final Total Internal Energy     =  -1.55 kcal/mol
DOCKED: USER    (3) Torsional Free Energy           =  +1.49 kcal/mol
DOCKED: USER    (4) Unbound System's Energy         =  -1.55 kcal/mol
DOCKED: USER
DOCKED: USER
DOCKED: REMARK SMILES [NH-]C(=O)c1ccc2cc(C(=O)N3C[C@]4(CCN([C@H]5CCNC5)C4)c4ccccc43)[nH]c2c1
DOCKED: REMARK SMILES IDX 4 1 5 2 6 3 7 4 8 5 9 6 30 7 31 8 32 9 2 11 3 12 1 13 10 15
DOCKED: REMARK SMILES IDX 11 16 12 17 13 18 29 19 14 20 28 21 24 22 15 23 23 24 27 25
DOCKED: REMARK SMILES IDX 25 26 16 27 17 28 26 29 18 30 19 31 22 32 20 33 21 34
DOCKED: REMARK H PARENT 30 10 1 14 21 35
DOCKED: USER                              x       y       z     vdW  Elec       q    Type
DOCKED: USER                           _______ _______ _______ _____ _____    ______ ____
DOCKED: ROOT
DOCKED: ATOM      1  C   UNL     1     144.153  74.049 220.058 -0.42 -0.00    +0.001 A  
DOCKED: ATOM      2  C   UNL     1     144.083  75.295 219.377 -0.18 -0.01    +0.011 A  
DOCKED: ATOM      3  C   UNL     1     142.939  76.106 219.472 -0.36 -0.01    +0.011 A  
DOCKED: ATOM      4  C   UNL     1     141.884  75.652 220.256 -0.28 -0.00    +0.000 A  
DOCKED: ATOM      5  C   UNL     1     140.656  76.217 220.520 -0.20 -0.01    +0.042 A  
DOCKED: ATOM      6  C   UNL     1     140.016  75.311 221.362 -0.25 -0.02    +0.106 A  
DOCKED: ATOM      7  N   UNL     1     140.801  74.231 221.596 -0.17 +0.04    -0.350 N  
DOCKED: ATOM      8  C   UNL     1     141.938  74.456 220.918 -0.26 -0.01    +0.047 A  
DOCKED: ATOM      9  C   UNL     1     143.053  73.624 220.841 -0.26 -0.01    +0.036 A  
DOCKED: ATOM     10  H   UNL     1     140.562  73.377 222.146 +0.03 -0.00    +0.167 HD 
DOCKED: ENDROOT
DOCKED: BRANCH   1  11
DOCKED: ATOM     11  C   UNL     1     145.366  73.206 219.949 -0.46 +0.00    +0.080 C  
DOCKED: ATOM     12  O   UNL     1     145.849  72.650 220.973 -0.37 +0.03    -0.315 OA 
DOCKED: BRANCH  11  13
DOCKED: ATOM     13  N   UNL     1     146.001  73.009 218.687 -0.51 -0.53    -0.664 NA 
DOCKED: ATOM     14  H   UNL     1     146.549  73.776 218.236 -0.47 -0.06    -0.121 HD 
DOCKED: ENDBRANCH  11  13
DOCKED: ENDBRANCH   1  11
DOCKED: BRANCH   6  15
DOCKED: ATOM     15  C   UNL     1     138.650  75.471 221.889 -0.18 -0.06    +0.274 C  
DOCKED: ATOM     16  O   UNL     1     137.911  74.456 222.001 -0.15 +0.08    -0.267 OA 
DOCKED: BRANCH  15  17
DOCKED: ATOM     17  N   UNL     1     138.141  76.767 222.245 -0.15 +0.06    -0.306 N  
DOCKED: ATOM     18  C   UNL     1     138.987  77.848 222.759 -0.22 -0.02    +0.139 C  
DOCKED: ATOM     19  C   UNL     1     136.932  77.329 221.759 -0.13 -0.01    +0.048 A  
DOCKED: ATOM     20  C   UNL     1     138.177  79.175 222.539 -0.23 -0.00    +0.029 C  
DOCKED: ATOM     21  C   UNL     1     135.843  76.635 221.218 -0.06 -0.00    +0.026 A  
DOCKED: ATOM     22  C   UNL     1     136.902  78.691 221.911 -0.12 +0.00    -0.015 A  
DOCKED: ATOM     23  C   UNL     1     137.952  79.931 223.837 -0.28 -0.00    +0.030 C  
DOCKED: ATOM     24  C   UNL     1     138.934  80.186 221.668 -0.15 -0.02    +0.098 C  
DOCKED: ATOM     25  C   UNL     1     134.718  77.366 220.804 -0.03 -0.00    +0.002 A  
DOCKED: ATOM     26  C   UNL     1     135.790  79.438 221.506 -0.06 -0.00    +0.006 A  
DOCKED: ATOM     27  C   UNL     1     139.189  80.801 223.944 -0.29 -0.01    +0.086 C  
DOCKED: ATOM     28  N   UNL     1     139.613  81.140 222.570 -0.13 +0.04    -0.298 NA 
DOCKED: ATOM     29  C   UNL     1     134.693  78.765 220.945 -0.02 -0.00    +0.000 A  
DOCKED: BRANCH  28  30
DOCKED: ATOM     30  C   UNL     1     141.088  81.123 222.416 -0.41 -0.01    +0.071 C  
DOCKED: ATOM     31  C   UNL     1     141.798  81.170 223.756 -0.57 -0.00    +0.036 C  
DOCKED: ATOM     32  C   UNL     1     141.590  79.807 221.822 -0.39 -0.04    +0.100 C  
DOCKED: ATOM     33  C   UNL     1     143.100  80.425 223.522 -0.56 -0.02    +0.082 C  
DOCKED: ATOM     34  N   UNL     1     142.922  79.545 222.366 -0.23 +0.18    -0.315 NA 
DOCKED: ATOM     35  H   UNL     1     142.966  78.548 222.688 -0.41 -0.10    +0.122 HD 
DOCKED: ENDBRANCH  28  30
DOCKED: ENDBRANCH  15  17
DOCKED: ENDBRANCH   6  15
DOCKED: TORSDOF 5
DOCKED: TER
DOCKED: ENDMDL
________________________________________________________________________________


    FINAL DOCKED STATE:
    ________________________


Run:   10 / 20
Time taken for this run:   0.036s

DOCKED: MODEL        10
DOCKED: USER    Run = 10
DOCKED: USER
DOCKED: USER    Estimated Free Energy of Binding    =  -8.17 kcal/mol  [=(1)+(2)+(3)-(4)]
DOCKED: USER
DOCKED: USER    (1) Final Intermolecular Energy     =  -9.67 kcal/mol
DOCKED: USER        vdW + Hbond + desolv Energy     =  -9.78 kcal/mol
DOCKED: USER        Electrostatic Energy            =  +0.11 kcal/mol
DOCKED: USER        Moving Ligand-Fixed Receptor    =  -9.67 kcal/mol
DOCKED: USER        Moving Ligand-Moving Receptor   =  +0.00 kcal/mol
DOCKED: USER    (2) Final Total Internal Energy     =  -1.46 kcal/mol
DOCKED: USER    (3) Torsional Free Energy           =  +1.49 kcal/mol
DOCKED: USER    (4) Unbound System's Energy         =  -1.46 kcal/mol
DOCKED: USER
DOCKED: USER
DOCKED: REMARK SMILES [NH-]C(=O)c1ccc2cc(C(=O)N3C[C@]4(CCN([C@H]5CCNC5)C4)c4ccccc43)[nH]c2c1
DOCKED: REMARK SMILES IDX 4 1 5 2 6 3 7 4 8 5 9 6 30 7 31 8 32 9 2 11 3 12 1 13 10 15
DOCKED: REMARK SMILES IDX 11 16 12 17 13 18 29 19 14 20 28 21 24 22 15 23 23 24 27 25
DOCKED: REMARK SMILES IDX 25 26 16 27 17 28 26 29 18 30 19 31 22 32 20 33 21 34
DOCKED: REMARK H PARENT 30 10 1 14 21 35
DOCKED: USER                              x       y       z     vdW  Elec       q    Type
DOCKED: USER                           _______ _______ _______ _____ _____    ______ ____
DOCKED: ROOT
DOCKED: ATOM      1  C   UNL     1     133.339  74.404 226.338 -0.34 +0.00    +0.001 A  
DOCKED: ATOM      2  C   UNL     1     132.638  75.639 226.259 -0.28 -0.00    +0.011 A  
DOCKED: ATOM      3  C   UNL     1     133.114  76.689 225.456 -0.20 -0.00    +0.011 A  
DOCKED: ATOM      4  C   UNL     1     134.287  76.479 224.739 -0.23 -0.00    +0.000 A  
DOCKED: ATOM      5  C   UNL     1     134.983  77.315 223.895 -0.16 -0.01    +0.042 A  
DOCKED: ATOM      6  C   UNL     1     136.080  76.568 223.472 -0.17 -0.02    +0.106 A  
DOCKED: ATOM      7  N   UNL     1     136.072  75.336 224.037 -0.15 +0.09    -0.350 N  
DOCKED: ATOM      8  C   UNL     1     134.971  75.295 224.803 -0.33 -0.01    +0.047 A  
DOCKED: ATOM      9  C   UNL     1     134.532  74.236 225.594 -0.31 -0.00    +0.036 A  
DOCKED: ATOM     10  H   UNL     1     136.793  74.587 223.941 -0.37 -0.10    +0.167 HD 
DOCKED: ENDROOT
DOCKED: BRANCH   1  11
DOCKED: ATOM     11  C   UNL     1     132.825  73.306 227.188 -0.34 -0.00    +0.080 C  
DOCKED: ATOM     12  O   UNL     1     133.527  72.279 227.395 -0.48 +0.03    -0.315 OA 
DOCKED: BRANCH  11  13
DOCKED: ATOM     13  N   UNL     1     131.532  73.396 227.785 -0.02 +0.13    -0.664 NA 
DOCKED: ATOM     14  H   UNL     1     131.363  73.043 228.754 -0.51 +0.05    -0.121 HD 
DOCKED: ENDBRANCH  11  13
DOCKED: ENDBRANCH   1  11
DOCKED: BRANCH   6  15
DOCKED: ATOM     15  C   UNL     1     137.138  77.061 222.573 -0.15 -0.05    +0.274 C  
DOCKED: ATOM     16  O   UNL     1     137.563  76.310 221.654 -0.10 +0.06    -0.267 OA 
DOCKED: BRANCH  15  17
DOCKED: ATOM     17  N   UNL     1     137.710  78.367 222.749 -0.11 +0.05    -0.306 N  
DOCKED: ATOM     18  C   UNL     1     136.931  79.534 223.173 -0.16 -0.02    +0.139 C  
DOCKED: ATOM     19  C   UNL     1     139.085  78.628 222.984 -0.31 -0.01    +0.048 A  
DOCKED: ATOM     20  C   UNL     1     137.972  80.577 223.714 -0.34 -0.00    +0.029 C  
DOCKED: ATOM     21  C   UNL     1     140.162  77.785 222.687 -0.37 -0.01    +0.026 A  
DOCKED: ATOM     22  C   UNL     1     139.284  79.873 223.524 -0.41 +0.00    -0.015 A  
DOCKED: ATOM     23  C   UNL     1     137.895  81.902 222.976 -0.19 -0.00    +0.030 C  
DOCKED: ATOM     24  C   UNL     1     137.702  80.970 225.173 -0.31 -0.01    +0.098 C  
DOCKED: ATOM     25  C   UNL     1     141.463  78.227 222.978 -0.52 -0.00    +0.002 A  
DOCKED: ATOM     26  C   UNL     1     140.573  80.333 223.821 -0.44 -0.00    +0.006 A  
DOCKED: ATOM     27  C   UNL     1     136.845  82.667 223.757 -0.15 -0.01    +0.086 C  
DOCKED: ATOM     28  N   UNL     1     136.937  82.234 225.166 -0.17 +0.02    -0.298 NA 
DOCKED: ATOM     29  C   UNL     1     141.667  79.497 223.547 -0.60 -0.00    +0.000 A  
DOCKED: BRANCH  28  30
DOCKED: ATOM     30  C   UNL     1     135.604  82.099 225.802 -0.24 -0.01    +0.071 C  
DOCKED: ATOM     31  C   UNL     1     134.859  80.876 225.300 -0.18 -0.00    +0.036 C  
DOCKED: ATOM     32  C   UNL     1     135.706  81.829 227.303 -0.36 -0.02    +0.100 C  
DOCKED: ATOM     33  C   UNL     1     133.979  80.462 226.466 -0.16 -0.02    +0.082 C  
DOCKED: ATOM     34  N   UNL     1     134.561  81.007 227.694 -0.08 +0.10    -0.315 NA 
DOCKED: ATOM     35  H   UNL     1     134.902  80.214 228.290 -0.53 -0.13    +0.122 HD 
DOCKED: ENDBRANCH  28  30
DOCKED: ENDBRANCH  15  17
DOCKED: ENDBRANCH   6  15
DOCKED: TORSDOF 5
DOCKED: TER
DOCKED: ENDMDL
________________________________________________________________________________


    FINAL DOCKED STATE:
    ________________________


Run:   11 / 20
Time taken for this run:   0.036s

DOCKED: MODEL        11
DOCKED: USER    Run = 11
DOCKED: USER
DOCKED: USER    Estimated Free Energy of Binding    =  -8.57 kcal/mol  [=(1)+(2)+(3)-(4)]
DOCKED: USER
DOCKED: USER    (1) Final Intermolecular Energy     = -10.06 kcal/mol
DOCKED: USER        vdW + Hbond + desolv Energy     =  -9.22 kcal/mol
DOCKED: USER        Electrostatic Energy            =  -0.84 kcal/mol
DOCKED: USER        Moving Ligand-Fixed Receptor    = -10.06 kcal/mol
DOCKED: USER        Moving Ligand-Moving Receptor   =  +0.00 kcal/mol
DOCKED: USER    (2) Final Total Internal Energy     =  -1.15 kcal/mol
DOCKED: USER    (3) Torsional Free Energy           =  +1.49 kcal/mol
DOCKED: USER    (4) Unbound System's Energy         =  -1.15 kcal/mol
DOCKED: USER
DOCKED: USER
DOCKED: REMARK SMILES [NH-]C(=O)c1ccc2cc(C(=O)N3C[C@]4(CCN([C@H]5CCNC5)C4)c4ccccc43)[nH]c2c1
DOCKED: REMARK SMILES IDX 4 1 5 2 6 3 7 4 8 5 9 6 30 7 31 8 32 9 2 11 3 12 1 13 10 15
DOCKED: REMARK SMILES IDX 11 16 12 17 13 18 29 19 14 20 28 21 24 22 15 23 23 24 27 25
DOCKED: REMARK SMILES IDX 25 26 16 27 17 28 26 29 18 30 19 31 22 32 20 33 21 34
DOCKED: REMARK H PARENT 30 10 1 14 21 35
DOCKED: USER                              x       y       z     vdW  Elec       q    Type
DOCKED: USER                           _______ _______ _______ _____ _____    ______ ____
DOCKED: ROOT
DOCKED: ATOM      1  C   UNL     1     144.035  73.882 219.296 -0.30 -0.00    +0.001 A  
DOCKED: ATOM      2  C   UNL     1     143.918  74.906 218.317 -0.14 -0.01    +0.011 A  
DOCKED: ATOM      3  C   UNL     1     143.013  75.968 218.488 -0.28 -0.01    +0.011 A  
DOCKED: ATOM      4  C   UNL     1     142.243  75.986 219.646 -0.29 -0.00    +0.000 A  
DOCKED: ATOM      5  C   UNL     1     141.283  76.877 220.070 -0.22 -0.02    +0.042 A  
DOCKED: ATOM      6  C   UNL     1     140.850  76.384 221.298 -0.28 -0.04    +0.106 A  
DOCKED: ATOM      7  N   UNL     1     141.497  75.235 221.612 -0.14 +0.10    -0.350 N  
DOCKED: ATOM      8  C   UNL     1     142.346  75.008 220.598 -0.27 -0.02    +0.047 A  
DOCKED: ATOM      9  C   UNL     1     143.227  73.938 220.457 -0.32 -0.01    +0.036 A  
DOCKED: ATOM     10  H   UNL     1     141.341  74.622 222.443 +0.05 +0.02    +0.167 HD 
DOCKED: ENDROOT
DOCKED: BRANCH   1  11
DOCKED: ATOM     11  C   UNL     1     144.994  72.769 219.103 -0.28 +0.01    +0.080 C  
DOCKED: ATOM     12  O   UNL     1     144.664  71.587 219.392 -0.14 -0.04    -0.315 OA 
DOCKED: BRANCH  11  13
DOCKED: ATOM     13  N   UNL     1     146.299  73.019 218.585 -0.40 -0.80    -0.664 NA 
DOCKED: ATOM     14  H   UNL     1     146.724  73.973 218.638 -0.52 -0.04    -0.121 HD 
DOCKED: ENDBRANCH  11  13
DOCKED: ENDBRANCH   1  11
DOCKED: BRANCH   6  15
DOCKED: ATOM     15  C   UNL     1     139.794  76.992 222.125 -0.23 -0.07    +0.274 C  
DOCKED: ATOM     16  O   UNL     1     138.909  76.253 222.634 -0.28 +0.05    -0.267 OA 
DOCKED: BRANCH  15  17
DOCKED: ATOM     17  N   UNL     1     139.742  78.413 222.331 -0.14 +0.07    -0.306 N  
DOCKED: ATOM     18  C   UNL     1     138.499  79.140 222.606 -0.21 -0.02    +0.139 C  
DOCKED: ATOM     19  C   UNL     1     140.838  79.217 222.739 -0.42 -0.01    +0.048 A  
DOCKED: ATOM     20  C   UNL     1     138.928  80.507 223.246 -0.35 -0.00    +0.029 C  
DOCKED: ATOM     21  C   UNL     1     142.198  78.906 222.619 -0.46 -0.01    +0.026 A  
DOCKED: ATOM     22  C   UNL     1     140.426  80.419 223.257 -0.44 +0.00    -0.015 A  
DOCKED: ATOM     23  C   UNL     1     138.409  81.698 222.458 -0.20 -0.00    +0.030 C  
DOCKED: ATOM     24  C   UNL     1     138.323  80.717 224.641 -0.26 -0.01    +0.098 C  
DOCKED: ATOM     25  C   UNL     1     143.144  79.842 223.066 -0.58 -0.00    +0.002 A  
DOCKED: ATOM     26  C   UNL     1     141.354  81.365 223.708 -0.45 -0.00    +0.006 A  
DOCKED: ATOM     27  C   UNL     1     137.040  81.938 223.065 -0.16 -0.01    +0.086 C  
DOCKED: ATOM     28  N   UNL     1     137.111  81.548 224.488 -0.17 +0.03    -0.298 NA 
DOCKED: ATOM     29  C   UNL     1     142.722  81.067 223.613 -0.58 -0.00    +0.000 A  
DOCKED: BRANCH  28  30
DOCKED: ATOM     30  C   UNL     1     135.882  80.855 224.943 -0.22 -0.01    +0.071 C  
DOCKED: ATOM     31  C   UNL     1     135.490  81.264 226.352 -0.29 -0.01    +0.036 C  
DOCKED: ATOM     32  C   UNL     1     134.655  81.262 224.129 -0.09 -0.01    +0.100 C  
DOCKED: ATOM     33  C   UNL     1     133.979  81.121 226.382 -0.15 -0.01    +0.082 C  
DOCKED: ATOM     34  N   UNL     1     133.485  81.191 225.005 -0.02 +0.03    -0.315 NA 
DOCKED: ATOM     35  H   UNL     1     132.922  82.068 224.890 +0.01 -0.01    +0.122 HD 
DOCKED: ENDBRANCH  28  30
DOCKED: ENDBRANCH  15  17
DOCKED: ENDBRANCH   6  15
DOCKED: TORSDOF 5
DOCKED: TER
DOCKED: ENDMDL
________________________________________________________________________________


    FINAL DOCKED STATE:
    ________________________


Run:   12 / 20
Time taken for this run:   0.036s

DOCKED: MODEL        12
DOCKED: USER    Run = 12
DOCKED: USER
DOCKED: USER    Estimated Free Energy of Binding    =  -8.57 kcal/mol  [=(1)+(2)+(3)-(4)]
DOCKED: USER
DOCKED: USER    (1) Final Intermolecular Energy     = -10.06 kcal/mol
DOCKED: USER        vdW + Hbond + desolv Energy     =  -9.17 kcal/mol
DOCKED: USER        Electrostatic Energy            =  -0.90 kcal/mol
DOCKED: USER        Moving Ligand-Fixed Receptor    = -10.06 kcal/mol
DOCKED: USER        Moving Ligand-Moving Receptor   =  +0.00 kcal/mol
DOCKED: USER    (2) Final Total Internal Energy     =  -1.08 kcal/mol
DOCKED: USER    (3) Torsional Free Energy           =  +1.49 kcal/mol
DOCKED: USER    (4) Unbound System's Energy         =  -1.08 kcal/mol
DOCKED: USER
DOCKED: USER
DOCKED: REMARK SMILES [NH-]C(=O)c1ccc2cc(C(=O)N3C[C@]4(CCN([C@H]5CCNC5)C4)c4ccccc43)[nH]c2c1
DOCKED: REMARK SMILES IDX 4 1 5 2 6 3 7 4 8 5 9 6 30 7 31 8 32 9 2 11 3 12 1 13 10 15
DOCKED: REMARK SMILES IDX 11 16 12 17 13 18 29 19 14 20 28 21 24 22 15 23 23 24 27 25
DOCKED: REMARK SMILES IDX 25 26 16 27 17 28 26 29 18 30 19 31 22 32 20 33 21 34
DOCKED: REMARK H PARENT 30 10 1 14 21 35
DOCKED: USER                              x       y       z     vdW  Elec       q    Type
DOCKED: USER                           _______ _______ _______ _____ _____    ______ ____
DOCKED: ROOT
DOCKED: ATOM      1  C   UNL     1     144.312  74.078 219.628 -0.38 -0.00    +0.001 A  
DOCKED: ATOM      2  C   UNL     1     143.807  74.511 218.371 -0.20 -0.00    +0.011 A  
DOCKED: ATOM      3  C   UNL     1     142.645  75.298 218.293 -0.18 -0.00    +0.011 A  
DOCKED: ATOM      4  C   UNL     1     142.011  75.641 219.482 -0.23 -0.00    +0.000 A  
DOCKED: ATOM      5  C   UNL     1     140.869  76.377 219.708 -0.14 -0.02    +0.042 A  
DOCKED: ATOM      6  C   UNL     1     140.714  76.385 221.092 -0.25 -0.04    +0.106 A  
DOCKED: ATOM      7  N   UNL     1     141.701  75.676 221.693 +0.08 +0.15    -0.350 N  
DOCKED: ATOM      8  C   UNL     1     142.486  75.232 220.698 -0.17 -0.02    +0.047 A  
DOCKED: ATOM      9  C   UNL     1     143.630  74.446 220.812 -0.23 -0.01    +0.036 A  
DOCKED: ATOM     10  H   UNL     1     141.809  75.472 222.711 -0.32 -0.04    +0.167 HD 
DOCKED: ENDROOT
DOCKED: BRANCH   1  11
DOCKED: ATOM     11  C   UNL     1     145.538  73.250 219.695 -0.42 +0.01    +0.080 C  
DOCKED: ATOM     12  O   UNL     1     145.900  72.736 220.789 -0.40 +0.00    -0.315 OA 
DOCKED: BRANCH  11  13
DOCKED: ATOM     13  N   UNL     1     146.323  73.021 218.526 -0.37 -0.82    -0.664 NA 
DOCKED: ATOM     14  H   UNL     1     146.913  73.781 218.118 -0.39 -0.10    -0.121 HD 
DOCKED: ENDBRANCH  11  13
DOCKED: ENDBRANCH   1  11
DOCKED: BRANCH   6  15
DOCKED: ATOM     15  C   UNL     1     139.602  77.030 221.811 -0.20 -0.07    +0.274 C  
DOCKED: ATOM     16  O   UNL     1     138.604  76.338 222.148 -0.21 +0.06    -0.267 OA 
DOCKED: BRANCH  15  17
DOCKED: ATOM     17  N   UNL     1     139.626  78.437 222.103 -0.11 +0.07    -0.306 N  
DOCKED: ATOM     18  C   UNL     1     138.431  79.202 222.470 -0.20 -0.02    +0.139 C  
DOCKED: ATOM     19  C   UNL     1     140.774  79.163 222.514 -0.38 -0.01    +0.048 A  
DOCKED: ATOM     20  C   UNL     1     138.949  80.506 223.173 -0.34 -0.00    +0.029 C  
DOCKED: ATOM     21  C   UNL     1     142.112  78.798 222.322 -0.40 -0.01    +0.026 A  
DOCKED: ATOM     22  C   UNL     1     140.441  80.348 223.119 -0.43 +0.00    -0.015 A  
DOCKED: ATOM     23  C   UNL     1     138.459  81.766 222.478 -0.20 -0.00    +0.030 C  
DOCKED: ATOM     24  C   UNL     1     138.407  80.657 224.600 -0.27 -0.01    +0.098 C  
DOCKED: ATOM     25  C   UNL     1     143.118  79.660 222.786 -0.52 -0.00    +0.002 A  
DOCKED: ATOM     26  C   UNL     1     141.429  81.221 223.588 -0.53 -0.00    +0.006 A  
DOCKED: ATOM     27  C   UNL     1     137.127  82.030 223.152 -0.17 -0.01    +0.086 C  
DOCKED: ATOM     28  N   UNL     1     137.232  81.551 224.546 -0.18 +0.03    -0.298 NA 
DOCKED: ATOM     29  C   UNL     1     142.777  80.867 223.421 -0.63 -0.00    +0.000 A  
DOCKED: BRANCH  28  30
DOCKED: ATOM     30  C   UNL     1     135.988  80.888 225.008 -0.23 -0.01    +0.071 C  
DOCKED: ATOM     31  C   UNL     1     135.641  81.268 226.436 -0.31 -0.01    +0.036 C  
DOCKED: ATOM     32  C   UNL     1     134.759  81.363 224.232 -0.10 -0.01    +0.100 C  
DOCKED: ATOM     33  C   UNL     1     134.126  81.179 226.495 -0.16 -0.01    +0.082 C  
DOCKED: ATOM     34  N   UNL     1     133.607  81.307 225.132 -0.02 +0.03    -0.315 NA 
DOCKED: ATOM     35  H   UNL     1     133.074  82.207 225.055 +0.01 -0.01    +0.122 HD 
DOCKED: ENDBRANCH  28  30
DOCKED: ENDBRANCH  15  17
DOCKED: ENDBRANCH   6  15
DOCKED: TORSDOF 5
DOCKED: TER
DOCKED: ENDMDL
________________________________________________________________________________


    FINAL DOCKED STATE:
    ________________________


Run:   13 / 20
Time taken for this run:   0.036s

DOCKED: MODEL        13
DOCKED: USER    Run = 13
DOCKED: USER
DOCKED: USER    Estimated Free Energy of Binding    =  -8.47 kcal/mol  [=(1)+(2)+(3)-(4)]
DOCKED: USER
DOCKED: USER    (1) Final Intermolecular Energy     =  -9.96 kcal/mol
DOCKED: USER        vdW + Hbond + desolv Energy     =  -9.28 kcal/mol
DOCKED: USER        Electrostatic Energy            =  -0.68 kcal/mol
DOCKED: USER        Moving Ligand-Fixed Receptor    =  -9.96 kcal/mol
DOCKED: USER        Moving Ligand-Moving Receptor   =  +0.00 kcal/mol
DOCKED: USER    (2) Final Total Internal Energy     =  -1.32 kcal/mol
DOCKED: USER    (3) Torsional Free Energy           =  +1.49 kcal/mol
DOCKED: USER    (4) Unbound System's Energy         =  -1.32 kcal/mol
DOCKED: USER
DOCKED: USER
DOCKED: REMARK SMILES [NH-]C(=O)c1ccc2cc(C(=O)N3C[C@]4(CCN([C@H]5CCNC5)C4)c4ccccc43)[nH]c2c1
DOCKED: REMARK SMILES IDX 4 1 5 2 6 3 7 4 8 5 9 6 30 7 31 8 32 9 2 11 3 12 1 13 10 15
DOCKED: REMARK SMILES IDX 11 16 12 17 13 18 29 19 14 20 28 21 24 22 15 23 23 24 27 25
DOCKED: REMARK SMILES IDX 25 26 16 27 17 28 26 29 18 30 19 31 22 32 20 33 21 34
DOCKED: REMARK H PARENT 30 10 1 14 21 35
DOCKED: USER                              x       y       z     vdW  Elec       q    Type
DOCKED: USER                           _______ _______ _______ _____ _____    ______ ____
DOCKED: ROOT
DOCKED: ATOM      1  C   UNL     1     144.836  73.957 219.652 -0.37 -0.00    +0.001 A  
DOCKED: ATOM      2  C   UNL     1     144.414  73.691 218.321 -0.20 -0.00    +0.011 A  
DOCKED: ATOM      3  C   UNL     1     143.543  74.568 217.650 -0.16 -0.00    +0.011 A  
DOCKED: ATOM      4  C   UNL     1     143.115  75.703 218.329 -0.26 -0.00    +0.000 A  
DOCKED: ATOM      5  C   UNL     1     142.267  76.715 217.936 -0.20 -0.02    +0.042 A  
DOCKED: ATOM      6  C   UNL     1     142.204  77.577 219.029 -0.26 -0.07    +0.106 A  
DOCKED: ATOM      7  N   UNL     1     142.962  77.114 220.053 -0.07 +0.29    -0.350 N  
DOCKED: ATOM      8  C   UNL     1     143.514  75.974 219.609 -0.39 -0.03    +0.047 A  
DOCKED: ATOM      9  C   UNL     1     144.370  75.124 220.306 -0.26 -0.02    +0.036 A  
DOCKED: ATOM     10  H   UNL     1     143.064  77.526 221.007 -0.46 -0.21    +0.167 HD 
DOCKED: ENDROOT
DOCKED: BRANCH   1  11
DOCKED: ATOM     11  C   UNL     1     145.754  73.025 220.345 -0.53 +0.01    +0.080 C  
DOCKED: ATOM     12  O   UNL     1     146.054  73.210 221.556 -0.50 +0.06    -0.315 OA 
DOCKED: BRANCH  11  13
DOCKED: ATOM     13  N   UNL     1     146.308  71.906 219.655 -0.15 -0.63    -0.664 NA 
DOCKED: ATOM     14  H   UNL     1     146.785  71.136 220.176 -0.34 -0.09    -0.121 HD 
DOCKED: ENDBRANCH  11  13
DOCKED: ENDBRANCH   1  11
DOCKED: BRANCH   6  15
DOCKED: ATOM     15  C   UNL     1     141.386  78.800 219.091 -0.13 -0.14    +0.274 C  
DOCKED: ATOM     16  O   UNL     1     141.327  79.552 218.081 -0.10 +0.15    -0.267 OA 
DOCKED: BRANCH  15  17
DOCKED: ATOM     17  N   UNL     1     140.684  79.160 220.291 -0.06 +0.12    -0.306 N  
DOCKED: ATOM     18  C   UNL     1     139.339  78.672 220.612 -0.09 -0.04    +0.139 C  
DOCKED: ATOM     19  C   UNL     1     141.296  79.624 221.485 -0.34 -0.02    +0.048 A  
DOCKED: ATOM     20  C   UNL     1     139.163  78.872 222.159 -0.25 -0.01    +0.029 C  
DOCKED: ATOM     21  C   UNL     1     142.567  80.199 221.607 -0.30 -0.01    +0.026 A  
DOCKED: ATOM     22  C   UNL     1     140.470  79.488 222.570 -0.37 +0.00    -0.015 A  
DOCKED: ATOM     23  C   UNL     1     137.964  79.744 222.493 -0.21 -0.00    +0.030 C  
DOCKED: ATOM     24  C   UNL     1     138.858  77.557 222.889 -0.12 -0.02    +0.098 C  
DOCKED: ATOM     25  C   UNL     1     142.997  80.615 222.877 -0.58 -0.00    +0.002 A  
DOCKED: ATOM     26  C   UNL     1     140.879  79.897 223.845 -0.50 -0.00    +0.006 A  
DOCKED: ATOM     27  C   UNL     1     136.829  78.743 222.577 -0.15 -0.01    +0.086 C  
DOCKED: ATOM     28  N   UNL     1     137.394  77.470 223.069 -0.08 +0.05    -0.298 NA 
DOCKED: ATOM     29  C   UNL     1     142.156  80.461 223.994 -0.57 -0.00    +0.000 A  
DOCKED: BRANCH  28  30
DOCKED: ATOM     30  C   UNL     1     136.804  76.291 222.389 -0.20 -0.01    +0.071 C  
DOCKED: ATOM     31  C   UNL     1     137.857  75.464 221.675 -0.19 -0.01    +0.036 C  
DOCKED: ATOM     32  C   UNL     1     136.214  75.289 223.381 -0.20 -0.03    +0.100 C  
DOCKED: ATOM     33  C   UNL     1     137.312  74.047 221.706 -0.13 -0.02    +0.082 C  
DOCKED: ATOM     34  N   UNL     1     136.352  73.950 222.807 -0.07 +0.10    -0.315 NA 
DOCKED: ATOM     35  H   UNL     1     136.740  73.307 223.539 -0.47 -0.06    +0.122 HD 
DOCKED: ENDBRANCH  28  30
DOCKED: ENDBRANCH  15  17
DOCKED: ENDBRANCH   6  15
DOCKED: TORSDOF 5
DOCKED: TER
DOCKED: ENDMDL
________________________________________________________________________________


    FINAL DOCKED STATE:
    ________________________


Run:   14 / 20
Time taken for this run:   0.036s

DOCKED: MODEL        14
DOCKED: USER    Run = 14
DOCKED: USER
DOCKED: USER    Estimated Free Energy of Binding    =  -8.48 kcal/mol  [=(1)+(2)+(3)-(4)]
DOCKED: USER
DOCKED: USER    (1) Final Intermolecular Energy     =  -9.97 kcal/mol
DOCKED: USER        vdW + Hbond + desolv Energy     =  -9.11 kcal/mol
DOCKED: USER        Electrostatic Energy            =  -0.86 kcal/mol
DOCKED: USER        Moving Ligand-Fixed Receptor    =  -9.97 kcal/mol
DOCKED: USER        Moving Ligand-Moving Receptor   =  +0.00 kcal/mol
DOCKED: USER    (2) Final Total Internal Energy     =  -1.17 kcal/mol
DOCKED: USER    (3) Torsional Free Energy           =  +1.49 kcal/mol
DOCKED: USER    (4) Unbound System's Energy         =  -1.17 kcal/mol
DOCKED: USER
DOCKED: USER
DOCKED: REMARK SMILES [NH-]C(=O)c1ccc2cc(C(=O)N3C[C@]4(CCN([C@H]5CCNC5)C4)c4ccccc43)[nH]c2c1
DOCKED: REMARK SMILES IDX 4 1 5 2 6 3 7 4 8 5 9 6 30 7 31 8 32 9 2 11 3 12 1 13 10 15
DOCKED: REMARK SMILES IDX 11 16 12 17 13 18 29 19 14 20 28 21 24 22 15 23 23 24 27 25
DOCKED: REMARK SMILES IDX 25 26 16 27 17 28 26 29 18 30 19 31 22 32 20 33 21 34
DOCKED: REMARK H PARENT 30 10 1 14 21 35
DOCKED: USER                              x       y       z     vdW  Elec       q    Type
DOCKED: USER                           _______ _______ _______ _____ _____    ______ ____
DOCKED: ROOT
DOCKED: ATOM      1  C   UNL     1     145.460  71.403 219.356 -0.32 +0.00    +0.001 A  
DOCKED: ATOM      2  C   UNL     1     146.323  72.190 220.167 -0.24 +0.01    +0.011 A  
DOCKED: ATOM      3  C   UNL     1     145.966  73.496 220.545 -0.66 -0.00    +0.011 A  
DOCKED: ATOM      4  C   UNL     1     144.742  73.988 220.104 -0.49 -0.00    +0.000 A  
DOCKED: ATOM      5  C   UNL     1     144.146  75.213 220.304 -0.23 -0.02    +0.042 A  
DOCKED: ATOM      6  C   UNL     1     142.933  75.139 219.623 -0.28 -0.05    +0.106 A  
DOCKED: ATOM      7  N   UNL     1     142.792  73.933 219.019 -0.03 +0.09    -0.350 N  
DOCKED: ATOM      8  C   UNL     1     143.901  73.242 219.325 -0.23 -0.01    +0.047 A  
DOCKED: ATOM      9  C   UNL     1     144.226  71.948 218.926 -0.19 +0.00    +0.036 A  
DOCKED: ATOM     10  H   UNL     1     142.011  73.618 218.402 +0.04 -0.04    +0.167 HD 
DOCKED: ENDROOT
DOCKED: BRANCH   1  11
DOCKED: ATOM     11  C   UNL     1     145.849  70.028 218.966 -0.30 +0.05    +0.080 C  
DOCKED: ATOM     12  O   UNL     1     145.486  69.042 219.664 -0.60 -0.14    -0.315 OA 
DOCKED: BRANCH  11  13
DOCKED: ATOM     13  N   UNL     1     146.634  69.800 217.797 +0.09 -0.58    -0.664 NA 
DOCKED: ATOM     14  H   UNL     1     147.665  69.642 217.865 -0.54 -0.17    -0.121 HD 
DOCKED: ENDBRANCH  11  13
DOCKED: ENDBRANCH   1  11
DOCKED: BRANCH   6  15
DOCKED: ATOM     15  C   UNL     1     141.954  76.235 219.524 -0.16 -0.13    +0.274 C  
DOCKED: ATOM     16  O   UNL     1     141.597  76.639 218.385 -0.07 +0.12    -0.267 OA 
DOCKED: BRANCH  15  17
DOCKED: ATOM     17  N   UNL     1     141.428  76.866 220.703 -0.14 +0.15    -0.306 N  
DOCKED: ATOM     18  C   UNL     1     141.808  78.217 221.127 -0.26 -0.09    +0.139 C  
DOCKED: ATOM     19  C   UNL     1     140.209  76.516 221.339 -0.27 -0.01    +0.048 A  
DOCKED: ATOM     20  C   UNL     1     140.682  78.696 222.110 -0.36 -0.01    +0.029 C  
DOCKED: ATOM     21  C   UNL     1     139.525  75.300 221.230 -0.23 -0.01    +0.026 A  
DOCKED: ATOM     22  C   UNL     1     139.751  77.519 222.154 -0.33 +0.00    -0.015 A  
DOCKED: ATOM     23  C   UNL     1     141.233  79.070 223.476 -0.56 -0.01    +0.030 C  
DOCKED: ATOM     24  C   UNL     1     140.003  79.988 221.637 -0.20 -0.02    +0.098 C  
DOCKED: ATOM     25  C   UNL     1     138.334  75.131 221.954 -0.25 -0.00    +0.002 A  
DOCKED: ATOM     26  C   UNL     1     138.566  77.370 222.885 -0.23 -0.00    +0.006 A  
DOCKED: ATOM     27  C   UNL     1     141.595  80.532 223.308 -0.52 -0.02    +0.086 C  
DOCKED: ATOM     28  N   UNL     1     140.640  81.118 222.345 -0.17 +0.06    -0.298 NA 
DOCKED: ATOM     29  C   UNL     1     137.854  76.165 222.777 -0.28 -0.00    +0.000 A  
DOCKED: BRANCH  28  30
DOCKED: ATOM     30  C   UNL     1     141.292  82.077 221.419 -0.33 -0.01    +0.071 C  
DOCKED: ATOM     31  C   UNL     1     141.451  81.499 220.025 -0.28 -0.01    +0.036 C  
DOCKED: ATOM     32  C   UNL     1     140.428  83.313 221.168 -0.24 -0.02    +0.100 C  
DOCKED: ATOM     33  C   UNL     1     141.393  82.706 219.105 -0.18 -0.03    +0.082 C  
DOCKED: ATOM     34  N   UNL     1     140.700  83.786 219.810 -0.10 +0.07    -0.315 NA 
DOCKED: ATOM     35  H   UNL     1     139.788  83.974 219.329 +0.02 -0.03    +0.122 HD 
DOCKED: ENDBRANCH  28  30
DOCKED: ENDBRANCH  15  17
DOCKED: ENDBRANCH   6  15
DOCKED: TORSDOF 5
DOCKED: TER
DOCKED: ENDMDL
________________________________________________________________________________


    FINAL DOCKED STATE:
    ________________________


Run:   15 / 20
Time taken for this run:   0.036s

DOCKED: MODEL        15
DOCKED: USER    Run = 15
DOCKED: USER
DOCKED: USER    Estimated Free Energy of Binding    =  -8.66 kcal/mol  [=(1)+(2)+(3)-(4)]
DOCKED: USER
DOCKED: USER    (1) Final Intermolecular Energy     = -10.15 kcal/mol
DOCKED: USER        vdW + Hbond + desolv Energy     =  -9.18 kcal/mol
DOCKED: USER        Electrostatic Energy            =  -0.96 kcal/mol
DOCKED: USER        Moving Ligand-Fixed Receptor    = -10.15 kcal/mol
DOCKED: USER        Moving Ligand-Moving Receptor   =  +0.00 kcal/mol
DOCKED: USER    (2) Final Total Internal Energy     =  -0.99 kcal/mol
DOCKED: USER    (3) Torsional Free Energy           =  +1.49 kcal/mol
DOCKED: USER    (4) Unbound System's Energy         =  -0.99 kcal/mol
DOCKED: USER
DOCKED: USER
DOCKED: REMARK SMILES [NH-]C(=O)c1ccc2cc(C(=O)N3C[C@]4(CCN([C@H]5CCNC5)C4)c4ccccc43)[nH]c2c1
DOCKED: REMARK SMILES IDX 4 1 5 2 6 3 7 4 8 5 9 6 30 7 31 8 32 9 2 11 3 12 1 13 10 15
DOCKED: REMARK SMILES IDX 11 16 12 17 13 18 29 19 14 20 28 21 24 22 15 23 23 24 27 25
DOCKED: REMARK SMILES IDX 25 26 16 27 17 28 26 29 18 30 19 31 22 32 20 33 21 34
DOCKED: REMARK H PARENT 30 10 1 14 21 35
DOCKED: USER                              x       y       z     vdW  Elec       q    Type
DOCKED: USER                           _______ _______ _______ _____ _____    ______ ____
DOCKED: ROOT
DOCKED: ATOM      1  C   UNL     1     145.373  70.844 219.381 -0.28 +0.00    +0.001 A  
DOCKED: ATOM      2  C   UNL     1     145.852  72.180 219.284 -0.22 +0.01    +0.011 A  
DOCKED: ATOM      3  C   UNL     1     145.072  73.261 219.730 -0.43 -0.00    +0.011 A  
DOCKED: ATOM      4  C   UNL     1     143.822  72.980 220.272 -0.35 -0.00    +0.000 A  
DOCKED: ATOM      5  C   UNL     1     142.853  73.822 220.769 -0.26 -0.01    +0.042 A  
DOCKED: ATOM      6  C   UNL     1     141.816  72.981 221.168 -0.22 -0.01    +0.106 A  
DOCKED: ATOM      7  N   UNL     1     142.121  71.684 220.916 -0.07 +0.04    -0.350 N  
DOCKED: ATOM      8  C   UNL     1     143.349  71.700 220.373 -0.25 -0.01    +0.047 A  
DOCKED: ATOM      9  C   UNL     1     144.093  70.606 219.936 -0.22 +0.00    +0.036 A  
DOCKED: ATOM     10  H   UNL     1     141.516  70.847 221.064 +0.05 -0.02    +0.167 HD 
DOCKED: ENDROOT
DOCKED: BRANCH   1  11
DOCKED: ATOM     11  C   UNL     1     146.207  69.715 218.909 -0.31 +0.05    +0.080 C  
DOCKED: ATOM     12  O   UNL     1     146.417  68.722 219.657 -0.67 -0.16    -0.315 OA 
DOCKED: BRANCH  11  13
DOCKED: ATOM     13  N   UNL     1     146.781  69.735 217.603 +0.17 -0.58    -0.664 NA 
DOCKED: ATOM     14  H   UNL     1     147.786  69.986 217.462 -0.47 -0.25    -0.121 HD 
DOCKED: ENDBRANCH  11  13
DOCKED: ENDBRANCH   1  11
DOCKED: BRANCH   6  15
DOCKED: ATOM     15  C   UNL     1     140.536  73.434 221.739 -0.18 -0.03    +0.274 C  
DOCKED: ATOM     16  O   UNL     1     140.357  74.664 221.947 -0.75 +0.02    -0.267 OA 
DOCKED: BRANCH  15  17
DOCKED: ATOM     17  N   UNL     1     139.508  72.494 222.089 -0.14 +0.06    -0.306 N  
DOCKED: ATOM     18  C   UNL     1     139.764  71.274 222.861 -0.25 -0.02    +0.139 C  
DOCKED: ATOM     19  C   UNL     1     138.121  72.790 222.155 -0.14 -0.01    +0.048 A  
DOCKED: ATOM     20  C   UNL     1     138.374  70.825 223.437 -0.25 -0.01    +0.029 C  
DOCKED: ATOM     21  C   UNL     1     137.459  73.852 221.526 -0.13 -0.01    +0.026 A  
DOCKED: ATOM     22  C   UNL     1     137.435  71.867 222.903 -0.18 +0.00    -0.015 A  
DOCKED: ATOM     23  C   UNL     1     138.004  69.415 223.008 -0.21 -0.00    +0.030 C  
DOCKED: ATOM     24  C   UNL     1     138.375  70.740 224.969 +0.20 -0.02    +0.098 C  
DOCKED: ATOM     25  C   UNL     1     136.071  73.973 221.696 -0.10 -0.00    +0.002 A  
DOCKED: ATOM     26  C   UNL     1     136.051  71.970 223.083 -0.16 -0.00    +0.006 A  
DOCKED: ATOM     27  C   UNL     1     138.636  68.555 224.085 -0.29 -0.01    +0.086 C  
DOCKED: ATOM     28  N   UNL     1     138.613  69.330 225.343 -0.19 +0.03    -0.298 NA 
DOCKED: ATOM     29  C   UNL     1     135.369  73.036 222.475 -0.10 -0.00    +0.000 A  
DOCKED: BRANCH  28  30
DOCKED: ATOM     30  C   UNL     1     139.852  69.150 226.137 -0.47 -0.01    +0.071 C  
DOCKED: ATOM     31  C   UNL     1     139.591  69.263 227.628 -0.57 -0.01    +0.036 C  
DOCKED: ATOM     32  C   UNL     1     140.419  67.737 226.008 -0.48 -0.02    +0.100 C  
DOCKED: ATOM     33  C   UNL     1     140.642  68.373 228.266 -0.59 -0.02    +0.082 C  
DOCKED: ATOM     34  N   UNL     1     141.086  67.401 227.267 -0.24 +0.10    -0.315 NA 
DOCKED: ATOM     35  H   UNL     1     140.782  66.443 227.566 -0.45 -0.08    +0.122 HD 
DOCKED: ENDBRANCH  28  30
DOCKED: ENDBRANCH  15  17
DOCKED: ENDBRANCH   6  15
DOCKED: TORSDOF 5
DOCKED: TER
DOCKED: ENDMDL
________________________________________________________________________________


    FINAL DOCKED STATE:
    ________________________


Run:   16 / 20
Time taken for this run:   0.036s

DOCKED: MODEL        16
DOCKED: USER    Run = 16
DOCKED: USER
DOCKED: USER    Estimated Free Energy of Binding    =  -8.52 kcal/mol  [=(1)+(2)+(3)-(4)]
DOCKED: USER
DOCKED: USER    (1) Final Intermolecular Energy     = -10.01 kcal/mol
DOCKED: USER        vdW + Hbond + desolv Energy     =  -9.21 kcal/mol
DOCKED: USER        Electrostatic Energy            =  -0.80 kcal/mol
DOCKED: USER        Moving Ligand-Fixed Receptor    = -10.01 kcal/mol
DOCKED: USER        Moving Ligand-Moving Receptor   =  +0.00 kcal/mol
DOCKED: USER    (2) Final Total Internal Energy     =  -1.15 kcal/mol
DOCKED: USER    (3) Torsional Free Energy           =  +1.49 kcal/mol
DOCKED: USER    (4) Unbound System's Energy         =  -1.15 kcal/mol
DOCKED: USER
DOCKED: USER
DOCKED: REMARK SMILES [NH-]C(=O)c1ccc2cc(C(=O)N3C[C@]4(CCN([C@H]5CCNC5)C4)c4ccccc43)[nH]c2c1
DOCKED: REMARK SMILES IDX 4 1 5 2 6 3 7 4 8 5 9 6 30 7 31 8 32 9 2 11 3 12 1 13 10 15
DOCKED: REMARK SMILES IDX 11 16 12 17 13 18 29 19 14 20 28 21 24 22 15 23 23 24 27 25
DOCKED: REMARK SMILES IDX 25 26 16 27 17 28 26 29 18 30 19 31 22 32 20 33 21 34
DOCKED: REMARK H PARENT 30 10 1 14 21 35
DOCKED: USER                              x       y       z     vdW  Elec       q    Type
DOCKED: USER                           _______ _______ _______ _____ _____    ______ ____
DOCKED: ROOT
DOCKED: ATOM      1  C   UNL     1     143.996  73.862 219.287 -0.29 -0.00    +0.001 A  
DOCKED: ATOM      2  C   UNL     1     143.859  74.874 218.297 -0.17 -0.00    +0.011 A  
DOCKED: ATOM      3  C   UNL     1     142.954  75.935 218.469 -0.27 -0.01    +0.011 A  
DOCKED: ATOM      4  C   UNL     1     142.202  75.965 219.638 -0.28 -0.00    +0.000 A  
DOCKED: ATOM      5  C   UNL     1     141.246  76.859 220.066 -0.22 -0.02    +0.042 A  
DOCKED: ATOM      6  C   UNL     1     140.833  76.379 221.307 -0.28 -0.04    +0.106 A  
DOCKED: ATOM      7  N   UNL     1     141.490  75.237 221.626 -0.14 +0.10    -0.350 N  
DOCKED: ATOM      8  C   UNL     1     142.323  74.999 220.601 -0.27 -0.02    +0.047 A  
DOCKED: ATOM      9  C   UNL     1     143.205  73.930 220.460 -0.32 -0.01    +0.036 A  
DOCKED: ATOM     10  H   UNL     1     141.348  74.634 222.467 +0.05 +0.02    +0.167 HD 
DOCKED: ENDROOT
DOCKED: BRANCH   1  11
DOCKED: ATOM     11  C   UNL     1     144.955  72.751 219.093 -0.28 +0.01    +0.080 C  
DOCKED: ATOM     12  O   UNL     1     144.575  71.554 219.211 -0.12 -0.04    -0.315 OA 
DOCKED: BRANCH  11  13
DOCKED: ATOM     13  N   UNL     1     146.318  73.019 218.768 -0.41 -0.76    -0.664 NA 
DOCKED: ATOM     14  H   UNL     1     146.620  73.972 218.463 -0.52 -0.03    -0.121 HD 
DOCKED: ENDBRANCH  11  13
DOCKED: ENDBRANCH   1  11
DOCKED: BRANCH   6  15
DOCKED: ATOM     15  C   UNL     1     139.788  76.995 222.143 -0.23 -0.06    +0.274 C  
DOCKED: ATOM     16  O   UNL     1     138.905  76.261 222.662 -0.28 +0.05    -0.267 OA 
DOCKED: BRANCH  15  17
DOCKED: ATOM     17  N   UNL     1     139.745  78.416 222.346 -0.14 +0.07    -0.306 N  
DOCKED: ATOM     18  C   UNL     1     138.506  79.151 222.616 -0.22 -0.02    +0.139 C  
DOCKED: ATOM     19  C   UNL     1     140.845  79.214 222.755 -0.42 -0.01    +0.048 A  
DOCKED: ATOM     20  C   UNL     1     138.942  80.518 223.254 -0.35 -0.00    +0.029 C  
DOCKED: ATOM     21  C   UNL     1     142.203  78.894 222.639 -0.45 -0.01    +0.026 A  
DOCKED: ATOM     22  C   UNL     1     140.440  80.419 223.270 -0.44 +0.00    -0.015 A  
DOCKED: ATOM     23  C   UNL     1     138.433  81.710 222.463 -0.20 -0.00    +0.030 C  
DOCKED: ATOM     24  C   UNL     1     138.336  80.733 224.647 -0.25 -0.01    +0.098 C  
DOCKED: ATOM     25  C   UNL     1     143.154  79.824 223.087 -0.57 -0.00    +0.002 A  
DOCKED: ATOM     26  C   UNL     1     141.373  81.360 223.722 -0.46 -0.00    +0.006 A  
DOCKED: ATOM     27  C   UNL     1     137.065  81.960 223.065 -0.16 -0.01    +0.086 C  
DOCKED: ATOM     28  N   UNL     1     137.129  81.572 224.489 -0.17 +0.03    -0.298 NA 
DOCKED: ATOM     29  C   UNL     1     142.739  81.053 223.631 -0.59 -0.00    +0.000 A  
DOCKED: BRANCH  28  30
DOCKED: ATOM     30  C   UNL     1     135.894  80.888 224.943 -0.23 -0.01    +0.071 C  
DOCKED: ATOM     31  C   UNL     1     135.529  81.263 226.368 -0.29 -0.01    +0.036 C  
DOCKED: ATOM     32  C   UNL     1     134.663  81.340 224.158 -0.09 -0.01    +0.100 C  
DOCKED: ATOM     33  C   UNL     1     134.016  81.147 226.416 -0.15 -0.01    +0.082 C  
DOCKED: ATOM     34  N   UNL     1     133.505  81.264 225.049 -0.02 +0.03    -0.315 NA 
DOCKED: ATOM     35  H   UNL     1     132.956  82.154 224.967 +0.01 -0.01    +0.122 HD 
DOCKED: ENDBRANCH  28  30
DOCKED: ENDBRANCH  15  17
DOCKED: ENDBRANCH   6  15
DOCKED: TORSDOF 5
DOCKED: TER
DOCKED: ENDMDL
________________________________________________________________________________


    FINAL DOCKED STATE:
    ________________________


Run:   17 / 20
Time taken for this run:   0.036s

DOCKED: MODEL        17
DOCKED: USER    Run = 17
DOCKED: USER
DOCKED: USER    Estimated Free Energy of Binding    =  -8.12 kcal/mol  [=(1)+(2)+(3)-(4)]
DOCKED: USER
DOCKED: USER    (1) Final Intermolecular Energy     =  -9.61 kcal/mol
DOCKED: USER        vdW + Hbond + desolv Energy     =  -9.70 kcal/mol
DOCKED: USER        Electrostatic Energy            =  +0.09 kcal/mol
DOCKED: USER        Moving Ligand-Fixed Receptor    =  -9.61 kcal/mol
DOCKED: USER        Moving Ligand-Moving Receptor   =  +0.00 kcal/mol
DOCKED: USER    (2) Final Total Internal Energy     =  -1.43 kcal/mol
DOCKED: USER    (3) Torsional Free Energy           =  +1.49 kcal/mol
DOCKED: USER    (4) Unbound System's Energy         =  -1.43 kcal/mol
DOCKED: USER
DOCKED: USER
DOCKED: REMARK SMILES [NH-]C(=O)c1ccc2cc(C(=O)N3C[C@]4(CCN([C@H]5CCNC5)C4)c4ccccc43)[nH]c2c1
DOCKED: REMARK SMILES IDX 4 1 5 2 6 3 7 4 8 5 9 6 30 7 31 8 32 9 2 11 3 12 1 13 10 15
DOCKED: REMARK SMILES IDX 11 16 12 17 13 18 29 19 14 20 28 21 24 22 15 23 23 24 27 25
DOCKED: REMARK SMILES IDX 25 26 16 27 17 28 26 29 18 30 19 31 22 32 20 33 21 34
DOCKED: REMARK H PARENT 30 10 1 14 21 35
DOCKED: USER                              x       y       z     vdW  Elec       q    Type
DOCKED: USER                           _______ _______ _______ _____ _____    ______ ____
DOCKED: ROOT
DOCKED: ATOM      1  C   UNL     1     133.381  74.363 226.191 -0.34 +0.00    +0.001 A  
DOCKED: ATOM      2  C   UNL     1     132.715  75.617 226.118 -0.27 -0.00    +0.011 A  
DOCKED: ATOM      3  C   UNL     1     133.241  76.670 225.349 -0.20 -0.00    +0.011 A  
DOCKED: ATOM      4  C   UNL     1     134.428  76.443 224.661 -0.24 -0.00    +0.000 A  
DOCKED: ATOM      5  C   UNL     1     135.169  77.277 223.855 -0.15 -0.01    +0.042 A  
DOCKED: ATOM      6  C   UNL     1     136.258  76.510 223.448 -0.17 -0.02    +0.106 A  
DOCKED: ATOM      7  N   UNL     1     136.203  75.268 223.987 -0.13 +0.10    -0.350 N  
DOCKED: ATOM      8  C   UNL     1     135.079  75.241 224.721 -0.33 -0.01    +0.047 A  
DOCKED: ATOM      9  C   UNL     1     134.590  74.179 225.478 -0.31 -0.00    +0.036 A  
DOCKED: ATOM     10  H   UNL     1     136.906  74.502 223.896 -0.39 -0.12    +0.167 HD 
DOCKED: ENDROOT
DOCKED: BRANCH   1  11
DOCKED: ATOM     11  C   UNL     1     132.814  73.263 227.004 -0.35 -0.00    +0.080 C  
DOCKED: ATOM     12  O   UNL     1     133.366  72.129 227.013 -0.37 +0.03    -0.315 OA 
DOCKED: BRANCH  11  13
DOCKED: ATOM     13  N   UNL     1     131.641  73.471 227.788 -0.02 +0.13    -0.664 NA 
DOCKED: ATOM     14  H   UNL     1     131.709  73.756 228.791 -0.54 +0.04    -0.121 HD 
DOCKED: ENDBRANCH  11  13
DOCKED: ENDBRANCH   1  11
DOCKED: BRANCH   6  15
DOCKED: ATOM     15  C   UNL     1     137.354  76.992 222.589 -0.16 -0.05    +0.274 C  
DOCKED: ATOM     16  O   UNL     1     137.853  76.213 221.733 -0.12 +0.06    -0.267 OA 
DOCKED: BRANCH  15  17
DOCKED: ATOM     17  N   UNL     1     137.879  78.321 222.736 -0.12 +0.05    -0.306 N  
DOCKED: ATOM     18  C   UNL     1     137.059  79.470 223.129 -0.17 -0.02    +0.139 C  
DOCKED: ATOM     19  C   UNL     1     139.243  78.636 222.969 -0.31 -0.01    +0.048 A  
DOCKED: ATOM     20  C   UNL     1     138.060  80.561 223.650 -0.34 -0.00    +0.029 C  
DOCKED: ATOM     21  C   UNL     1     140.351  77.824 222.696 -0.39 -0.01    +0.026 A  
DOCKED: ATOM     22  C   UNL     1     139.397  79.899 223.480 -0.41 +0.00    -0.015 A  
DOCKED: ATOM     23  C   UNL     1     137.940  81.865 222.879 -0.19 -0.00    +0.030 C  
DOCKED: ATOM     24  C   UNL     1     137.771  80.979 225.098 -0.30 -0.01    +0.098 C  
DOCKED: ATOM     25  C   UNL     1     141.634  78.318 222.981 -0.48 -0.00    +0.002 A  
DOCKED: ATOM     26  C   UNL     1     140.667  80.411 223.771 -0.45 -0.00    +0.006 A  
DOCKED: ATOM     27  C   UNL     1     136.861  82.611 223.639 -0.16 -0.01    +0.086 C  
DOCKED: ATOM     28  N   UNL     1     136.962  82.215 225.058 -0.16 +0.02    -0.298 NA 
DOCKED: ATOM     29  C   UNL     1     141.791  79.607 223.521 -0.61 -0.00    +0.000 A  
DOCKED: BRANCH  28  30
DOCKED: ATOM     30  C   UNL     1     135.632  82.048 225.693 -0.24 -0.01    +0.071 C  
DOCKED: ATOM     31  C   UNL     1     134.918  80.806 225.193 -0.18 -0.00    +0.036 C  
DOCKED: ATOM     32  C   UNL     1     135.739  81.786 227.195 -0.36 -0.02    +0.100 C  
DOCKED: ATOM     33  C   UNL     1     134.047  80.373 226.359 -0.15 -0.02    +0.082 C  
DOCKED: ATOM     34  N   UNL     1     134.613  80.936 227.586 -0.09 +0.11    -0.315 NA 
DOCKED: ATOM     35  H   UNL     1     134.973  80.153 228.184 -0.53 -0.13    +0.122 HD 
DOCKED: ENDBRANCH  28  30
DOCKED: ENDBRANCH  15  17
DOCKED: ENDBRANCH   6  15
DOCKED: TORSDOF 5
DOCKED: TER
DOCKED: ENDMDL
________________________________________________________________________________


    FINAL DOCKED STATE:
    ________________________


Run:   18 / 20
Time taken for this run:   0.036s

DOCKED: MODEL        18
DOCKED: USER    Run = 18
DOCKED: USER
DOCKED: USER    Estimated Free Energy of Binding    =  -8.48 kcal/mol  [=(1)+(2)+(3)-(4)]
DOCKED: USER
DOCKED: USER    (1) Final Intermolecular Energy     =  -9.97 kcal/mol
DOCKED: USER        vdW + Hbond + desolv Energy     =  -9.26 kcal/mol
DOCKED: USER        Electrostatic Energy            =  -0.71 kcal/mol
DOCKED: USER        Moving Ligand-Fixed Receptor    =  -9.97 kcal/mol
DOCKED: USER        Moving Ligand-Moving Receptor   =  +0.00 kcal/mol
DOCKED: USER    (2) Final Total Internal Energy     =  -1.32 kcal/mol
DOCKED: USER    (3) Torsional Free Energy           =  +1.49 kcal/mol
DOCKED: USER    (4) Unbound System's Energy         =  -1.32 kcal/mol
DOCKED: USER
DOCKED: USER
DOCKED: REMARK SMILES [NH-]C(=O)c1ccc2cc(C(=O)N3C[C@]4(CCN([C@H]5CCNC5)C4)c4ccccc43)[nH]c2c1
DOCKED: REMARK SMILES IDX 4 1 5 2 6 3 7 4 8 5 9 6 30 7 31 8 32 9 2 11 3 12 1 13 10 15
DOCKED: REMARK SMILES IDX 11 16 12 17 13 18 29 19 14 20 28 21 24 22 15 23 23 24 27 25
DOCKED: REMARK SMILES IDX 25 26 16 27 17 28 26 29 18 30 19 31 22 32 20 33 21 34
DOCKED: REMARK H PARENT 30 10 1 14 21 35
DOCKED: USER                              x       y       z     vdW  Elec       q    Type
DOCKED: USER                           _______ _______ _______ _____ _____    ______ ____
DOCKED: ROOT
DOCKED: ATOM      1  C   UNL     1     144.808  73.979 219.614 -0.36 -0.00    +0.001 A  
DOCKED: ATOM      2  C   UNL     1     144.417  73.744 218.267 -0.20 -0.00    +0.011 A  
DOCKED: ATOM      3  C   UNL     1     143.563  74.636 217.596 -0.16 -0.00    +0.011 A  
DOCKED: ATOM      4  C   UNL     1     143.119  75.756 218.290 -0.26 -0.00    +0.000 A  
DOCKED: ATOM      5  C   UNL     1     142.281  76.777 217.901 -0.20 -0.02    +0.042 A  
DOCKED: ATOM      6  C   UNL     1     142.192  77.613 219.011 -0.25 -0.07    +0.106 A  
DOCKED: ATOM      7  N   UNL     1     142.925  77.127 220.042 -0.09 +0.29    -0.350 N  
DOCKED: ATOM      8  C   UNL     1     143.488  75.997 219.586 -0.38 -0.03    +0.047 A  
DOCKED: ATOM      9  C   UNL     1     144.326  75.131 220.283 -0.27 -0.02    +0.036 A  
DOCKED: ATOM     10  H   UNL     1     143.003  77.517 221.007 -0.46 -0.20    +0.167 HD 
DOCKED: ENDROOT
DOCKED: BRANCH   1  11
DOCKED: ATOM     11  C   UNL     1     145.709  73.031 220.307 -0.52 +0.01    +0.080 C  
DOCKED: ATOM     12  O   UNL     1     145.956  73.170 221.536 -0.49 +0.06    -0.315 OA 
DOCKED: BRANCH  11  13
DOCKED: ATOM     13  N   UNL     1     146.306  71.947 219.597 -0.15 -0.66    -0.664 NA 
DOCKED: ATOM     14  H   UNL     1     146.687  71.117 220.105 -0.34 -0.09    -0.121 HD 
DOCKED: ENDBRANCH  11  13
DOCKED: ENDBRANCH   1  11
DOCKED: BRANCH   6  15
DOCKED: ATOM     15  C   UNL     1     141.372  78.835 219.081 -0.13 -0.14    +0.274 C  
DOCKED: ATOM     16  O   UNL     1     141.313  79.595 218.077 -0.10 +0.15    -0.267 OA 
DOCKED: BRANCH  15  17
DOCKED: ATOM     17  N   UNL     1     140.669  79.187 220.284 -0.06 +0.12    -0.306 N  
DOCKED: ATOM     18  C   UNL     1     139.329  78.688 220.605 -0.09 -0.04    +0.139 C  
DOCKED: ATOM     19  C   UNL     1     141.280  79.650 221.478 -0.34 -0.02    +0.048 A  
DOCKED: ATOM     20  C   UNL     1     139.153  78.881 222.153 -0.25 -0.01    +0.029 C  
DOCKED: ATOM     21  C   UNL     1     142.546  80.234 221.601 -0.31 -0.01    +0.026 A  
DOCKED: ATOM     22  C   UNL     1     140.456  79.504 222.565 -0.37 +0.00    -0.015 A  
DOCKED: ATOM     23  C   UNL     1     137.948  79.742 222.492 -0.21 -0.00    +0.030 C  
DOCKED: ATOM     24  C   UNL     1     138.859  77.561 222.879 -0.13 -0.02    +0.098 C  
DOCKED: ATOM     25  C   UNL     1     142.975  80.649 222.871 -0.57 -0.00    +0.002 A  
DOCKED: ATOM     26  C   UNL     1     140.864  79.913 223.840 -0.50 -0.00    +0.006 A  
DOCKED: ATOM     27  C   UNL     1     136.820  78.733 222.573 -0.15 -0.01    +0.086 C  
DOCKED: ATOM     28  N   UNL     1     137.395  77.462 223.060 -0.08 +0.05    -0.298 NA 
DOCKED: ATOM     29  C   UNL     1     142.137  80.485 223.989 -0.57 -0.00    +0.000 A  
DOCKED: BRANCH  28  30
DOCKED: ATOM     30  C   UNL     1     136.813  76.282 222.377 -0.20 -0.01    +0.071 C  
DOCKED: ATOM     31  C   UNL     1     137.871  75.464 221.659 -0.19 -0.01    +0.036 C  
DOCKED: ATOM     32  C   UNL     1     136.231  75.272 223.366 -0.19 -0.03    +0.100 C  
DOCKED: ATOM     33  C   UNL     1     137.336  74.043 221.686 -0.13 -0.02    +0.082 C  
DOCKED: ATOM     34  N   UNL     1     136.378  73.936 222.788 -0.07 +0.10    -0.315 NA 
DOCKED: ATOM     35  H   UNL     1     136.770  73.294 223.518 -0.47 -0.06    +0.122 HD 
DOCKED: ENDBRANCH  28  30
DOCKED: ENDBRANCH  15  17
DOCKED: ENDBRANCH   6  15
DOCKED: TORSDOF 5
DOCKED: TER
DOCKED: ENDMDL
________________________________________________________________________________


    FINAL DOCKED STATE:
    ________________________


Run:   19 / 20
Time taken for this run:   0.036s

DOCKED: MODEL        19
DOCKED: USER    Run = 19
DOCKED: USER
DOCKED: USER    Estimated Free Energy of Binding    =  -8.42 kcal/mol  [=(1)+(2)+(3)-(4)]
DOCKED: USER
DOCKED: USER    (1) Final Intermolecular Energy     =  -9.91 kcal/mol
DOCKED: USER        vdW + Hbond + desolv Energy     =  -9.09 kcal/mol
DOCKED: USER        Electrostatic Energy            =  -0.82 kcal/mol
DOCKED: USER        Moving Ligand-Fixed Receptor    =  -9.91 kcal/mol
DOCKED: USER        Moving Ligand-Moving Receptor   =  +0.00 kcal/mol
DOCKED: USER    (2) Final Total Internal Energy     =  -1.19 kcal/mol
DOCKED: USER    (3) Torsional Free Energy           =  +1.49 kcal/mol
DOCKED: USER    (4) Unbound System's Energy         =  -1.19 kcal/mol
DOCKED: USER
DOCKED: USER
DOCKED: REMARK SMILES [NH-]C(=O)c1ccc2cc(C(=O)N3C[C@]4(CCN([C@H]5CCNC5)C4)c4ccccc43)[nH]c2c1
DOCKED: REMARK SMILES IDX 4 1 5 2 6 3 7 4 8 5 9 6 30 7 31 8 32 9 2 11 3 12 1 13 10 15
DOCKED: REMARK SMILES IDX 11 16 12 17 13 18 29 19 14 20 28 21 24 22 15 23 23 24 27 25
DOCKED: REMARK SMILES IDX 25 26 16 27 17 28 26 29 18 30 19 31 22 32 20 33 21 34
DOCKED: REMARK H PARENT 30 10 1 14 21 35
DOCKED: USER                              x       y       z     vdW  Elec       q    Type
DOCKED: USER                           _______ _______ _______ _____ _____    ______ ____
DOCKED: ROOT
DOCKED: ATOM      1  C   UNL     1     144.122  73.919 219.517 -0.34 -0.00    +0.001 A  
DOCKED: ATOM      2  C   UNL     1     143.981  74.873 218.473 -0.14 -0.01    +0.011 A  
DOCKED: ATOM      3  C   UNL     1     143.017  75.894 218.552 -0.28 -0.01    +0.011 A  
DOCKED: ATOM      4  C   UNL     1     142.212  75.940 219.685 -0.29 -0.00    +0.000 A  
DOCKED: ATOM      5  C   UNL     1     141.194  76.803 220.025 -0.21 -0.02    +0.042 A  
DOCKED: ATOM      6  C   UNL     1     140.750  76.363 221.270 -0.28 -0.04    +0.106 A  
DOCKED: ATOM      7  N   UNL     1     141.447  75.272 221.674 -0.15 +0.10    -0.350 N  
DOCKED: ATOM      8  C   UNL     1     142.337  75.030 220.699 -0.25 -0.02    +0.047 A  
DOCKED: ATOM      9  C   UNL     1     143.277  74.002 220.650 -0.30 -0.01    +0.036 A  
DOCKED: ATOM     10  H   UNL     1     141.298  74.705 222.537 +0.06 +0.03    +0.167 HD 
DOCKED: ENDROOT
DOCKED: BRANCH   1  11
DOCKED: ATOM     11  C   UNL     1     145.143  72.851 219.420 -0.34 +0.01    +0.080 C  
DOCKED: ATOM     12  O   UNL     1     145.010  71.782 220.077 -0.20 -0.01    -0.315 OA 
DOCKED: BRANCH  11  13
DOCKED: ATOM     13  N   UNL     1     146.286  73.015 218.583 -0.40 -0.79    -0.664 NA 
DOCKED: ATOM     14  H   UNL     1     146.862  73.886 218.625 -0.49 -0.07    -0.121 HD 
DOCKED: ENDBRANCH  11  13
DOCKED: ENDBRANCH   1  11
DOCKED: BRANCH   6  15
DOCKED: ATOM     15  C   UNL     1     139.639  76.963 222.029 -0.22 -0.06    +0.274 C  
DOCKED: ATOM     16  O   UNL     1     138.700  76.224 222.431 -0.25 +0.06    -0.267 OA 
DOCKED: BRANCH  15  17
DOCKED: ATOM     17  N   UNL     1     139.597  78.376 222.286 -0.13 +0.07    -0.306 N  
DOCKED: ATOM     18  C   UNL     1     138.358  79.101 222.584 -0.21 -0.02    +0.139 C  
DOCKED: ATOM     19  C   UNL     1     140.697  79.157 222.725 -0.40 -0.01    +0.048 A  
DOCKED: ATOM     20  C   UNL     1     138.795  80.441 223.274 -0.35 -0.00    +0.029 C  
DOCKED: ATOM     21  C   UNL     1     142.055  78.840 222.597 -0.45 -0.01    +0.026 A  
DOCKED: ATOM     22  C   UNL     1     140.293  80.341 223.286 -0.43 +0.00    -0.015 A  
DOCKED: ATOM     23  C   UNL     1     138.286  81.664 222.528 -0.20 -0.00    +0.030 C  
DOCKED: ATOM     24  C   UNL     1     138.188  80.604 224.674 -0.27 -0.01    +0.098 C  
DOCKED: ATOM     25  C   UNL     1     143.006  79.752 223.080 -0.61 -0.00    +0.002 A  
DOCKED: ATOM     26  C   UNL     1     141.226  81.264 223.773 -0.47 -0.00    +0.006 A  
DOCKED: ATOM     27  C   UNL     1     136.918  81.891 223.140 -0.16 -0.01    +0.086 C  
DOCKED: ATOM     28  N   UNL     1     136.982  81.449 224.548 -0.17 +0.03    -0.298 NA 
DOCKED: ATOM     29  C   UNL     1     142.592  80.960 223.670 -0.65 -0.00    +0.000 A  
DOCKED: BRANCH  28  30
DOCKED: ATOM     30  C   UNL     1     135.747  80.749 224.976 -0.19 -0.01    +0.071 C  
DOCKED: ATOM     31  C   UNL     1     134.571  81.700 225.101 -0.12 -0.00    +0.036 C  
DOCKED: ATOM     32  C   UNL     1     135.255  79.754 223.924 -0.13 -0.01    +0.100 C  
DOCKED: ATOM     33  C   UNL     1     133.355  80.844 224.794 -0.06 -0.01    +0.082 C  
DOCKED: ATOM     34  N   UNL     1     133.796  79.687 224.012 -0.03 +0.04    -0.315 NA 
DOCKED: ATOM     35  H   UNL     1     133.396  79.759 223.045 +0.01 -0.01    +0.122 HD 
DOCKED: ENDBRANCH  28  30
DOCKED: ENDBRANCH  15  17
DOCKED: ENDBRANCH   6  15
DOCKED: TORSDOF 5
DOCKED: TER
DOCKED: ENDMDL
________________________________________________________________________________


    FINAL DOCKED STATE:
    ________________________


Run:   20 / 20
Time taken for this run:   0.036s

DOCKED: MODEL        20
DOCKED: USER    Run = 20
DOCKED: USER
DOCKED: USER    Estimated Free Energy of Binding    =  -8.49 kcal/mol  [=(1)+(2)+(3)-(4)]
DOCKED: USER
DOCKED: USER    (1) Final Intermolecular Energy     =  -9.98 kcal/mol
DOCKED: USER        vdW + Hbond + desolv Energy     =  -9.13 kcal/mol
DOCKED: USER        Electrostatic Energy            =  -0.85 kcal/mol
DOCKED: USER        Moving Ligand-Fixed Receptor    =  -9.98 kcal/mol
DOCKED: USER        Moving Ligand-Moving Receptor   =  +0.00 kcal/mol
DOCKED: USER    (2) Final Total Internal Energy     =  -1.10 kcal/mol
DOCKED: USER    (3) Torsional Free Energy           =  +1.49 kcal/mol
DOCKED: USER    (4) Unbound System's Energy         =  -1.10 kcal/mol
DOCKED: USER
DOCKED: USER
DOCKED: REMARK SMILES [NH-]C(=O)c1ccc2cc(C(=O)N3C[C@]4(CCN([C@H]5CCNC5)C4)c4ccccc43)[nH]c2c1
DOCKED: REMARK SMILES IDX 4 1 5 2 6 3 7 4 8 5 9 6 30 7 31 8 32 9 2 11 3 12 1 13 10 15
DOCKED: REMARK SMILES IDX 11 16 12 17 13 18 29 19 14 20 28 21 24 22 15 23 23 24 27 25
DOCKED: REMARK SMILES IDX 25 26 16 27 17 28 26 29 18 30 19 31 22 32 20 33 21 34
DOCKED: REMARK H PARENT 30 10 1 14 21 35
DOCKED: USER                              x       y       z     vdW  Elec       q    Type
DOCKED: USER                           _______ _______ _______ _____ _____    ______ ____
DOCKED: ROOT
DOCKED: ATOM      1  C   UNL     1     144.451  73.249 220.459 -0.46 -0.00    +0.001 A  
DOCKED: ATOM      2  C   UNL     1     143.857  71.983 220.714 -0.32 -0.00    +0.011 A  
DOCKED: ATOM      3  C   UNL     1     142.497  71.880 221.054 -0.22 -0.00    +0.011 A  
DOCKED: ATOM      4  C   UNL     1     141.755  73.053 221.129 -0.27 -0.00    +0.000 A  
DOCKED: ATOM      5  C   UNL     1     140.430  73.256 221.446 -0.26 -0.01    +0.042 A  
DOCKED: ATOM      6  C   UNL     1     140.248  74.635 221.365 -0.25 -0.02    +0.106 A  
DOCKED: ATOM      7  N   UNL     1     141.405  75.256 221.030 -0.15 +0.11    -0.350 N  
DOCKED: ATOM      8  C   UNL     1     142.313  74.279 220.886 -0.24 -0.01    +0.047 A  
DOCKED: ATOM      9  C   UNL     1     143.658  74.418 220.552 -0.35 -0.01    +0.036 A  
DOCKED: ATOM     10  H   UNL     1     141.576  76.283 220.947 -0.05 -0.08    +0.167 HD 
DOCKED: ENDROOT
DOCKED: BRANCH   1  11
DOCKED: ATOM     11  C   UNL     1     145.885  73.343 220.100 -0.52 +0.01    +0.080 C  
DOCKED: ATOM     12  O   UNL     1     146.735  73.700 220.961 -0.49 -0.02    -0.315 OA 
DOCKED: BRANCH  11  13
DOCKED: ATOM     13  N   UNL     1     146.323  73.028 218.779 -0.41 -0.75    -0.664 NA 
DOCKED: ATOM     14  H   UNL     1     146.743  73.761 218.164 -0.43 -0.08    -0.121 HD 
DOCKED: ENDBRANCH  11  13
DOCKED: ENDBRANCH   1  11
DOCKED: BRANCH   6  15
DOCKED: ATOM     15  C   UNL     1     138.985  75.336 221.654 -0.18 -0.06    +0.274 C  
DOCKED: ATOM     16  O   UNL     1     137.895  74.808 221.304 -0.09 +0.06    -0.267 OA 
DOCKED: BRANCH  15  17
DOCKED: ATOM     17  N   UNL     1     138.982  76.621 222.298 -0.18 +0.06    -0.306 N  
DOCKED: ATOM     18  C   UNL     1     140.082  77.581 222.177 -0.30 -0.04    +0.139 C  
DOCKED: ATOM     19  C   UNL     1     137.821  77.312 222.730 -0.26 -0.01    +0.048 A  
DOCKED: ATOM     20  C   UNL     1     139.486  78.977 222.579 -0.32 -0.01    +0.029 C  
DOCKED: ATOM     21  C   UNL     1     136.564  76.756 223.000 -0.22 -0.00    +0.026 A  
DOCKED: ATOM     22  C   UNL     1     138.059  78.651 222.911 -0.24 +0.00    -0.015 A  
DOCKED: ATOM     23  C   UNL     1     140.237  79.610 223.739 -0.44 -0.00    +0.030 C  
DOCKED: ATOM     24  C   UNL     1     139.624  80.017 221.460 -0.16 -0.02    +0.098 C  
DOCKED: ATOM     25  C   UNL     1     135.534  77.602 223.439 -0.17 -0.00    +0.002 A  
DOCKED: ATOM     26  C   UNL     1     137.045  79.511 223.348 -0.21 -0.00    +0.006 A  
DOCKED: ATOM     27  C   UNL     1     141.348  80.375 223.048 -0.48 -0.02    +0.086 C  
DOCKED: ATOM     28  N   UNL     1     140.831  80.824 221.739 -0.15 +0.07    -0.298 NA 
DOCKED: ATOM     29  C   UNL     1     135.774  78.978 223.609 -0.14 -0.00    +0.000 A  
DOCKED: BRANCH  28  30
DOCKED: ATOM     30  C   UNL     1     141.849  80.720 220.665 -0.30 -0.03    +0.071 C  
DOCKED: ATOM     31  C   UNL     1     141.820  79.362 219.987 -0.27 -0.02    +0.036 C  
DOCKED: ATOM     32  C   UNL     1     141.564  81.673 219.505 -0.21 -0.04    +0.100 C  
DOCKED: ATOM     33  C   UNL     1     142.288  79.636 218.569 -0.28 -0.06    +0.082 C  
DOCKED: ATOM     34  N   UNL     1     142.057  81.051 218.277 -0.16 +0.20    -0.315 NA 
DOCKED: ATOM     35  H   UNL     1     141.317  81.129 217.538 +0.03 -0.07    +0.122 HD 
DOCKED: ENDBRANCH  28  30
DOCKED: ENDBRANCH  15  17
DOCKED: ENDBRANCH   6  15
DOCKED: TORSDOF 5
DOCKED: TER
DOCKED: ENDMDL
________________________________________________________________________________


    CLUSTERING HISTOGRAM
    ____________________


________________________________________________________________________________
     |           |     |           |     |
Clus | Lowest    | Run | Mean      | Num | Histogram
-ter | Binding   |     | Binding   | in  |
Rank | Energy    |     | Energy    | Clus|    5    10   15   20   25   30   35
_____|___________|_____|___________|_____|____:____|____:____|____:____|____:___
   1 |     -8.92 |   7 |     -8.71 |   3 |###
   2 |     -8.57 |  12 |     -8.52 |   4 |####
   3 |     -8.49 |  20 |     -8.23 |   5 |#####
   4 |     -8.48 |  18 |     -8.48 |   2 |##
   5 |     -8.48 |  14 |     -8.48 |   1 |#
   6 |     -8.17 |  10 |     -8.09 |   5 |#####
_____|___________|_____|___________|_____|______________________________________


    RMSD TABLE
    __________


_______________________________________________________________________
     |      |      |           |         |                 |
Rank | Sub- | Run  | Binding   | Cluster | Reference       | Grep
     | Rank |      | Energy    | RMSD    | RMSD            | Pattern
_____|______|______|___________|_________|_________________|___________
   1      1      7       -8.92      0.00    271.51           RANKING
   1      2     15       -8.66      0.39    271.47           RANKING
   1      3      3       -8.56      0.52    271.27           RANKING
   2      1     12       -8.57      0.00    272.88           RANKING
   2      2     11       -8.57      0.56    272.83           RANKING
   2      3     16       -8.52      0.58    272.83           RANKING
   2      4     19       -8.42      0.88    272.66           RANKING
   3      1     20       -8.49      0.00    272.07           RANKING
   3      2      5       -8.47      0.21    272.12           RANKING
   3      3      4       -8.46      0.19    272.13           RANKING
   3      4      9       -7.96      1.67    272.14           RANKING
   3      5      2       -7.77      1.91    271.99           RANKING
   4      1     18       -8.48      0.00    272.00           RANKING
   4      2     13       -8.47      0.05    272.02           RANKING
   5      1     14       -8.48      0.00    271.98           RANKING
   6      1     10       -8.17      0.00    272.97           RANKING
   6      2      6       -8.17      0.04    272.95           RANKING
   6      3      8       -8.13      0.10    272.95           RANKING
   6      4     17       -8.12      0.22    272.96           RANKING
   6      5      1       -7.87      0.70    272.92           RANKING

Run time 0.673 sec
Idle time 0.000 sec
