AutoDock-GPU version: v1.6

**********************************************************
**    AutoDock-GPU AUTODOCKTOOLS-COMPATIBLE DLG FILE    **
**********************************************************


    DOCKING PARAMETERS
    ________________________


Ligand file:                               /home/a/REINVENT4/ReinventStudies/scoringData/graph-dock-34dfml/graph-DockGPU/node-autodockgpu/inputs/VHXSVHVNRGGTDL-UPLQUKELNA-M.pdbqt
Grid fld file:                             /home/a/REINVENT4/ReinventStudies/mols/Rad51/maps/rad51_receptor.maps.fld

Random seed:                               42
Number of runs:                            20
Number of energy evaluations:              2542121
Number of generations:                     42000
Size of population:                        150
Rate of crossover:                         80.000000%
Tournament selection probability limit:    60.000000%
Rate of mutation:                          2.000000%
Maximal allowed delta movement:            +/- 6.000000A
Maximal allowed delta angle:               +/- 90.000000

Rate of local search:                      100.000000%
Maximal number of local search iterations: 300
Rho lower bound:                           0.010000
Spread of local search delta movement:     2.000000A
Spread of local search delta angle:        74.999999
Limit of consecutive successes/failures:   4

Handle symmetry during clustering:         YES
RMSD tolerance:                            2.000000A

Program call in command line was:          /home/a/REINVENT4/ReinventStudies/adgpu-v1.6_linux_x64_cuda12_128wi --filelist batch.txt --heuristics 1 --nrun 20 --psize 150 --lsit 300 --seed 42 --heurmax 12000000 


    GRID PARAMETERS
    ________________________


Receptor name:                             rad51_receptor
Number of grid points (x, y, z):           53, 53, 53
Grid center (x, y, z):                     139.950000, 75.640000, 221.970000A
Grid size (x, y, z):                       19.500000, 19.500000, 19.500000A
Grid spacing:                              0.375000A


    LIGAND PARAMETERS
    ________________________


Ligand name:                               /home/a/REINVENT4/ReinventStudies/scoringData/graph-dock-34dfml/graph-DockGPU/node-autodockgpu/inputs/VHXSVHVNRGGTDL-UPLQUKELNA-M
Number of atoms:                           27
Number of rotatable bonds:                 10
Number of atom types:                      6


    DUMMY DATA (only for ADT-compatibility)
    ________________________


DPF> outlev 1
DPF> ga_run 20
DPF> fld /home/a/REINVENT4/ReinventStudies/mols/Rad51/maps/rad51_receptor.maps.fld
DPF> move /home/a/REINVENT4/ReinventStudies/scoringData/graph-dock-34dfml/graph-DockGPU/node-autodockgpu/inputs/VHXSVHVNRGGTDL-UPLQUKELNA-M.pdbqt


    COUNTER STATES
    ________________________


Number of energy evaluations performed:    2046697
Number of generations used:                105


    INPUT LIGAND PDBQT FILE:
    ________________________


INPUT-LIGAND-PDBQT: REMARK SMILES O=C(CCCOc1ccc(Cl)cc1Cl)[N-]/N=C\c1cccc(C(F)(F)F)c1
INPUT-LIGAND-PDBQT: REMARK SMILES IDX 2 1 1 2 15 3 16 4 17 5 18 6 19 7 27 8 20 9 22 10 21 11 23 12
INPUT-LIGAND-PDBQT: REMARK SMILES IDX 24 13 25 14 26 15 3 16 4 17 5 18 6 19 7 20 8 21 13 22 9 23
INPUT-LIGAND-PDBQT: REMARK SMILES IDX 12 24 10 25 14 26 11 27
INPUT-LIGAND-PDBQT: REMARK H PARENT
INPUT-LIGAND-PDBQT: ROOT
INPUT-LIGAND-PDBQT: ATOM      1  C   UNL     1       1.689  -1.535   0.736  1.00  0.00     0.068 C 
INPUT-LIGAND-PDBQT: ATOM      2  O   UNL     1       2.322  -2.419   1.376  1.00  0.00    -0.319 OA
INPUT-LIGAND-PDBQT: ENDROOT
INPUT-LIGAND-PDBQT: BRANCH   1   3
INPUT-LIGAND-PDBQT: ATOM      3  N   UNL     1       2.180  -1.069  -0.519  1.00  0.00    -0.545 NA
INPUT-LIGAND-PDBQT: BRANCH   3   4
INPUT-LIGAND-PDBQT: ATOM      4  N   UNL     1       3.368  -1.569  -1.072  1.00  0.00    -0.372 NA
INPUT-LIGAND-PDBQT: BRANCH   4   5
INPUT-LIGAND-PDBQT: ATOM      5  C   UNL     1       3.878  -1.110  -2.176  1.00  0.00     0.094 C 
INPUT-LIGAND-PDBQT: BRANCH   5   6
INPUT-LIGAND-PDBQT: ATOM      6  C   UNL     1       3.291   0.009  -2.950  1.00  0.00    -0.009 A 
INPUT-LIGAND-PDBQT: ATOM      7  C   UNL     1       3.318  -0.047  -4.349  1.00  0.00     0.009 A 
INPUT-LIGAND-PDBQT: ATOM      8  C   UNL     1       2.784   1.162  -2.320  1.00  0.00     0.022 A 
INPUT-LIGAND-PDBQT: ATOM      9  C   UNL     1       2.786   0.996  -5.110  1.00  0.00     0.001 A 
INPUT-LIGAND-PDBQT: ATOM     10  C   UNL     1       2.262   2.223  -3.080  1.00  0.00     0.056 A 
INPUT-LIGAND-PDBQT: ATOM     11  C   UNL     1       2.243   2.118  -4.482  1.00  0.00     0.013 A 
INPUT-LIGAND-PDBQT: BRANCH  10  12
INPUT-LIGAND-PDBQT: ATOM     12  C   UNL     1       1.706   3.435  -2.374  1.00  0.00     0.416 C 
INPUT-LIGAND-PDBQT: ATOM     13  F   UNL     1       0.552   3.082  -1.700  1.00  0.00    -0.166 F 
INPUT-LIGAND-PDBQT: ATOM     14  F   UNL     1       2.634   3.907  -1.461  1.00  0.00    -0.166 F 
INPUT-LIGAND-PDBQT: ATOM     15  F   UNL     1       1.408   4.456  -3.261  1.00  0.00    -0.166 F 
INPUT-LIGAND-PDBQT: ENDBRANCH  10  12
INPUT-LIGAND-PDBQT: ENDBRANCH   5   6
INPUT-LIGAND-PDBQT: ENDBRANCH   4   5
INPUT-LIGAND-PDBQT: ENDBRANCH   3   4
INPUT-LIGAND-PDBQT: ENDBRANCH   1   3
INPUT-LIGAND-PDBQT: BRANCH   1  16
INPUT-LIGAND-PDBQT: ATOM     16  C   UNL     1       0.461  -0.904   1.321  1.00  0.00     0.060 C 
INPUT-LIGAND-PDBQT: BRANCH  16  17
INPUT-LIGAND-PDBQT: ATOM     17  C   UNL     1      -0.512  -1.950   1.878  1.00  0.00     0.048 C 
INPUT-LIGAND-PDBQT: BRANCH  17  18
INPUT-LIGAND-PDBQT: ATOM     18  C   UNL     1      -1.758  -1.317   2.515  1.00  0.00     0.230 C 
INPUT-LIGAND-PDBQT: BRANCH  18  19
INPUT-LIGAND-PDBQT: ATOM     19  O   UNL     1      -2.690  -0.884   1.521  1.00  0.00    -0.492 OA
INPUT-LIGAND-PDBQT: BRANCH  19  20
INPUT-LIGAND-PDBQT: ATOM     20  C   UNL     1      -2.684   0.349   0.845  1.00  0.00     0.137 A 
INPUT-LIGAND-PDBQT: ATOM     21  C   UNL     1      -1.926   1.455   1.285  1.00  0.00     0.049 A 
INPUT-LIGAND-PDBQT: ATOM     22  C   UNL     1      -3.464   0.476  -0.315  1.00  0.00     0.084 A 
INPUT-LIGAND-PDBQT: ATOM     23  C   UNL     1      -1.927   2.646   0.552  1.00  0.00     0.024 A 
INPUT-LIGAND-PDBQT: ATOM     24  C   UNL     1      -3.459   1.671  -1.043  1.00  0.00     0.045 A 
INPUT-LIGAND-PDBQT: ATOM     25  C   UNL     1      -2.686   2.753  -0.614  1.00  0.00     0.042 A 
INPUT-LIGAND-PDBQT: ATOM     26  Cl  UNL     1      -4.445  -0.869  -0.879  1.00  0.00    -0.080 Cl
INPUT-LIGAND-PDBQT: ATOM     27  Cl  UNL     1      -2.672   4.243  -1.538  1.00  0.00    -0.084 Cl
INPUT-LIGAND-PDBQT: ENDBRANCH  19  20
INPUT-LIGAND-PDBQT: ENDBRANCH  18  19
INPUT-LIGAND-PDBQT: ENDBRANCH  17  18
INPUT-LIGAND-PDBQT: ENDBRANCH  16  17
INPUT-LIGAND-PDBQT: ENDBRANCH   1  16
INPUT-LIGAND-PDBQT: TORSDOF 10


    FINAL DOCKED STATE:
    ________________________


Run:   1 / 20
Time taken for this run:   0.083s

DOCKED: MODEL        1
DOCKED: USER    Run = 1
DOCKED: USER
DOCKED: USER    Estimated Free Energy of Binding    =  -6.24 kcal/mol  [=(1)+(2)+(3)-(4)]
DOCKED: USER
DOCKED: USER    (1) Final Intermolecular Energy     =  -9.22 kcal/mol
DOCKED: USER        vdW + Hbond + desolv Energy     =  -9.42 kcal/mol
DOCKED: USER        Electrostatic Energy            =  +0.20 kcal/mol
DOCKED: USER        Moving Ligand-Fixed Receptor    =  -9.22 kcal/mol
DOCKED: USER        Moving Ligand-Moving Receptor   =  +0.00 kcal/mol
DOCKED: USER    (2) Final Total Internal Energy     =  -0.66 kcal/mol
DOCKED: USER    (3) Torsional Free Energy           =  +2.98 kcal/mol
DOCKED: USER    (4) Unbound System's Energy         =  -0.66 kcal/mol
DOCKED: USER
DOCKED: USER
DOCKED: REMARK SMILES O=C(CCCOc1ccc(Cl)cc1Cl)[N-]/N=C\c1cccc(C(F)(F)F)c1
DOCKED: REMARK SMILES IDX 2 1 1 2 15 3 16 4 17 5 18 6 19 7 27 8 20 9 22 10 21 11 23 12
DOCKED: REMARK SMILES IDX 24 13 25 14 26 15 3 16 4 17 5 18 6 19 7 20 8 21 13 22 9 23
DOCKED: REMARK SMILES IDX 12 24 10 25 14 26 11 27
DOCKED: REMARK H PARENT
DOCKED: USER                              x       y       z     vdW  Elec       q    Type
DOCKED: USER                           _______ _______ _______ _____ _____    ______ ____
DOCKED: ROOT
DOCKED: ATOM      1  C   UNL     1     138.229  72.776 221.668 -0.14 -0.02    +0.068 C  
DOCKED: ATOM      2  O   UNL     1     137.660  71.748 221.208 -0.03 +0.06    -0.319 OA 
DOCKED: ENDROOT
DOCKED: BRANCH   1   3
DOCKED: ATOM      3  N   UNL     1     139.478  72.661 222.347 -0.16 +0.11    -0.545 NA 
DOCKED: BRANCH   3   4
DOCKED: ATOM      4  N   UNL     1     139.611  71.886 223.508 -0.17 +0.09    -0.372 NA 
DOCKED: BRANCH   4   5
DOCKED: ATOM      5  C   UNL     1     140.710  71.839 224.200 -0.20 -0.01    +0.094 C  
DOCKED: BRANCH   5   6
DOCKED: ATOM      6  C   UNL     1     140.783  71.343 225.595 -0.59 +0.00    -0.009 A  
DOCKED: ATOM      7  C   UNL     1     141.058  72.252 226.624 -0.60 -0.00    +0.009 A  
DOCKED: ATOM      8  C   UNL     1     140.667  69.973 225.903 -0.51 -0.00    +0.022 A  
DOCKED: ATOM      9  C   UNL     1     141.147  71.817 227.948 -0.82 -0.00    +0.001 A  
DOCKED: ATOM     10  C   UNL     1     140.772  69.526 227.231 -0.54 -0.01    +0.056 A  
DOCKED: ATOM     11  C   UNL     1     140.987  70.465 228.256 -0.58 -0.00    +0.013 A  
DOCKED: BRANCH  10  12
DOCKED: ATOM     12  C   UNL     1     140.622  68.055 227.531 -0.27 -0.11    +0.416 C  
DOCKED: ATOM     13  F   UNL     1     141.442  67.331 226.687 -0.19 +0.05    -0.166 F  
DOCKED: ATOM     14  F   UNL     1     140.993  67.808 228.842 -0.22 +0.05    -0.166 F  
DOCKED: ATOM     15  F   UNL     1     139.316  67.626 227.359 -0.18 +0.03    -0.166 F  
DOCKED: ENDBRANCH  10  12
DOCKED: ENDBRANCH   5   6
DOCKED: ENDBRANCH   4   5
DOCKED: ENDBRANCH   3   4
DOCKED: ENDBRANCH   1   3
DOCKED: BRANCH   1  16
DOCKED: ATOM     16  C   UNL     1     137.565  74.118 221.581 -0.14 -0.02    +0.060 C  
DOCKED: BRANCH  16  17
DOCKED: ATOM     17  C   UNL     1     138.514  75.255 221.976 -0.24 -0.01    +0.048 C  
DOCKED: BRANCH  17  18
DOCKED: ATOM     18  C   UNL     1     137.821  76.338 222.815 -0.18 -0.05    +0.230 C  
DOCKED: BRANCH  18  19
DOCKED: ATOM     19  O   UNL     1     138.188  77.650 222.381 -0.08 +0.09    -0.492 OA 
DOCKED: BRANCH  19  20
DOCKED: ATOM     20  C   UNL     1     139.338  78.367 222.756 -0.26 -0.03    +0.137 A  
DOCKED: ATOM     21  C   UNL     1     140.644  77.864 222.569 -0.41 -0.02    +0.049 A  
DOCKED: ATOM     22  C   UNL     1     139.173  79.634 223.336 -0.34 -0.01    +0.084 A  
DOCKED: ATOM     23  C   UNL     1     141.754  78.637 222.925 -0.52 -0.01    +0.024 A  
DOCKED: ATOM     24  C   UNL     1     140.289  80.401 223.688 -0.41 -0.01    +0.045 A  
DOCKED: ATOM     25  C   UNL     1     141.579  79.906 223.477 -0.55 -0.01    +0.042 A  
DOCKED: ATOM     26  Cl  UNL     1     137.563  80.283 223.612 -0.36 +0.01    -0.080 Cl 
DOCKED: ATOM     27  Cl  UNL     1     142.974  80.877 223.907 -0.72 +0.02    -0.084 Cl 
DOCKED: ENDBRANCH  19  20
DOCKED: ENDBRANCH  18  19
DOCKED: ENDBRANCH  17  18
DOCKED: ENDBRANCH  16  17
DOCKED: ENDBRANCH   1  16
DOCKED: TORSDOF 10
DOCKED: TER
DOCKED: ENDMDL
________________________________________________________________________________


    FINAL DOCKED STATE:
    ________________________


Run:   2 / 20
Time taken for this run:   0.083s

DOCKED: MODEL        2
DOCKED: USER    Run = 2
DOCKED: USER
DOCKED: USER    Estimated Free Energy of Binding    =  -6.51 kcal/mol  [=(1)+(2)+(3)-(4)]
DOCKED: USER
DOCKED: USER    (1) Final Intermolecular Energy     =  -9.50 kcal/mol
DOCKED: USER        vdW + Hbond + desolv Energy     =  -9.60 kcal/mol
DOCKED: USER        Electrostatic Energy            =  +0.10 kcal/mol
DOCKED: USER        Moving Ligand-Fixed Receptor    =  -9.50 kcal/mol
DOCKED: USER        Moving Ligand-Moving Receptor   =  +0.00 kcal/mol
DOCKED: USER    (2) Final Total Internal Energy     =  -0.80 kcal/mol
DOCKED: USER    (3) Torsional Free Energy           =  +2.98 kcal/mol
DOCKED: USER    (4) Unbound System's Energy         =  -0.80 kcal/mol
DOCKED: USER
DOCKED: USER
DOCKED: REMARK SMILES O=C(CCCOc1ccc(Cl)cc1Cl)[N-]/N=C\c1cccc(C(F)(F)F)c1
DOCKED: REMARK SMILES IDX 2 1 1 2 15 3 16 4 17 5 18 6 19 7 27 8 20 9 22 10 21 11 23 12
DOCKED: REMARK SMILES IDX 24 13 25 14 26 15 3 16 4 17 5 18 6 19 7 20 8 21 13 22 9 23
DOCKED: REMARK SMILES IDX 12 24 10 25 14 26 11 27
DOCKED: REMARK H PARENT
DOCKED: USER                              x       y       z     vdW  Elec       q    Type
DOCKED: USER                           _______ _______ _______ _____ _____    ______ ____
DOCKED: ROOT
DOCKED: ATOM      1  C   UNL     1     139.885  75.307 221.869 -0.29 -0.01    +0.068 C  
DOCKED: ATOM      2  O   UNL     1     138.633  75.352 221.723 -0.16 +0.08    -0.319 OA 
DOCKED: ENDROOT
DOCKED: BRANCH   1   3
DOCKED: ATOM      3  N   UNL     1     140.531  74.065 222.141 -0.57 -0.01    -0.545 NA 
DOCKED: BRANCH   3   4
DOCKED: ATOM      4  N   UNL     1     139.839  72.991 222.719 -0.54 +0.05    -0.372 NA 
DOCKED: BRANCH   4   5
DOCKED: ATOM      5  C   UNL     1     140.395  71.839 222.952 -0.30 -0.01    +0.094 C  
DOCKED: BRANCH   5   6
DOCKED: ATOM      6  C   UNL     1     140.265  71.109 224.235 -0.45 +0.00    -0.009 A  
DOCKED: ATOM      7  C   UNL     1     139.612  69.870 224.246 -0.33 -0.00    +0.009 A  
DOCKED: ATOM      8  C   UNL     1     140.706  71.662 225.453 -0.52 -0.00    +0.022 A  
DOCKED: ATOM      9  C   UNL     1     139.460  69.160 225.439 -0.44 -0.00    +0.001 A  
DOCKED: ATOM     10  C   UNL     1     140.542  70.961 226.660 -0.59 -0.01    +0.056 A  
DOCKED: ATOM     11  C   UNL     1     139.938  69.691 226.639 -0.52 -0.00    +0.013 A  
DOCKED: BRANCH  10  12
DOCKED: ATOM     12  C   UNL     1     141.044  71.572 227.944 -0.40 -0.09    +0.416 C  
DOCKED: ATOM     13  F   UNL     1     141.876  72.636 227.650 -0.32 +0.03    -0.166 F  
DOCKED: ATOM     14  F   UNL     1     139.972  72.033 228.690 -0.29 +0.05    -0.166 F  
DOCKED: ATOM     15  F   UNL     1     141.747  70.657 228.710 -0.12 +0.03    -0.166 F  
DOCKED: ENDBRANCH  10  12
DOCKED: ENDBRANCH   5   6
DOCKED: ENDBRANCH   4   5
DOCKED: ENDBRANCH   3   4
DOCKED: ENDBRANCH   1   3
DOCKED: BRANCH   1  16
DOCKED: ATOM     16  C   UNL     1     140.701  76.565 221.841 -0.36 -0.02    +0.060 C  
DOCKED: BRANCH  16  17
DOCKED: ATOM     17  C   UNL     1     140.713  77.210 220.450 -0.21 -0.02    +0.048 C  
DOCKED: BRANCH  17  18
DOCKED: ATOM     18  C   UNL     1     141.866  78.210 220.274 -0.17 -0.14    +0.230 C  
DOCKED: BRANCH  18  19
DOCKED: ATOM     19  O   UNL     1     141.444  79.548 220.552 -0.08 +0.23    -0.492 OA 
DOCKED: BRANCH  19  20
DOCKED: ATOM     20  C   UNL     1     140.532  79.951 221.544 -0.21 -0.04    +0.137 A  
DOCKED: ATOM     21  C   UNL     1     139.146  80.063 221.303 -0.14 -0.01    +0.049 A  
DOCKED: ATOM     22  C   UNL     1     141.028  80.251 222.822 -0.41 -0.02    +0.084 A  
DOCKED: ATOM     23  C   UNL     1     138.279  80.432 222.337 -0.19 -0.00    +0.024 A  
DOCKED: ATOM     24  C   UNL     1     140.154  80.618 223.851 -0.36 -0.01    +0.045 A  
DOCKED: ATOM     25  C   UNL     1     138.780  80.703 223.611 -0.36 -0.00    +0.042 A  
DOCKED: ATOM     26  Cl  UNL     1     142.751  80.152 223.154 -0.80 +0.02    -0.080 Cl 
DOCKED: ATOM     27  Cl  UNL     1     137.688  81.149 224.908 -0.47 +0.01    -0.084 Cl 
DOCKED: ENDBRANCH  19  20
DOCKED: ENDBRANCH  18  19
DOCKED: ENDBRANCH  17  18
DOCKED: ENDBRANCH  16  17
DOCKED: ENDBRANCH   1  16
DOCKED: TORSDOF 10
DOCKED: TER
DOCKED: ENDMDL
________________________________________________________________________________


    FINAL DOCKED STATE:
    ________________________


Run:   3 / 20
Time taken for this run:   0.083s

DOCKED: MODEL        3
DOCKED: USER    Run = 3
DOCKED: USER
DOCKED: USER    Estimated Free Energy of Binding    =  -6.37 kcal/mol  [=(1)+(2)+(3)-(4)]
DOCKED: USER
DOCKED: USER    (1) Final Intermolecular Energy     =  -9.35 kcal/mol
DOCKED: USER        vdW + Hbond + desolv Energy     =  -9.51 kcal/mol
DOCKED: USER        Electrostatic Energy            =  +0.16 kcal/mol
DOCKED: USER        Moving Ligand-Fixed Receptor    =  -9.35 kcal/mol
DOCKED: USER        Moving Ligand-Moving Receptor   =  +0.00 kcal/mol
DOCKED: USER    (2) Final Total Internal Energy     =  -1.05 kcal/mol
DOCKED: USER    (3) Torsional Free Energy           =  +2.98 kcal/mol
DOCKED: USER    (4) Unbound System's Energy         =  -1.05 kcal/mol
DOCKED: USER
DOCKED: USER
DOCKED: REMARK SMILES O=C(CCCOc1ccc(Cl)cc1Cl)[N-]/N=C\c1cccc(C(F)(F)F)c1
DOCKED: REMARK SMILES IDX 2 1 1 2 15 3 16 4 17 5 18 6 19 7 27 8 20 9 22 10 21 11 23 12
DOCKED: REMARK SMILES IDX 24 13 25 14 26 15 3 16 4 17 5 18 6 19 7 20 8 21 13 22 9 23
DOCKED: REMARK SMILES IDX 12 24 10 25 14 26 11 27
DOCKED: REMARK H PARENT
DOCKED: USER                              x       y       z     vdW  Elec       q    Type
DOCKED: USER                           _______ _______ _______ _____ _____    ______ ____
DOCKED: ROOT
DOCKED: ATOM      1  C   UNL     1     140.039  75.190 221.967 -0.26 -0.01    +0.068 C  
DOCKED: ATOM      2  O   UNL     1     140.868  76.135 221.856 -0.30 +0.10    -0.319 OA 
DOCKED: ENDROOT
DOCKED: BRANCH   1   3
DOCKED: ATOM      3  N   UNL     1     140.493  73.839 222.006 -0.62 +0.02    -0.545 NA 
DOCKED: BRANCH   3   4
DOCKED: ATOM      4  N   UNL     1     139.789  72.850 222.709 -0.46 +0.06    -0.372 NA 
DOCKED: BRANCH   4   5
DOCKED: ATOM      5  C   UNL     1     140.282  71.671 222.948 -0.31 -0.01    +0.094 C  
DOCKED: BRANCH   5   6
DOCKED: ATOM      6  C   UNL     1     140.232  71.012 224.274 -0.44 +0.00    -0.009 A  
DOCKED: ATOM      7  C   UNL     1     139.671  69.733 224.376 -0.33 -0.00    +0.009 A  
DOCKED: ATOM      8  C   UNL     1     140.657  71.669 225.446 -0.50 -0.00    +0.022 A  
DOCKED: ATOM      9  C   UNL     1     139.596  69.089 225.612 -0.46 -0.00    +0.001 A  
DOCKED: ATOM     10  C   UNL     1     140.569  71.033 226.696 -0.60 -0.01    +0.056 A  
DOCKED: ATOM     11  C   UNL     1     140.059  69.725 226.765 -0.54 -0.00    +0.013 A  
DOCKED: BRANCH  10  12
DOCKED: ATOM     12  C   UNL     1     141.052  71.756 227.929 -0.40 -0.09    +0.416 C  
DOCKED: ATOM     13  F   UNL     1     139.963  72.206 228.651 -0.29 +0.06    -0.166 F  
DOCKED: ATOM     14  F   UNL     1     141.787  70.887 228.718 -0.14 +0.03    -0.166 F  
DOCKED: ATOM     15  F   UNL     1     141.853  72.839 227.610 -0.30 +0.04    -0.166 F  
DOCKED: ENDBRANCH  10  12
DOCKED: ENDBRANCH   5   6
DOCKED: ENDBRANCH   4   5
DOCKED: ENDBRANCH   3   4
DOCKED: ENDBRANCH   1   3
DOCKED: BRANCH   1  16
DOCKED: ATOM     16  C   UNL     1     138.565  75.467 221.975 -0.25 -0.01    +0.060 C  
DOCKED: BRANCH  16  17
DOCKED: ATOM     17  C   UNL     1     138.263  76.962 222.132 -0.25 -0.01    +0.048 C  
DOCKED: BRANCH  17  18
DOCKED: ATOM     18  C   UNL     1     137.897  77.633 220.800 -0.05 -0.05    +0.230 C  
DOCKED: BRANCH  18  19
DOCKED: ATOM     19  O   UNL     1     138.618  78.854 220.614 +0.01 +0.11    -0.492 OA 
DOCKED: BRANCH  19  20
DOCKED: ATOM     20  C   UNL     1     139.620  79.373 221.453 -0.14 -0.03    +0.137 A  
DOCKED: ATOM     21  C   UNL     1     139.329  80.053 222.655 -0.28 -0.01    +0.049 A  
DOCKED: ATOM     22  C   UNL     1     140.960  79.202 221.074 -0.25 -0.03    +0.084 A  
DOCKED: ATOM     23  C   UNL     1     140.367  80.516 223.471 -0.45 -0.00    +0.024 A  
DOCKED: ATOM     24  C   UNL     1     141.992  79.667 221.897 -0.45 -0.02    +0.045 A  
DOCKED: ATOM     25  C   UNL     1     141.696  80.317 223.097 -0.54 -0.01    +0.042 A  
DOCKED: ATOM     26  Cl  UNL     1     141.362  78.386 219.570 -0.30 +0.04    -0.080 Cl 
DOCKED: ATOM     27  Cl  UNL     1     142.994  80.885 224.131 -0.62 +0.01    -0.084 Cl 
DOCKED: ENDBRANCH  19  20
DOCKED: ENDBRANCH  18  19
DOCKED: ENDBRANCH  17  18
DOCKED: ENDBRANCH  16  17
DOCKED: ENDBRANCH   1  16
DOCKED: TORSDOF 10
DOCKED: TER
DOCKED: ENDMDL
________________________________________________________________________________


    FINAL DOCKED STATE:
    ________________________


Run:   4 / 20
Time taken for this run:   0.083s

DOCKED: MODEL        4
DOCKED: USER    Run = 4
DOCKED: USER
DOCKED: USER    Estimated Free Energy of Binding    =  -6.15 kcal/mol  [=(1)+(2)+(3)-(4)]
DOCKED: USER
DOCKED: USER    (1) Final Intermolecular Energy     =  -9.13 kcal/mol
DOCKED: USER        vdW + Hbond + desolv Energy     =  -9.39 kcal/mol
DOCKED: USER        Electrostatic Energy            =  +0.25 kcal/mol
DOCKED: USER        Moving Ligand-Fixed Receptor    =  -9.13 kcal/mol
DOCKED: USER        Moving Ligand-Moving Receptor   =  +0.00 kcal/mol
DOCKED: USER    (2) Final Total Internal Energy     =  -0.55 kcal/mol
DOCKED: USER    (3) Torsional Free Energy           =  +2.98 kcal/mol
DOCKED: USER    (4) Unbound System's Energy         =  -0.55 kcal/mol
DOCKED: USER
DOCKED: USER
DOCKED: REMARK SMILES O=C(CCCOc1ccc(Cl)cc1Cl)[N-]/N=C\c1cccc(C(F)(F)F)c1
DOCKED: REMARK SMILES IDX 2 1 1 2 15 3 16 4 17 5 18 6 19 7 27 8 20 9 22 10 21 11 23 12
DOCKED: REMARK SMILES IDX 24 13 25 14 26 15 3 16 4 17 5 18 6 19 7 20 8 21 13 22 9 23
DOCKED: REMARK SMILES IDX 12 24 10 25 14 26 11 27
DOCKED: REMARK H PARENT
DOCKED: USER                              x       y       z     vdW  Elec       q    Type
DOCKED: USER                           _______ _______ _______ _____ _____    ______ ____
DOCKED: ROOT
DOCKED: ATOM      1  C   UNL     1     140.445  73.698 221.973 -0.20 -0.00    +0.068 C  
DOCKED: ATOM      2  O   UNL     1     139.242  73.799 222.342 -0.58 +0.08    -0.319 OA 
DOCKED: ENDROOT
DOCKED: BRANCH   1   3
DOCKED: ATOM      3  N   UNL     1     141.197  74.867 221.655 -0.25 +0.10    -0.545 NA 
DOCKED: BRANCH   3   4
DOCKED: ATOM      4  N   UNL     1     141.030  76.062 222.369 -0.21 +0.11    -0.372 NA 
DOCKED: BRANCH   4   5
DOCKED: ATOM      5  C   UNL     1     140.660  77.173 221.805 -0.34 -0.03    +0.094 C  
DOCKED: BRANCH   5   6
DOCKED: ATOM      6  C   UNL     1     141.146  78.509 222.223 -0.43 +0.00    -0.009 A  
DOCKED: ATOM      7  C   UNL     1     141.812  78.636 223.448 -0.60 -0.00    +0.009 A  
DOCKED: ATOM      8  C   UNL     1     140.884  79.666 221.463 -0.30 -0.01    +0.022 A  
DOCKED: ATOM      9  C   UNL     1     142.272  79.882 223.879 -0.62 -0.00    +0.001 A  
DOCKED: ATOM     10  C   UNL     1     141.330  80.926 221.898 -0.39 -0.01    +0.056 A  
DOCKED: ATOM     11  C   UNL     1     142.050  81.020 223.102 -0.58 -0.00    +0.013 A  
DOCKED: BRANCH  10  12
DOCKED: ATOM     12  C   UNL     1     141.052  82.142 221.050 -0.15 -0.09    +0.416 C  
DOCKED: ATOM     13  F   UNL     1     141.461  83.275 221.728 -0.10 +0.02    -0.166 F  
DOCKED: ATOM     14  F   UNL     1     141.757  82.050 219.862 -0.09 +0.05    -0.166 F  
DOCKED: ATOM     15  F   UNL     1     139.705  82.265 220.751 -0.05 +0.03    -0.166 F  
DOCKED: ENDBRANCH  10  12
DOCKED: ENDBRANCH   5   6
DOCKED: ENDBRANCH   4   5
DOCKED: ENDBRANCH   3   4
DOCKED: ENDBRANCH   1   3
DOCKED: BRANCH   1  16
DOCKED: ATOM     16  C   UNL     1     141.073  72.350 221.785 -0.25 -0.01    +0.060 C  
DOCKED: BRANCH  16  17
DOCKED: ATOM     17  C   UNL     1     140.087  71.334 221.195 -0.15 -0.01    +0.048 C  
DOCKED: BRANCH  17  18
DOCKED: ATOM     18  C   UNL     1     139.200  70.682 222.265 -0.13 -0.04    +0.230 C  
DOCKED: BRANCH  18  19
DOCKED: ATOM     19  O   UNL     1     139.407  71.277 223.549 -0.13 +0.11    -0.492 OA 
DOCKED: BRANCH  19  20
DOCKED: ATOM     20  C   UNL     1     139.835  70.623 224.718 -0.36 -0.02    +0.137 A  
DOCKED: ATOM     21  C   UNL     1     141.086  70.877 225.319 -0.52 -0.01    +0.049 A  
DOCKED: ATOM     22  C   UNL     1     138.975  69.683 225.307 -0.35 -0.01    +0.084 A  
DOCKED: ATOM     23  C   UNL     1     141.444  70.226 226.504 -0.48 -0.00    +0.024 A  
DOCKED: ATOM     24  C   UNL     1     139.340  69.036 226.493 -0.48 -0.01    +0.045 A  
DOCKED: ATOM     25  C   UNL     1     140.570  69.312 227.095 -0.56 -0.01    +0.042 A  
DOCKED: ATOM     26  Cl  UNL     1     137.420  69.316 224.573 -0.36 +0.01    -0.080 Cl 
DOCKED: ATOM     27  Cl  UNL     1     141.017  68.510 228.588 -0.74 +0.02    -0.084 Cl 
DOCKED: ENDBRANCH  19  20
DOCKED: ENDBRANCH  18  19
DOCKED: ENDBRANCH  17  18
DOCKED: ENDBRANCH  16  17
DOCKED: ENDBRANCH   1  16
DOCKED: TORSDOF 10
DOCKED: TER
DOCKED: ENDMDL
________________________________________________________________________________


    FINAL DOCKED STATE:
    ________________________


Run:   5 / 20
Time taken for this run:   0.083s

DOCKED: MODEL        5
DOCKED: USER    Run = 5
DOCKED: USER
DOCKED: USER    Estimated Free Energy of Binding    =  -6.17 kcal/mol  [=(1)+(2)+(3)-(4)]
DOCKED: USER
DOCKED: USER    (1) Final Intermolecular Energy     =  -9.15 kcal/mol
DOCKED: USER        vdW + Hbond + desolv Energy     =  -9.27 kcal/mol
DOCKED: USER        Electrostatic Energy            =  +0.11 kcal/mol
DOCKED: USER        Moving Ligand-Fixed Receptor    =  -9.15 kcal/mol
DOCKED: USER        Moving Ligand-Moving Receptor   =  +0.00 kcal/mol
DOCKED: USER    (2) Final Total Internal Energy     =  -1.18 kcal/mol
DOCKED: USER    (3) Torsional Free Energy           =  +2.98 kcal/mol
DOCKED: USER    (4) Unbound System's Energy         =  -1.18 kcal/mol
DOCKED: USER
DOCKED: USER
DOCKED: REMARK SMILES O=C(CCCOc1ccc(Cl)cc1Cl)[N-]/N=C\c1cccc(C(F)(F)F)c1
DOCKED: REMARK SMILES IDX 2 1 1 2 15 3 16 4 17 5 18 6 19 7 27 8 20 9 22 10 21 11 23 12
DOCKED: REMARK SMILES IDX 24 13 25 14 26 15 3 16 4 17 5 18 6 19 7 20 8 21 13 22 9 23
DOCKED: REMARK SMILES IDX 12 24 10 25 14 26 11 27
DOCKED: REMARK H PARENT
DOCKED: USER                              x       y       z     vdW  Elec       q    Type
DOCKED: USER                           _______ _______ _______ _____ _____    ______ ____
DOCKED: ROOT
DOCKED: ATOM      1  C   UNL     1     139.978  75.029 221.914 -0.25 -0.01    +0.068 C  
DOCKED: ATOM      2  O   UNL     1     139.850  75.984 222.730 -0.36 +0.04    -0.319 OA 
DOCKED: ENDROOT
DOCKED: BRANCH   1   3
DOCKED: ATOM      3  N   UNL     1     139.684  73.695 222.321 -0.61 +0.08    -0.545 NA 
DOCKED: BRANCH   3   4
DOCKED: ATOM      4  N   UNL     1     140.701  72.796 222.674 -0.44 -0.00    -0.372 NA 
DOCKED: BRANCH   4   5
DOCKED: ATOM      5  C   UNL     1     140.477  71.537 222.910 -0.28 -0.01    +0.094 C  
DOCKED: BRANCH   5   6
DOCKED: ATOM      6  C   UNL     1     140.262  70.981 224.266 -0.44 +0.00    -0.009 A  
DOCKED: ATOM      7  C   UNL     1     139.518  69.803 224.406 -0.35 -0.00    +0.009 A  
DOCKED: ATOM      8  C   UNL     1     140.713  71.647 225.422 -0.52 -0.00    +0.022 A  
DOCKED: ATOM      9  C   UNL     1     139.285  69.257 225.670 -0.45 -0.00    +0.001 A  
DOCKED: ATOM     10  C   UNL     1     140.468  71.113 226.699 -0.60 -0.01    +0.056 A  
DOCKED: ATOM     11  C   UNL     1     139.772  69.896 226.811 -0.51 -0.00    +0.013 A  
DOCKED: BRANCH  10  12
DOCKED: ATOM     12  C   UNL     1     140.984  71.839 227.917 -0.41 -0.09    +0.416 C  
DOCKED: ATOM     13  F   UNL     1     139.914  72.267 228.681 -0.29 +0.06    -0.166 F  
DOCKED: ATOM     14  F   UNL     1     141.763  70.982 228.674 -0.15 +0.03    -0.166 F  
DOCKED: ATOM     15  F   UNL     1     141.752  72.939 227.573 -0.30 +0.04    -0.166 F  
DOCKED: ENDBRANCH  10  12
DOCKED: ENDBRANCH   5   6
DOCKED: ENDBRANCH   4   5
DOCKED: ENDBRANCH   3   4
DOCKED: ENDBRANCH   1   3
DOCKED: BRANCH   1  16
DOCKED: ATOM     16  C   UNL     1     140.517  75.272 220.536 -0.20 -0.02    +0.060 C  
DOCKED: BRANCH  16  17
DOCKED: ATOM     17  C   UNL     1     140.201  74.113 219.584 -0.07 -0.01    +0.048 C  
DOCKED: BRANCH  17  18
DOCKED: ATOM     18  C   UNL     1     140.765  74.338 218.173 -0.01 -0.06    +0.230 C  
DOCKED: BRANCH  18  19
DOCKED: ATOM     19  O   UNL     1     142.028  73.691 218.005 +0.03 +0.12    -0.492 OA 
DOCKED: BRANCH  19  20
DOCKED: ATOM     20  C   UNL     1     143.044  73.569 218.970 -0.12 -0.03    +0.137 A  
DOCKED: ATOM     21  C   UNL     1     143.404  72.332 219.545 -0.19 -0.01    +0.049 A  
DOCKED: ATOM     22  C   UNL     1     143.724  74.730 219.371 -0.30 -0.03    +0.084 A  
DOCKED: ATOM     23  C   UNL     1     144.449  72.264 220.473 -0.38 -0.00    +0.024 A  
DOCKED: ATOM     24  C   UNL     1     144.768  74.653 220.299 -0.37 -0.02    +0.045 A  
DOCKED: ATOM     25  C   UNL     1     145.135  73.420 220.844 -0.57 -0.01    +0.042 A  
DOCKED: ATOM     26  Cl  UNL     1     143.285  76.294 218.700 -0.42 +0.05    -0.080 Cl 
DOCKED: ATOM     27  Cl  UNL     1     146.454  73.328 221.996 -0.73 +0.02    -0.084 Cl 
DOCKED: ENDBRANCH  19  20
DOCKED: ENDBRANCH  18  19
DOCKED: ENDBRANCH  17  18
DOCKED: ENDBRANCH  16  17
DOCKED: ENDBRANCH   1  16
DOCKED: TORSDOF 10
DOCKED: TER
DOCKED: ENDMDL
________________________________________________________________________________


    FINAL DOCKED STATE:
    ________________________


Run:   6 / 20
Time taken for this run:   0.083s

DOCKED: MODEL        6
DOCKED: USER    Run = 6
DOCKED: USER
DOCKED: USER    Estimated Free Energy of Binding    =  -6.18 kcal/mol  [=(1)+(2)+(3)-(4)]
DOCKED: USER
DOCKED: USER    (1) Final Intermolecular Energy     =  -9.16 kcal/mol
DOCKED: USER        vdW + Hbond + desolv Energy     =  -9.19 kcal/mol
DOCKED: USER        Electrostatic Energy            =  +0.03 kcal/mol
DOCKED: USER        Moving Ligand-Fixed Receptor    =  -9.16 kcal/mol
DOCKED: USER        Moving Ligand-Moving Receptor   =  +0.00 kcal/mol
DOCKED: USER    (2) Final Total Internal Energy     =  -1.28 kcal/mol
DOCKED: USER    (3) Torsional Free Energy           =  +2.98 kcal/mol
DOCKED: USER    (4) Unbound System's Energy         =  -1.28 kcal/mol
DOCKED: USER
DOCKED: USER
DOCKED: REMARK SMILES O=C(CCCOc1ccc(Cl)cc1Cl)[N-]/N=C\c1cccc(C(F)(F)F)c1
DOCKED: REMARK SMILES IDX 2 1 1 2 15 3 16 4 17 5 18 6 19 7 27 8 20 9 22 10 21 11 23 12
DOCKED: REMARK SMILES IDX 24 13 25 14 26 15 3 16 4 17 5 18 6 19 7 20 8 21 13 22 9 23
DOCKED: REMARK SMILES IDX 12 24 10 25 14 26 11 27
DOCKED: REMARK H PARENT
DOCKED: USER                              x       y       z     vdW  Elec       q    Type
DOCKED: USER                           _______ _______ _______ _____ _____    ______ ____
DOCKED: ROOT
DOCKED: ATOM      1  C   UNL     1     134.334  68.771 224.951 -0.22 -0.00    +0.068 C  
DOCKED: ATOM      2  O   UNL     1     134.286  67.612 224.455 -0.66 +0.00    -0.319 OA 
DOCKED: ENDROOT
DOCKED: BRANCH   1   3
DOCKED: ATOM      3  N   UNL     1     133.776  69.023 226.238 -0.56 -0.01    -0.545 NA 
DOCKED: BRANCH   3   4
DOCKED: ATOM      4  N   UNL     1     134.113  70.171 226.971 -0.36 +0.01    -0.372 NA 
DOCKED: BRANCH   4   5
DOCKED: ATOM      5  C   UNL     1     133.264  71.124 227.215 -0.31 -0.01    +0.094 C  
DOCKED: BRANCH   5   6
DOCKED: ATOM      6  C   UNL     1     133.426  72.514 226.728 -0.40 +0.00    -0.009 A  
DOCKED: ATOM      7  C   UNL     1     132.625  73.523 227.278 -0.39 -0.00    +0.009 A  
DOCKED: ATOM      8  C   UNL     1     134.302  72.834 225.673 -0.28 -0.00    +0.022 A  
DOCKED: ATOM      9  C   UNL     1     132.742  74.841 226.834 -0.38 +0.00    +0.001 A  
DOCKED: ATOM     10  C   UNL     1     134.413  74.156 225.209 -0.30 -0.00    +0.056 A  
DOCKED: ATOM     11  C   UNL     1     133.643  75.163 225.818 -0.33 -0.00    +0.013 A  
DOCKED: BRANCH  10  12
DOCKED: ATOM     12  C   UNL     1     135.377  74.470 224.092 -0.14 -0.09    +0.416 C  
DOCKED: ATOM     13  F   UNL     1     134.666  74.849 222.968 -0.02 +0.03    -0.166 F  
DOCKED: ATOM     14  F   UNL     1     136.206  75.511 224.472 -0.14 +0.04    -0.166 F  
DOCKED: ATOM     15  F   UNL     1     136.166  73.378 223.771 -0.06 +0.06    -0.166 F  
DOCKED: ENDBRANCH  10  12
DOCKED: ENDBRANCH   5   6
DOCKED: ENDBRANCH   4   5
DOCKED: ENDBRANCH   3   4
DOCKED: ENDBRANCH   1   3
DOCKED: BRANCH   1  16
DOCKED: ATOM     16  C   UNL     1     134.903  69.913 224.164 -0.16 -0.01    +0.060 C  
DOCKED: BRANCH  16  17
DOCKED: ATOM     17  C   UNL     1     136.427  70.007 224.307 -0.22 -0.01    +0.048 C  
DOCKED: BRANCH  17  18
DOCKED: ATOM     18  C   UNL     1     137.159  68.866 223.585 -0.12 -0.02    +0.230 C  
DOCKED: BRANCH  18  19
DOCKED: ATOM     19  O   UNL     1     138.529  68.789 223.986 -0.13 +0.05    -0.492 OA 
DOCKED: BRANCH  19  20
DOCKED: ATOM     20  C   UNL     1     139.138  69.498 225.037 -0.31 -0.02    +0.137 A  
DOCKED: ATOM     21  C   UNL     1     139.212  68.994 226.353 -0.46 -0.01    +0.049 A  
DOCKED: ATOM     22  C   UNL     1     139.694  70.755 224.756 -0.39 -0.02    +0.084 A  
DOCKED: ATOM     23  C   UNL     1     139.863  69.725 227.351 -0.56 -0.00    +0.024 A  
DOCKED: ATOM     24  C   UNL     1     140.345  71.480 225.761 -0.52 -0.01    +0.045 A  
DOCKED: ATOM     25  C   UNL     1     140.436  70.962 227.056 -0.62 -0.01    +0.042 A  
DOCKED: ATOM     26  Cl  UNL     1     139.597  71.430 223.137 -0.41 +0.02    -0.080 Cl 
DOCKED: ATOM     27  Cl  UNL     1     141.265  71.868 228.307 -0.74 +0.02    -0.084 Cl 
DOCKED: ENDBRANCH  19  20
DOCKED: ENDBRANCH  18  19
DOCKED: ENDBRANCH  17  18
DOCKED: ENDBRANCH  16  17
DOCKED: ENDBRANCH   1  16
DOCKED: TORSDOF 10
DOCKED: TER
DOCKED: ENDMDL
________________________________________________________________________________


    FINAL DOCKED STATE:
    ________________________


Run:   7 / 20
Time taken for this run:   0.083s

DOCKED: MODEL        7
DOCKED: USER    Run = 7
DOCKED: USER
DOCKED: USER    Estimated Free Energy of Binding    =  -6.77 kcal/mol  [=(1)+(2)+(3)-(4)]
DOCKED: USER
DOCKED: USER    (1) Final Intermolecular Energy     =  -9.75 kcal/mol
DOCKED: USER        vdW + Hbond + desolv Energy     =  -9.78 kcal/mol
DOCKED: USER        Electrostatic Energy            =  +0.03 kcal/mol
DOCKED: USER        Moving Ligand-Fixed Receptor    =  -9.75 kcal/mol
DOCKED: USER        Moving Ligand-Moving Receptor   =  +0.00 kcal/mol
DOCKED: USER    (2) Final Total Internal Energy     =  -0.87 kcal/mol
DOCKED: USER    (3) Torsional Free Energy           =  +2.98 kcal/mol
DOCKED: USER    (4) Unbound System's Energy         =  -0.87 kcal/mol
DOCKED: USER
DOCKED: USER
DOCKED: REMARK SMILES O=C(CCCOc1ccc(Cl)cc1Cl)[N-]/N=C\c1cccc(C(F)(F)F)c1
DOCKED: REMARK SMILES IDX 2 1 1 2 15 3 16 4 17 5 18 6 19 7 27 8 20 9 22 10 21 11 23 12
DOCKED: REMARK SMILES IDX 24 13 25 14 26 15 3 16 4 17 5 18 6 19 7 20 8 21 13 22 9 23
DOCKED: REMARK SMILES IDX 12 24 10 25 14 26 11 27
DOCKED: REMARK H PARENT
DOCKED: USER                              x       y       z     vdW  Elec       q    Type
DOCKED: USER                           _______ _______ _______ _____ _____    ______ ____
DOCKED: ROOT
DOCKED: ATOM      1  C   UNL     1     140.532  74.668 221.027 -0.25 -0.01    +0.068 C  
DOCKED: ATOM      2  O   UNL     1     141.510  74.616 220.231 -0.11 +0.09    -0.319 OA 
DOCKED: ENDROOT
DOCKED: BRANCH   1   3
DOCKED: ATOM      3  N   UNL     1     140.644  74.116 222.337 -0.45 -0.06    -0.545 NA 
DOCKED: BRANCH   3   4
DOCKED: ATOM      4  N   UNL     1     139.901  72.991 222.723 -0.55 +0.05    -0.372 NA 
DOCKED: BRANCH   4   5
DOCKED: ATOM      5  C   UNL     1     140.449  71.843 222.987 -0.30 -0.01    +0.094 C  
DOCKED: BRANCH   5   6
DOCKED: ATOM      6  C   UNL     1     140.254  71.112 224.261 -0.45 +0.00    -0.009 A  
DOCKED: ATOM      7  C   UNL     1     139.553  69.900 224.247 -0.34 -0.00    +0.009 A  
DOCKED: ATOM      8  C   UNL     1     140.681  71.642 225.494 -0.52 -0.00    +0.022 A  
DOCKED: ATOM      9  C   UNL     1     139.339  69.191 225.431 -0.43 -0.00    +0.001 A  
DOCKED: ATOM     10  C   UNL     1     140.454  70.943 226.692 -0.58 -0.01    +0.056 A  
DOCKED: ATOM     11  C   UNL     1     139.802  69.698 226.646 -0.51 -0.00    +0.013 A  
DOCKED: BRANCH  10  12
DOCKED: ATOM     12  C   UNL     1     140.943  71.528 227.994 -0.39 -0.09    +0.416 C  
DOCKED: ATOM     13  F   UNL     1     139.860  71.962 228.735 -0.28 +0.05    -0.166 F  
DOCKED: ATOM     14  F   UNL     1     141.621  70.558 228.713 -0.13 +0.03    -0.166 F  
DOCKED: ATOM     15  F   UNL     1     141.799  72.597 227.789 -0.31 +0.04    -0.166 F  
DOCKED: ENDBRANCH  10  12
DOCKED: ENDBRANCH   5   6
DOCKED: ENDBRANCH   4   5
DOCKED: ENDBRANCH   3   4
DOCKED: ENDBRANCH   1   3
DOCKED: BRANCH   1  16
DOCKED: ATOM     16  C   UNL     1     139.218  75.235 220.581 -0.13 -0.01    +0.060 C  
DOCKED: BRANCH  16  17
DOCKED: ATOM     17  C   UNL     1     138.322  75.610 221.768 -0.23 -0.01    +0.048 C  
DOCKED: BRANCH  17  18
DOCKED: ATOM     18  C   UNL     1     137.634  76.970 221.581 -0.11 -0.05    +0.230 C  
DOCKED: BRANCH  18  19
DOCKED: ATOM     19  O   UNL     1     137.899  77.845 222.681 -0.09 +0.08    -0.492 OA 
DOCKED: BRANCH  19  20
DOCKED: ATOM     20  C   UNL     1     139.114  78.494 222.964 -0.25 -0.02    +0.137 A  
DOCKED: ATOM     21  C   UNL     1     140.370  77.911 222.692 -0.38 -0.01    +0.049 A  
DOCKED: ATOM     22  C   UNL     1     139.068  79.774 223.537 -0.35 -0.01    +0.084 A  
DOCKED: ATOM     23  C   UNL     1     141.547  78.617 222.958 -0.53 -0.01    +0.024 A  
DOCKED: ATOM     24  C   UNL     1     140.250  80.474 223.800 -0.39 -0.01    +0.045 A  
DOCKED: ATOM     25  C   UNL     1     141.489  79.900 223.505 -0.54 -0.01    +0.042 A  
DOCKED: ATOM     26  Cl  UNL     1     137.523  80.522 223.919 -0.39 +0.01    -0.080 Cl 
DOCKED: ATOM     27  Cl  UNL     1     142.967  80.788 223.822 -0.75 +0.02    -0.084 Cl 
DOCKED: ENDBRANCH  19  20
DOCKED: ENDBRANCH  18  19
DOCKED: ENDBRANCH  17  18
DOCKED: ENDBRANCH  16  17
DOCKED: ENDBRANCH   1  16
DOCKED: TORSDOF 10
DOCKED: TER
DOCKED: ENDMDL
________________________________________________________________________________


    FINAL DOCKED STATE:
    ________________________


Run:   8 / 20
Time taken for this run:   0.083s

DOCKED: MODEL        8
DOCKED: USER    Run = 8
DOCKED: USER
DOCKED: USER    Estimated Free Energy of Binding    =  -6.78 kcal/mol  [=(1)+(2)+(3)-(4)]
DOCKED: USER
DOCKED: USER    (1) Final Intermolecular Energy     =  -9.76 kcal/mol
DOCKED: USER        vdW + Hbond + desolv Energy     =  -9.87 kcal/mol
DOCKED: USER        Electrostatic Energy            =  +0.11 kcal/mol
DOCKED: USER        Moving Ligand-Fixed Receptor    =  -9.76 kcal/mol
DOCKED: USER        Moving Ligand-Moving Receptor   =  +0.00 kcal/mol
DOCKED: USER    (2) Final Total Internal Energy     =  -0.87 kcal/mol
DOCKED: USER    (3) Torsional Free Energy           =  +2.98 kcal/mol
DOCKED: USER    (4) Unbound System's Energy         =  -0.87 kcal/mol
DOCKED: USER
DOCKED: USER
DOCKED: REMARK SMILES O=C(CCCOc1ccc(Cl)cc1Cl)[N-]/N=C\c1cccc(C(F)(F)F)c1
DOCKED: REMARK SMILES IDX 2 1 1 2 15 3 16 4 17 5 18 6 19 7 27 8 20 9 22 10 21 11 23 12
DOCKED: REMARK SMILES IDX 24 13 25 14 26 15 3 16 4 17 5 18 6 19 7 20 8 21 13 22 9 23
DOCKED: REMARK SMILES IDX 12 24 10 25 14 26 11 27
DOCKED: REMARK H PARENT
DOCKED: USER                              x       y       z     vdW  Elec       q    Type
DOCKED: USER                           _______ _______ _______ _____ _____    ______ ____
DOCKED: ROOT
DOCKED: ATOM      1  C   UNL     1     140.458  73.311 221.722 -0.27 -0.01    +0.068 C  
DOCKED: ATOM      2  O   UNL     1     139.968  74.313 222.312 -0.80 +0.01    -0.319 OA 
DOCKED: ENDROOT
DOCKED: BRANCH   1   3
DOCKED: ATOM      3  N   UNL     1     139.772  72.061 221.741 -0.05 +0.09    -0.545 NA 
DOCKED: BRANCH   3   4
DOCKED: ATOM      4  N   UNL     1     140.145  71.034 222.620 -0.09 +0.05    -0.372 NA 
DOCKED: BRANCH   4   5
DOCKED: ATOM      5  C   UNL     1     139.374  70.614 223.579 -0.29 -0.02    +0.094 C  
DOCKED: BRANCH   5   6
DOCKED: ATOM      6  C   UNL     1     139.867  70.234 224.923 -0.42 +0.00    -0.009 A  
DOCKED: ATOM      7  C   UNL     1     139.910  68.878 225.271 -0.41 -0.00    +0.009 A  
DOCKED: ATOM      8  C   UNL     1     140.213  71.200 225.888 -0.54 -0.00    +0.022 A  
DOCKED: ATOM      9  C   UNL     1     140.356  68.485 226.535 -0.62 -0.00    +0.001 A  
DOCKED: ATOM     10  C   UNL     1     140.648  70.812 227.167 -0.62 -0.01    +0.056 A  
DOCKED: ATOM     11  C   UNL     1     140.742  69.443 227.474 -0.60 -0.00    +0.013 A  
DOCKED: BRANCH  10  12
DOCKED: ATOM     12  C   UNL     1     141.032  71.872 228.170 -0.34 -0.10    +0.416 C  
DOCKED: ATOM     13  F   UNL     1     139.902  72.296 228.843 -0.24 +0.06    -0.166 F  
DOCKED: ATOM     14  F   UNL     1     141.927  71.342 229.085 -0.13 +0.03    -0.166 F  
DOCKED: ATOM     15  F   UNL     1     141.625  72.966 227.562 -0.30 +0.04    -0.166 F  
DOCKED: ENDBRANCH  10  12
DOCKED: ENDBRANCH   5   6
DOCKED: ENDBRANCH   4   5
DOCKED: ENDBRANCH   3   4
DOCKED: ENDBRANCH   1   3
DOCKED: BRANCH   1  16
DOCKED: ATOM     16  C   UNL     1     141.804  73.397 221.067 -0.23 -0.01    +0.060 C  
DOCKED: BRANCH  16  17
DOCKED: ATOM     17  C   UNL     1     142.240  74.850 220.839 -0.26 -0.02    +0.048 C  
DOCKED: BRANCH  17  18
DOCKED: ATOM     18  C   UNL     1     141.393  75.560 219.773 -0.12 -0.08    +0.230 C  
DOCKED: BRANCH  18  19
DOCKED: ATOM     19  O   UNL     1     140.621  76.621 220.341 -0.02 +0.17    -0.492 OA 
DOCKED: BRANCH  19  20
DOCKED: ATOM     20  C   UNL     1     141.083  77.618 221.218 -0.26 -0.06    +0.137 A  
DOCKED: ATOM     21  C   UNL     1     140.973  77.509 222.621 -0.42 -0.02    +0.049 A  
DOCKED: ATOM     22  C   UNL     1     141.678  78.765 220.669 -0.28 -0.05    +0.084 A  
DOCKED: ATOM     23  C   UNL     1     141.485  78.514 223.448 -0.56 -0.01    +0.024 A  
DOCKED: ATOM     24  C   UNL     1     142.188  79.766 221.503 -0.37 -0.02    +0.045 A  
DOCKED: ATOM     25  C   UNL     1     142.097  79.638 222.892 -0.56 -0.02    +0.042 A  
DOCKED: ATOM     26  Cl  UNL     1     141.807  78.952 218.926 -0.34 +0.05    -0.080 Cl 
DOCKED: ATOM     27  Cl  UNL     1     142.751  80.888 223.933 -0.74 +0.01    -0.084 Cl 
DOCKED: ENDBRANCH  19  20
DOCKED: ENDBRANCH  18  19
DOCKED: ENDBRANCH  17  18
DOCKED: ENDBRANCH  16  17
DOCKED: ENDBRANCH   1  16
DOCKED: TORSDOF 10
DOCKED: TER
DOCKED: ENDMDL
________________________________________________________________________________


    FINAL DOCKED STATE:
    ________________________


Run:   9 / 20
Time taken for this run:   0.083s

DOCKED: MODEL        9
DOCKED: USER    Run = 9
DOCKED: USER
DOCKED: USER    Estimated Free Energy of Binding    =  -6.64 kcal/mol  [=(1)+(2)+(3)-(4)]
DOCKED: USER
DOCKED: USER    (1) Final Intermolecular Energy     =  -9.62 kcal/mol
DOCKED: USER        vdW + Hbond + desolv Energy     =  -9.74 kcal/mol
DOCKED: USER        Electrostatic Energy            =  +0.12 kcal/mol
DOCKED: USER        Moving Ligand-Fixed Receptor    =  -9.62 kcal/mol
DOCKED: USER        Moving Ligand-Moving Receptor   =  +0.00 kcal/mol
DOCKED: USER    (2) Final Total Internal Energy     =  -0.77 kcal/mol
DOCKED: USER    (3) Torsional Free Energy           =  +2.98 kcal/mol
DOCKED: USER    (4) Unbound System's Energy         =  -0.77 kcal/mol
DOCKED: USER
DOCKED: USER
DOCKED: REMARK SMILES O=C(CCCOc1ccc(Cl)cc1Cl)[N-]/N=C\c1cccc(C(F)(F)F)c1
DOCKED: REMARK SMILES IDX 2 1 1 2 15 3 16 4 17 5 18 6 19 7 27 8 20 9 22 10 21 11 23 12
DOCKED: REMARK SMILES IDX 24 13 25 14 26 15 3 16 4 17 5 18 6 19 7 20 8 21 13 22 9 23
DOCKED: REMARK SMILES IDX 12 24 10 25 14 26 11 27
DOCKED: REMARK H PARENT
DOCKED: USER                              x       y       z     vdW  Elec       q    Type
DOCKED: USER                           _______ _______ _______ _____ _____    ______ ____
DOCKED: ROOT
DOCKED: ATOM      1  C   UNL     1     140.340  72.458 221.862 -0.26 -0.01    +0.068 C  
DOCKED: ATOM      2  O   UNL     1     140.134  73.383 222.694 -0.71 +0.00    -0.319 OA 
DOCKED: ENDROOT
DOCKED: BRANCH   1   3
DOCKED: ATOM      3  N   UNL     1     139.520  71.292 221.869 -0.01 +0.10    -0.545 NA 
DOCKED: BRANCH   3   4
DOCKED: ATOM      4  N   UNL     1     139.816  70.193 222.689 -0.03 +0.06    -0.372 NA 
DOCKED: BRANCH   4   5
DOCKED: ATOM      5  C   UNL     1     139.115  69.891 223.741 -0.26 -0.02    +0.094 C  
DOCKED: BRANCH   5   6
DOCKED: ATOM      6  C   UNL     1     139.696  69.709 225.092 -0.40 +0.00    -0.009 A  
DOCKED: ATOM      7  C   UNL     1     139.841  68.412 225.599 -0.49 -0.00    +0.009 A  
DOCKED: ATOM      8  C   UNL     1     140.026  70.806 225.911 -0.51 -0.00    +0.022 A  
DOCKED: ATOM      9  C   UNL     1     140.372  68.205 226.874 -0.67 -0.00    +0.001 A  
DOCKED: ATOM     10  C   UNL     1     140.546  70.606 227.202 -0.59 -0.01    +0.056 A  
DOCKED: ATOM     11  C   UNL     1     140.741  69.293 227.666 -0.61 -0.00    +0.013 A  
DOCKED: BRANCH  10  12
DOCKED: ATOM     12  C   UNL     1     140.910  71.802 228.046 -0.38 -0.10    +0.416 C  
DOCKED: ATOM     13  F   UNL     1     139.791  72.236 228.731 -0.28 +0.06    -0.166 F  
DOCKED: ATOM     14  F   UNL     1     141.887  71.444 228.960 -0.17 +0.03    -0.166 F  
DOCKED: ATOM     15  F   UNL     1     141.394  72.847 227.277 -0.32 +0.04    -0.166 F  
DOCKED: ENDBRANCH  10  12
DOCKED: ENDBRANCH   5   6
DOCKED: ENDBRANCH   4   5
DOCKED: ENDBRANCH   3   4
DOCKED: ENDBRANCH   1   3
DOCKED: BRANCH   1  16
DOCKED: ATOM     16  C   UNL     1     141.497  72.533 220.911 -0.21 -0.01    +0.060 C  
DOCKED: BRANCH  16  17
DOCKED: ATOM     17  C   UNL     1     141.402  73.752 219.986 -0.16 -0.01    +0.048 C  
DOCKED: BRANCH  17  18
DOCKED: ATOM     18  C   UNL     1     142.061  75.002 220.588 -0.19 -0.08    +0.230 C  
DOCKED: BRANCH  18  19
DOCKED: ATOM     19  O   UNL     1     141.113  76.058 220.766 -0.08 +0.18    -0.492 OA 
DOCKED: BRANCH  19  20
DOCKED: ATOM     20  C   UNL     1     141.320  77.263 221.459 -0.23 -0.07    +0.137 A  
DOCKED: ATOM     21  C   UNL     1     141.066  77.400 222.841 -0.37 -0.02    +0.049 A  
DOCKED: ATOM     22  C   UNL     1     141.800  78.370 220.742 -0.29 -0.05    +0.084 A  
DOCKED: ATOM     23  C   UNL     1     141.327  78.613 223.488 -0.55 -0.01    +0.024 A  
DOCKED: ATOM     24  C   UNL     1     142.059  79.579 221.397 -0.34 -0.02    +0.045 A  
DOCKED: ATOM     25  C   UNL     1     141.829  79.699 222.770 -0.53 -0.01    +0.042 A  
DOCKED: ATOM     26  Cl  UNL     1     142.100  78.248 219.014 -0.35 +0.05    -0.080 Cl 
DOCKED: ATOM     27  Cl  UNL     1     142.168  81.212 223.588 -0.74 +0.01    -0.084 Cl 
DOCKED: ENDBRANCH  19  20
DOCKED: ENDBRANCH  18  19
DOCKED: ENDBRANCH  17  18
DOCKED: ENDBRANCH  16  17
DOCKED: ENDBRANCH   1  16
DOCKED: TORSDOF 10
DOCKED: TER
DOCKED: ENDMDL
________________________________________________________________________________


    FINAL DOCKED STATE:
    ________________________


Run:   10 / 20
Time taken for this run:   0.083s

DOCKED: MODEL        10
DOCKED: USER    Run = 10
DOCKED: USER
DOCKED: USER    Estimated Free Energy of Binding    =  -6.24 kcal/mol  [=(1)+(2)+(3)-(4)]
DOCKED: USER
DOCKED: USER    (1) Final Intermolecular Energy     =  -9.22 kcal/mol
DOCKED: USER        vdW + Hbond + desolv Energy     =  -9.30 kcal/mol
DOCKED: USER        Electrostatic Energy            =  +0.08 kcal/mol
DOCKED: USER        Moving Ligand-Fixed Receptor    =  -9.22 kcal/mol
DOCKED: USER        Moving Ligand-Moving Receptor   =  +0.00 kcal/mol
DOCKED: USER    (2) Final Total Internal Energy     =  -0.94 kcal/mol
DOCKED: USER    (3) Torsional Free Energy           =  +2.98 kcal/mol
DOCKED: USER    (4) Unbound System's Energy         =  -0.94 kcal/mol
DOCKED: USER
DOCKED: USER
DOCKED: REMARK SMILES O=C(CCCOc1ccc(Cl)cc1Cl)[N-]/N=C\c1cccc(C(F)(F)F)c1
DOCKED: REMARK SMILES IDX 2 1 1 2 15 3 16 4 17 5 18 6 19 7 27 8 20 9 22 10 21 11 23 12
DOCKED: REMARK SMILES IDX 24 13 25 14 26 15 3 16 4 17 5 18 6 19 7 20 8 21 13 22 9 23
DOCKED: REMARK SMILES IDX 12 24 10 25 14 26 11 27
DOCKED: REMARK H PARENT
DOCKED: USER                              x       y       z     vdW  Elec       q    Type
DOCKED: USER                           _______ _______ _______ _____ _____    ______ ____
DOCKED: ROOT
DOCKED: ATOM      1  C   UNL     1     140.267  74.669 221.689 -0.25 -0.01    +0.068 C  
DOCKED: ATOM      2  O   UNL     1     141.009  75.492 222.292 -0.41 +0.05    -0.319 OA 
DOCKED: ENDROOT
DOCKED: BRANCH   1   3
DOCKED: ATOM      3  N   UNL     1     139.792  73.505 222.363 -0.60 +0.07    -0.545 NA 
DOCKED: BRANCH   3   4
DOCKED: ATOM      4  N   UNL     1     140.670  72.499 222.793 -0.36 +0.01    -0.372 NA 
DOCKED: BRANCH   4   5
DOCKED: ATOM      5  C   UNL     1     140.257  71.359 223.262 -0.31 -0.01    +0.094 C  
DOCKED: BRANCH   5   6
DOCKED: ATOM      6  C   UNL     1     140.392  70.957 224.682 -0.48 +0.00    -0.009 A  
DOCKED: ATOM      7  C   UNL     1     140.879  71.889 225.607 -0.47 -0.00    +0.009 A  
DOCKED: ATOM      8  C   UNL     1     140.125  69.642 225.110 -0.40 -0.00    +0.022 A  
DOCKED: ATOM      9  C   UNL     1     141.032  71.540 226.950 -0.75 -0.00    +0.001 A  
DOCKED: ATOM     10  C   UNL     1     140.292  69.279 226.457 -0.50 -0.01    +0.056 A  
DOCKED: ATOM     11  C   UNL     1     140.723  70.248 227.380 -0.61 -0.00    +0.013 A  
DOCKED: BRANCH  10  12
DOCKED: ATOM     12  C   UNL     1     139.975  67.868 226.888 -0.31 -0.08    +0.416 C  
DOCKED: ATOM     13  F   UNL     1     140.990  67.025 226.474 -0.22 +0.05    -0.166 F  
DOCKED: ATOM     14  F   UNL     1     139.881  67.814 228.269 -0.12 +0.04    -0.166 F  
DOCKED: ATOM     15  F   UNL     1     138.780  67.422 226.351 -0.18 -0.00    -0.166 F  
DOCKED: ENDBRANCH  10  12
DOCKED: ENDBRANCH   5   6
DOCKED: ENDBRANCH   4   5
DOCKED: ENDBRANCH   3   4
DOCKED: ENDBRANCH   1   3
DOCKED: BRANCH   1  16
DOCKED: ATOM     16  C   UNL     1     139.941  74.857 220.238 -0.13 -0.01    +0.060 C  
DOCKED: BRANCH  16  17
DOCKED: ATOM     17  C   UNL     1     140.424  76.214 219.713 -0.12 -0.02    +0.048 C  
DOCKED: BRANCH  17  18
DOCKED: ATOM     18  C   UNL     1     139.265  77.152 219.345 -0.02 -0.06    +0.230 C  
DOCKED: BRANCH  18  19
DOCKED: ATOM     19  O   UNL     1     139.602  78.520 219.588 +0.02 +0.15    -0.492 OA 
DOCKED: BRANCH  19  20
DOCKED: ATOM     20  C   UNL     1     140.344  79.022 220.672 -0.14 -0.05    +0.137 A  
DOCKED: ATOM     21  C   UNL     1     140.046  78.698 222.013 -0.27 -0.01    +0.049 A  
DOCKED: ATOM     22  C   UNL     1     141.424  79.876 220.401 -0.26 -0.04    +0.084 A  
DOCKED: ATOM     23  C   UNL     1     140.841  79.195 223.051 -0.47 -0.01    +0.024 A  
DOCKED: ATOM     24  C   UNL     1     142.215  80.369 221.445 -0.39 -0.02    +0.045 A  
DOCKED: ATOM     25  C   UNL     1     141.928  80.023 222.768 -0.54 -0.01    +0.042 A  
DOCKED: ATOM     26  Cl  UNL     1     141.808  80.327 218.746 -0.36 +0.05    -0.080 Cl 
DOCKED: ATOM     27  Cl  UNL     1     142.932  80.631 224.071 -0.66 +0.02    -0.084 Cl 
DOCKED: ENDBRANCH  19  20
DOCKED: ENDBRANCH  18  19
DOCKED: ENDBRANCH  17  18
DOCKED: ENDBRANCH  16  17
DOCKED: ENDBRANCH   1  16
DOCKED: TORSDOF 10
DOCKED: TER
DOCKED: ENDMDL
________________________________________________________________________________


    FINAL DOCKED STATE:
    ________________________


Run:   11 / 20
Time taken for this run:   0.083s

DOCKED: MODEL        11
DOCKED: USER    Run = 11
DOCKED: USER
DOCKED: USER    Estimated Free Energy of Binding    =  -6.48 kcal/mol  [=(1)+(2)+(3)-(4)]
DOCKED: USER
DOCKED: USER    (1) Final Intermolecular Energy     =  -9.46 kcal/mol
DOCKED: USER        vdW + Hbond + desolv Energy     =  -9.53 kcal/mol
DOCKED: USER        Electrostatic Energy            =  +0.06 kcal/mol
DOCKED: USER        Moving Ligand-Fixed Receptor    =  -9.46 kcal/mol
DOCKED: USER        Moving Ligand-Moving Receptor   =  +0.00 kcal/mol
DOCKED: USER    (2) Final Total Internal Energy     =  -0.77 kcal/mol
DOCKED: USER    (3) Torsional Free Energy           =  +2.98 kcal/mol
DOCKED: USER    (4) Unbound System's Energy         =  -0.77 kcal/mol
DOCKED: USER
DOCKED: USER
DOCKED: REMARK SMILES O=C(CCCOc1ccc(Cl)cc1Cl)[N-]/N=C\c1cccc(C(F)(F)F)c1
DOCKED: REMARK SMILES IDX 2 1 1 2 15 3 16 4 17 5 18 6 19 7 27 8 20 9 22 10 21 11 23 12
DOCKED: REMARK SMILES IDX 24 13 25 14 26 15 3 16 4 17 5 18 6 19 7 20 8 21 13 22 9 23
DOCKED: REMARK SMILES IDX 12 24 10 25 14 26 11 27
DOCKED: REMARK H PARENT
DOCKED: USER                              x       y       z     vdW  Elec       q    Type
DOCKED: USER                           _______ _______ _______ _____ _____    ______ ____
DOCKED: ROOT
DOCKED: ATOM      1  C   UNL     1     139.631  74.241 221.785 -0.24 -0.01    +0.068 C  
DOCKED: ATOM      2  O   UNL     1     139.546  75.136 222.670 -0.53 +0.04    -0.319 OA 
DOCKED: ENDROOT
DOCKED: BRANCH   1   3
DOCKED: ATOM      3  N   UNL     1     140.389  73.059 222.032 -0.36 +0.05    -0.545 NA 
DOCKED: BRANCH   3   4
DOCKED: ATOM      4  N   UNL     1     140.697  72.645 223.336 -0.10 -0.01    -0.372 NA 
DOCKED: BRANCH   4   5
DOCKED: ATOM      5  C   UNL     1     140.311  71.502 223.821 -0.37 -0.01    +0.094 C  
DOCKED: BRANCH   5   6
DOCKED: ATOM      6  C   UNL     1     140.519  71.095 225.230 -0.54 +0.00    -0.009 A  
DOCKED: ATOM      7  C   UNL     1     140.893  72.065 226.168 -0.42 -0.00    +0.009 A  
DOCKED: ATOM      8  C   UNL     1     140.435  69.748 225.634 -0.47 -0.00    +0.022 A  
DOCKED: ATOM      9  C   UNL     1     141.110  71.714 227.502 -0.81 -0.00    +0.001 A  
DOCKED: ATOM     10  C   UNL     1     140.669  69.385 226.971 -0.54 -0.01    +0.056 A  
DOCKED: ATOM     11  C   UNL     1     140.982  70.385 227.909 -0.62 -0.00    +0.013 A  
DOCKED: BRANCH  10  12
DOCKED: ATOM     12  C   UNL     1     140.548  67.936 227.376 -0.25 -0.11    +0.416 C  
DOCKED: ATOM     13  F   UNL     1     141.318  67.160 226.531 -0.16 +0.05    -0.166 F  
DOCKED: ATOM     14  F   UNL     1     141.004  67.777 228.674 -0.22 +0.05    -0.166 F  
DOCKED: ATOM     15  F   UNL     1     139.238  67.492 227.317 -0.18 +0.03    -0.166 F  
DOCKED: ENDBRANCH  10  12
DOCKED: ENDBRANCH   5   6
DOCKED: ENDBRANCH   4   5
DOCKED: ENDBRANCH   3   4
DOCKED: ENDBRANCH   1   3
DOCKED: BRANCH   1  16
DOCKED: ATOM     16  C   UNL     1     139.007  74.442 220.437 -0.10 -0.01    +0.060 C  
DOCKED: BRANCH  16  17
DOCKED: ATOM     17  C   UNL     1     139.950  75.171 219.471 -0.07 -0.01    +0.048 C  
DOCKED: BRANCH  17  18
DOCKED: ATOM     18  C   UNL     1     139.887  76.698 219.624 -0.04 -0.07    +0.230 C  
DOCKED: BRANCH  18  19
DOCKED: ATOM     19  O   UNL     1     141.167  77.242 219.958 -0.03 +0.22    -0.492 OA 
DOCKED: BRANCH  19  20
DOCKED: ATOM     20  C   UNL     1     141.443  78.175 220.973 -0.26 -0.07    +0.137 A  
DOCKED: ATOM     21  C   UNL     1     141.314  77.868 222.344 -0.37 -0.02    +0.049 A  
DOCKED: ATOM     22  C   UNL     1     141.867  79.460 220.599 -0.25 -0.05    +0.084 A  
DOCKED: ATOM     23  C   UNL     1     141.640  78.823 223.313 -0.57 -0.01    +0.024 A  
DOCKED: ATOM     24  C   UNL     1     142.192  80.409 221.575 -0.42 -0.02    +0.045 A  
DOCKED: ATOM     25  C   UNL     1     142.085  80.089 222.931 -0.57 -0.01    +0.042 A  
DOCKED: ATOM     26  Cl  UNL     1     142.012  79.890 218.901 -0.37 +0.05    -0.080 Cl 
DOCKED: ATOM     27  Cl  UNL     1     142.507  81.277 224.149 -0.65 +0.01    -0.084 Cl 
DOCKED: ENDBRANCH  19  20
DOCKED: ENDBRANCH  18  19
DOCKED: ENDBRANCH  17  18
DOCKED: ENDBRANCH  16  17
DOCKED: ENDBRANCH   1  16
DOCKED: TORSDOF 10
DOCKED: TER
DOCKED: ENDMDL
________________________________________________________________________________


    FINAL DOCKED STATE:
    ________________________


Run:   12 / 20
Time taken for this run:   0.083s

DOCKED: MODEL        12
DOCKED: USER    Run = 12
DOCKED: USER
DOCKED: USER    Estimated Free Energy of Binding    =  -5.93 kcal/mol  [=(1)+(2)+(3)-(4)]
DOCKED: USER
DOCKED: USER    (1) Final Intermolecular Energy     =  -8.91 kcal/mol
DOCKED: USER        vdW + Hbond + desolv Energy     =  -8.96 kcal/mol
DOCKED: USER        Electrostatic Energy            =  +0.05 kcal/mol
DOCKED: USER        Moving Ligand-Fixed Receptor    =  -8.91 kcal/mol
DOCKED: USER        Moving Ligand-Moving Receptor   =  +0.00 kcal/mol
DOCKED: USER    (2) Final Total Internal Energy     =  -1.33 kcal/mol
DOCKED: USER    (3) Torsional Free Energy           =  +2.98 kcal/mol
DOCKED: USER    (4) Unbound System's Energy         =  -1.33 kcal/mol
DOCKED: USER
DOCKED: USER
DOCKED: REMARK SMILES O=C(CCCOc1ccc(Cl)cc1Cl)[N-]/N=C\c1cccc(C(F)(F)F)c1
DOCKED: REMARK SMILES IDX 2 1 1 2 15 3 16 4 17 5 18 6 19 7 27 8 20 9 22 10 21 11 23 12
DOCKED: REMARK SMILES IDX 24 13 25 14 26 15 3 16 4 17 5 18 6 19 7 20 8 21 13 22 9 23
DOCKED: REMARK SMILES IDX 12 24 10 25 14 26 11 27
DOCKED: REMARK H PARENT
DOCKED: USER                              x       y       z     vdW  Elec       q    Type
DOCKED: USER                           _______ _______ _______ _____ _____    ______ ____
DOCKED: ROOT
DOCKED: ATOM      1  C   UNL     1     140.026  73.943 221.962 -0.22 -0.01    +0.068 C  
DOCKED: ATOM      2  O   UNL     1     140.526  75.099 221.889 -0.59 +0.04    -0.319 OA 
DOCKED: ENDROOT
DOCKED: BRANCH   1   3
DOCKED: ATOM      3  N   UNL     1     140.688  72.921 222.703 -0.36 -0.01    -0.545 NA 
DOCKED: BRANCH   3   4
DOCKED: ATOM      4  N   UNL     1     140.308  71.575 222.596 -0.15 +0.05    -0.372 NA 
DOCKED: BRANCH   4   5
DOCKED: ATOM      5  C   UNL     1     139.619  70.963 223.513 -0.31 -0.02    +0.094 C  
DOCKED: BRANCH   5   6
DOCKED: ATOM      6  C   UNL     1     140.081  70.792 224.911 -0.48 +0.00    -0.009 A  
DOCKED: ATOM      7  C   UNL     1     140.618  71.894 225.587 -0.43 -0.00    +0.009 A  
DOCKED: ATOM      8  C   UNL     1     140.072  69.536 225.547 -0.44 -0.00    +0.022 A  
DOCKED: ATOM      9  C   UNL     1     141.076  71.766 226.900 -0.77 -0.00    +0.001 A  
DOCKED: ATOM     10  C   UNL     1     140.546  69.395 226.863 -0.53 -0.01    +0.056 A  
DOCKED: ATOM     11  C   UNL     1     141.024  70.529 227.544 -0.62 -0.00    +0.013 A  
DOCKED: BRANCH  10  12
DOCKED: ATOM     12  C   UNL     1     140.502  68.040 227.524 -0.26 -0.11    +0.416 C  
DOCKED: ATOM     13  F   UNL     1     141.323  68.047 228.636 -0.23 +0.05    -0.166 F  
DOCKED: ATOM     14  F   UNL     1     139.206  67.760 227.923 -0.04 +0.03    -0.166 F  
DOCKED: ATOM     15  F   UNL     1     140.922  67.035 226.668 -0.22 +0.05    -0.166 F  
DOCKED: ENDBRANCH  10  12
DOCKED: ENDBRANCH   5   6
DOCKED: ENDBRANCH   4   5
DOCKED: ENDBRANCH   3   4
DOCKED: ENDBRANCH   1   3
DOCKED: BRANCH   1  16
DOCKED: ATOM     16  C   UNL     1     138.776  73.606 221.205 -0.16 -0.01    +0.060 C  
DOCKED: BRANCH  16  17
DOCKED: ATOM     17  C   UNL     1     139.042  73.439 219.704 -0.05 -0.01    +0.048 C  
DOCKED: BRANCH  17  18
DOCKED: ATOM     18  C   UNL     1     139.911  74.568 219.130 -0.02 -0.05    +0.230 C  
DOCKED: BRANCH  18  19
DOCKED: ATOM     19  O   UNL     1     141.157  74.069 218.639 +0.02 +0.12    -0.492 OA 
DOCKED: BRANCH  19  20
DOCKED: ATOM     20  C   UNL     1     142.338  73.882 219.380 -0.12 -0.03    +0.137 A  
DOCKED: ATOM     21  C   UNL     1     142.709  72.631 219.918 -0.19 -0.01    +0.049 A  
DOCKED: ATOM     22  C   UNL     1     143.176  74.988 219.586 -0.30 -0.04    +0.084 A  
DOCKED: ATOM     23  C   UNL     1     143.914  72.494 220.615 -0.34 -0.00    +0.024 A  
DOCKED: ATOM     24  C   UNL     1     144.380  74.843 220.284 -0.39 -0.02    +0.045 A  
DOCKED: ATOM     25  C   UNL     1     144.753  73.595 220.792 -0.50 -0.01    +0.042 A  
DOCKED: ATOM     26  Cl  UNL     1     142.734  76.569 218.957 -0.42 +0.05    -0.080 Cl 
DOCKED: ATOM     27  Cl  UNL     1     146.270  73.415 221.653 -0.85 +0.01    -0.084 Cl 
DOCKED: ENDBRANCH  19  20
DOCKED: ENDBRANCH  18  19
DOCKED: ENDBRANCH  17  18
DOCKED: ENDBRANCH  16  17
DOCKED: ENDBRANCH   1  16
DOCKED: TORSDOF 10
DOCKED: TER
DOCKED: ENDMDL
________________________________________________________________________________


    FINAL DOCKED STATE:
    ________________________


Run:   13 / 20
Time taken for this run:   0.083s

DOCKED: MODEL        13
DOCKED: USER    Run = 13
DOCKED: USER
DOCKED: USER    Estimated Free Energy of Binding    =  -6.21 kcal/mol  [=(1)+(2)+(3)-(4)]
DOCKED: USER
DOCKED: USER    (1) Final Intermolecular Energy     =  -9.19 kcal/mol
DOCKED: USER        vdW + Hbond + desolv Energy     =  -9.34 kcal/mol
DOCKED: USER        Electrostatic Energy            =  +0.15 kcal/mol
DOCKED: USER        Moving Ligand-Fixed Receptor    =  -9.19 kcal/mol
DOCKED: USER        Moving Ligand-Moving Receptor   =  +0.00 kcal/mol
DOCKED: USER    (2) Final Total Internal Energy     =  -0.74 kcal/mol
DOCKED: USER    (3) Torsional Free Energy           =  +2.98 kcal/mol
DOCKED: USER    (4) Unbound System's Energy         =  -0.74 kcal/mol
DOCKED: USER
DOCKED: USER
DOCKED: REMARK SMILES O=C(CCCOc1ccc(Cl)cc1Cl)[N-]/N=C\c1cccc(C(F)(F)F)c1
DOCKED: REMARK SMILES IDX 2 1 1 2 15 3 16 4 17 5 18 6 19 7 27 8 20 9 22 10 21 11 23 12
DOCKED: REMARK SMILES IDX 24 13 25 14 26 15 3 16 4 17 5 18 6 19 7 20 8 21 13 22 9 23
DOCKED: REMARK SMILES IDX 12 24 10 25 14 26 11 27
DOCKED: REMARK H PARENT
DOCKED: USER                              x       y       z     vdW  Elec       q    Type
DOCKED: USER                           _______ _______ _______ _____ _____    ______ ____
DOCKED: ROOT
DOCKED: ATOM      1  C   UNL     1     141.404  73.149 221.226 -0.25 -0.01    +0.068 C  
DOCKED: ATOM      2  O   UNL     1     142.579  73.449 220.877 -0.18 +0.06    -0.319 OA 
DOCKED: ENDROOT
DOCKED: BRANCH   1   3
DOCKED: ATOM      3  N   UNL     1     140.677  74.004 222.105 -0.54 -0.01    -0.545 NA 
DOCKED: BRANCH   3   4
DOCKED: ATOM      4  N   UNL     1     140.723  75.400 221.973 -0.45 +0.06    -0.372 NA 
DOCKED: BRANCH   4   5
DOCKED: ATOM      5  C   UNL     1     139.697  76.163 222.207 -0.31 -0.02    +0.094 C  
DOCKED: BRANCH   5   6
DOCKED: ATOM      6  C   UNL     1     139.805  77.573 222.651 -0.33 +0.00    -0.009 A  
DOCKED: ATOM      7  C   UNL     1     138.638  78.265 222.998 -0.27 -0.00    +0.009 A  
DOCKED: ATOM      8  C   UNL     1     141.035  78.258 222.654 -0.47 -0.01    +0.022 A  
DOCKED: ATOM      9  C   UNL     1     138.701  79.599 223.408 -0.36 -0.00    +0.001 A  
DOCKED: ATOM     10  C   UNL     1     141.104  79.605 223.049 -0.46 -0.01    +0.056 A  
DOCKED: ATOM     11  C   UNL     1     139.928  80.263 223.452 -0.43 -0.00    +0.013 A  
DOCKED: BRANCH  10  12
DOCKED: ATOM     12  C   UNL     1     142.441  80.305 223.062 -0.32 -0.12    +0.416 C  
DOCKED: ATOM     13  F   UNL     1     143.438  79.391 222.779 -0.19 +0.09    -0.166 F  
DOCKED: ATOM     14  F   UNL     1     142.454  81.299 222.098 -0.15 +0.04    -0.166 F  
DOCKED: ATOM     15  F   UNL     1     142.706  80.886 224.291 -0.23 +0.03    -0.166 F  
DOCKED: ENDBRANCH  10  12
DOCKED: ENDBRANCH   5   6
DOCKED: ENDBRANCH   4   5
DOCKED: ENDBRANCH   3   4
DOCKED: ENDBRANCH   1   3
DOCKED: BRANCH   1  16
DOCKED: ATOM     16  C   UNL     1     140.788  71.853 220.791 -0.16 -0.01    +0.060 C  
DOCKED: BRANCH  16  17
DOCKED: ATOM     17  C   UNL     1     140.322  71.010 221.983 -0.16 -0.01    +0.048 C  
DOCKED: BRANCH  17  18
DOCKED: ATOM     18  C   UNL     1     138.875  71.320 222.396 -0.15 -0.05    +0.230 C  
DOCKED: BRANCH  18  19
DOCKED: ATOM     19  O   UNL     1     138.782  71.613 223.792 -0.07 +0.16    -0.492 OA 
DOCKED: BRANCH  19  20
DOCKED: ATOM     20  C   UNL     1     139.366  70.884 224.844 -0.32 -0.03    +0.137 A  
DOCKED: ATOM     21  C   UNL     1     140.594  71.250 225.434 -0.54 -0.01    +0.049 A  
DOCKED: ATOM     22  C   UNL     1     138.692  69.749 225.321 -0.31 -0.01    +0.084 A  
DOCKED: ATOM     23  C   UNL     1     141.109  70.511 226.504 -0.58 -0.00    +0.024 A  
DOCKED: ATOM     24  C   UNL     1     139.214  69.015 226.392 -0.47 -0.01    +0.045 A  
DOCKED: ATOM     25  C   UNL     1     140.418  69.399 226.987 -0.55 -0.01    +0.042 A  
DOCKED: ATOM     26  Cl  UNL     1     137.174  69.243 224.592 -0.33 +0.01    -0.080 Cl 
DOCKED: ATOM     27  Cl  UNL     1     141.061  68.484 228.338 -0.78 +0.02    -0.084 Cl 
DOCKED: ENDBRANCH  19  20
DOCKED: ENDBRANCH  18  19
DOCKED: ENDBRANCH  17  18
DOCKED: ENDBRANCH  16  17
DOCKED: ENDBRANCH   1  16
DOCKED: TORSDOF 10
DOCKED: TER
DOCKED: ENDMDL
________________________________________________________________________________


    FINAL DOCKED STATE:
    ________________________


Run:   14 / 20
Time taken for this run:   0.083s

DOCKED: MODEL        14
DOCKED: USER    Run = 14
DOCKED: USER
DOCKED: USER    Estimated Free Energy of Binding    =  -6.06 kcal/mol  [=(1)+(2)+(3)-(4)]
DOCKED: USER
DOCKED: USER    (1) Final Intermolecular Energy     =  -9.04 kcal/mol
DOCKED: USER        vdW + Hbond + desolv Energy     =  -9.17 kcal/mol
DOCKED: USER        Electrostatic Energy            =  +0.13 kcal/mol
DOCKED: USER        Moving Ligand-Fixed Receptor    =  -9.04 kcal/mol
DOCKED: USER        Moving Ligand-Moving Receptor   =  +0.00 kcal/mol
DOCKED: USER    (2) Final Total Internal Energy     =  -0.57 kcal/mol
DOCKED: USER    (3) Torsional Free Energy           =  +2.98 kcal/mol
DOCKED: USER    (4) Unbound System's Energy         =  -0.57 kcal/mol
DOCKED: USER
DOCKED: USER
DOCKED: REMARK SMILES O=C(CCCOc1ccc(Cl)cc1Cl)[N-]/N=C\c1cccc(C(F)(F)F)c1
DOCKED: REMARK SMILES IDX 2 1 1 2 15 3 16 4 17 5 18 6 19 7 27 8 20 9 22 10 21 11 23 12
DOCKED: REMARK SMILES IDX 24 13 25 14 26 15 3 16 4 17 5 18 6 19 7 20 8 21 13 22 9 23
DOCKED: REMARK SMILES IDX 12 24 10 25 14 26 11 27
DOCKED: REMARK H PARENT
DOCKED: USER                              x       y       z     vdW  Elec       q    Type
DOCKED: USER                           _______ _______ _______ _____ _____    ______ ____
DOCKED: ROOT
DOCKED: ATOM      1  C   UNL     1     139.886  73.834 221.876 -0.24 -0.01    +0.068 C  
DOCKED: ATOM      2  O   UNL     1     141.009  73.500 222.345 -0.56 -0.02    -0.319 OA 
DOCKED: ENDROOT
DOCKED: BRANCH   1   3
DOCKED: ATOM      3  N   UNL     1     139.504  75.207 221.839 -0.25 +0.10    -0.545 NA 
DOCKED: BRANCH   3   4
DOCKED: ATOM      4  N   UNL     1     140.359  76.218 222.302 -0.27 +0.08    -0.372 NA 
DOCKED: BRANCH   4   5
DOCKED: ATOM      5  C   UNL     1     139.928  77.380 222.694 -0.23 -0.02    +0.094 C  
DOCKED: BRANCH   5   6
DOCKED: ATOM      6  C   UNL     1     140.772  78.597 222.739 -0.45 +0.00    -0.009 A  
DOCKED: ATOM      7  C   UNL     1     141.768  78.695 223.718 -0.61 -0.00    +0.009 A  
DOCKED: ATOM      8  C   UNL     1     140.545  79.690 221.881 -0.29 -0.01    +0.022 A  
DOCKED: ATOM      9  C   UNL     1     142.573  79.834 223.799 -0.60 -0.00    +0.001 A  
DOCKED: ATOM     10  C   UNL     1     141.340  80.846 221.967 -0.39 -0.01    +0.056 A  
DOCKED: ATOM     11  C   UNL     1     142.375  80.898 222.917 -0.59 -0.00    +0.013 A  
DOCKED: BRANCH  10  12
DOCKED: ATOM     12  C   UNL     1     141.085  81.991 221.018 -0.15 -0.10    +0.416 C  
DOCKED: ATOM     13  F   UNL     1     141.813  81.795 219.860 -0.10 +0.06    -0.166 F  
DOCKED: ATOM     14  F   UNL     1     139.738  82.041 220.701 -0.04 +0.03    -0.166 F  
DOCKED: ATOM     15  F   UNL     1     141.448  83.208 221.571 -0.13 +0.02    -0.166 F  
DOCKED: ENDBRANCH  10  12
DOCKED: ENDBRANCH   5   6
DOCKED: ENDBRANCH   4   5
DOCKED: ENDBRANCH   3   4
DOCKED: ENDBRANCH   1   3
DOCKED: BRANCH   1  16
DOCKED: ATOM     16  C   UNL     1     138.907  72.790 221.428 -0.16 -0.01    +0.060 C  
DOCKED: BRANCH  16  17
DOCKED: ATOM     17  C   UNL     1     139.601  71.473 221.058 -0.13 -0.01    +0.048 C  
DOCKED: BRANCH  17  18
DOCKED: ATOM     18  C   UNL     1     139.493  70.417 222.168 -0.12 -0.04    +0.230 C  
DOCKED: BRANCH  18  19
DOCKED: ATOM     19  O   UNL     1     139.452  71.022 223.463 -0.11 +0.10    -0.492 OA 
DOCKED: BRANCH  19  20
DOCKED: ATOM     20  C   UNL     1     139.854  70.437 224.676 -0.34 -0.02    +0.137 A  
DOCKED: ATOM     21  C   UNL     1     141.063  70.774 225.321 -0.52 -0.01    +0.049 A  
DOCKED: ATOM     22  C   UNL     1     139.012  69.480 225.265 -0.35 -0.01    +0.084 A  
DOCKED: ATOM     23  C   UNL     1     141.395  70.188 226.547 -0.49 -0.00    +0.024 A  
DOCKED: ATOM     24  C   UNL     1     139.351  68.899 226.492 -0.49 -0.01    +0.045 A  
DOCKED: ATOM     25  C   UNL     1     140.538  69.257 227.136 -0.56 -0.01    +0.042 A  
DOCKED: ATOM     26  Cl  UNL     1     137.512  69.011 224.478 -0.29 +0.00    -0.080 Cl 
DOCKED: ATOM     27  Cl  UNL     1     140.951  68.537 228.680 -0.71 +0.02    -0.084 Cl 
DOCKED: ENDBRANCH  19  20
DOCKED: ENDBRANCH  18  19
DOCKED: ENDBRANCH  17  18
DOCKED: ENDBRANCH  16  17
DOCKED: ENDBRANCH   1  16
DOCKED: TORSDOF 10
DOCKED: TER
DOCKED: ENDMDL
________________________________________________________________________________


    FINAL DOCKED STATE:
    ________________________


Run:   15 / 20
Time taken for this run:   0.083s

DOCKED: MODEL        15
DOCKED: USER    Run = 15
DOCKED: USER
DOCKED: USER    Estimated Free Energy of Binding    =  -6.21 kcal/mol  [=(1)+(2)+(3)-(4)]
DOCKED: USER
DOCKED: USER    (1) Final Intermolecular Energy     =  -9.20 kcal/mol
DOCKED: USER        vdW + Hbond + desolv Energy     =  -9.32 kcal/mol
DOCKED: USER        Electrostatic Energy            =  +0.12 kcal/mol
DOCKED: USER        Moving Ligand-Fixed Receptor    =  -9.20 kcal/mol
DOCKED: USER        Moving Ligand-Moving Receptor   =  +0.00 kcal/mol
DOCKED: USER    (2) Final Total Internal Energy     =  -1.53 kcal/mol
DOCKED: USER    (3) Torsional Free Energy           =  +2.98 kcal/mol
DOCKED: USER    (4) Unbound System's Energy         =  -1.53 kcal/mol
DOCKED: USER
DOCKED: USER
DOCKED: REMARK SMILES O=C(CCCOc1ccc(Cl)cc1Cl)[N-]/N=C\c1cccc(C(F)(F)F)c1
DOCKED: REMARK SMILES IDX 2 1 1 2 15 3 16 4 17 5 18 6 19 7 27 8 20 9 22 10 21 11 23 12
DOCKED: REMARK SMILES IDX 24 13 25 14 26 15 3 16 4 17 5 18 6 19 7 20 8 21 13 22 9 23
DOCKED: REMARK SMILES IDX 12 24 10 25 14 26 11 27
DOCKED: REMARK H PARENT
DOCKED: USER                              x       y       z     vdW  Elec       q    Type
DOCKED: USER                           _______ _______ _______ _____ _____    ______ ____
DOCKED: ROOT
DOCKED: ATOM      1  C   UNL     1     139.983  75.165 221.883 -0.27 -0.01    +0.068 C  
DOCKED: ATOM      2  O   UNL     1     141.010  75.776 222.289 -0.39 +0.07    -0.319 OA 
DOCKED: ENDROOT
DOCKED: BRANCH   1   3
DOCKED: ATOM      3  N   UNL     1     139.698  73.850 222.355 -0.62 +0.07    -0.545 NA 
DOCKED: BRANCH   3   4
DOCKED: ATOM      4  N   UNL     1     140.717  72.909 222.561 -0.46 -0.00    -0.372 NA 
DOCKED: BRANCH   4   5
DOCKED: ATOM      5  C   UNL     1     140.480  71.645 222.752 -0.27 -0.01    +0.094 C  
DOCKED: BRANCH   5   6
DOCKED: ATOM      6  C   UNL     1     140.212  71.050 224.082 -0.42 +0.00    -0.009 A  
DOCKED: ATOM      7  C   UNL     1     139.365  69.938 224.170 -0.33 -0.00    +0.009 A  
DOCKED: ATOM      8  C   UNL     1     140.717  71.622 225.266 -0.51 -0.00    +0.022 A  
DOCKED: ATOM      9  C   UNL     1     139.080  69.361 225.409 -0.42 -0.00    +0.001 A  
DOCKED: ATOM     10  C   UNL     1     140.421  71.056 226.518 -0.58 -0.01    +0.056 A  
DOCKED: ATOM     11  C   UNL     1     139.619  69.902 226.577 -0.48 -0.00    +0.013 A  
DOCKED: BRANCH  10  12
DOCKED: ATOM     12  C   UNL     1     140.995  71.679 227.766 -0.41 -0.09    +0.416 C  
DOCKED: ATOM     13  F   UNL     1     141.895  72.667 227.411 -0.32 +0.03    -0.166 F  
DOCKED: ATOM     14  F   UNL     1     139.976  72.246 228.514 -0.29 +0.06    -0.166 F  
DOCKED: ATOM     15  F   UNL     1     141.648  70.746 228.555 -0.13 +0.03    -0.166 F  
DOCKED: ENDBRANCH  10  12
DOCKED: ENDBRANCH   5   6
DOCKED: ENDBRANCH   4   5
DOCKED: ENDBRANCH   3   4
DOCKED: ENDBRANCH   1   3
DOCKED: BRANCH   1  16
DOCKED: ATOM     16  C   UNL     1     139.097  75.776 220.840 -0.15 -0.01    +0.060 C  
DOCKED: BRANCH  16  17
DOCKED: ATOM     17  C   UNL     1     139.544  75.410 219.420 -0.06 -0.01    +0.048 C  
DOCKED: BRANCH  17  18
DOCKED: ATOM     18  C   UNL     1     140.094  73.979 219.325 -0.03 -0.05    +0.230 C  
DOCKED: BRANCH  18  19
DOCKED: ATOM     19  O   UNL     1     141.429  73.965 218.813 +0.02 +0.12    -0.492 OA 
DOCKED: BRANCH  19  20
DOCKED: ATOM     20  C   UNL     1     142.611  73.797 219.555 -0.15 -0.03    +0.137 A  
DOCKED: ATOM     21  C   UNL     1     142.995  72.555 220.104 -0.22 -0.01    +0.049 A  
DOCKED: ATOM     22  C   UNL     1     143.440  74.913 219.750 -0.33 -0.04    +0.084 A  
DOCKED: ATOM     23  C   UNL     1     144.202  72.436 220.801 -0.37 -0.00    +0.024 A  
DOCKED: ATOM     24  C   UNL     1     144.646  74.785 220.448 -0.38 -0.02    +0.045 A  
DOCKED: ATOM     25  C   UNL     1     145.030  73.546 220.967 -0.52 -0.01    +0.042 A  
DOCKED: ATOM     26  Cl  UNL     1     142.982  76.484 219.106 -0.45 +0.05    -0.080 Cl 
DOCKED: ATOM     27  Cl  UNL     1     146.549  73.389 221.828 -0.79 +0.01    -0.084 Cl 
DOCKED: ENDBRANCH  19  20
DOCKED: ENDBRANCH  18  19
DOCKED: ENDBRANCH  17  18
DOCKED: ENDBRANCH  16  17
DOCKED: ENDBRANCH   1  16
DOCKED: TORSDOF 10
DOCKED: TER
DOCKED: ENDMDL
________________________________________________________________________________


    FINAL DOCKED STATE:
    ________________________


Run:   16 / 20
Time taken for this run:   0.083s

DOCKED: MODEL        16
DOCKED: USER    Run = 16
DOCKED: USER
DOCKED: USER    Estimated Free Energy of Binding    =  -6.44 kcal/mol  [=(1)+(2)+(3)-(4)]
DOCKED: USER
DOCKED: USER    (1) Final Intermolecular Energy     =  -9.42 kcal/mol
DOCKED: USER        vdW + Hbond + desolv Energy     =  -9.44 kcal/mol
DOCKED: USER        Electrostatic Energy            =  +0.02 kcal/mol
DOCKED: USER        Moving Ligand-Fixed Receptor    =  -9.42 kcal/mol
DOCKED: USER        Moving Ligand-Moving Receptor   =  +0.00 kcal/mol
DOCKED: USER    (2) Final Total Internal Energy     =  -0.71 kcal/mol
DOCKED: USER    (3) Torsional Free Energy           =  +2.98 kcal/mol
DOCKED: USER    (4) Unbound System's Energy         =  -0.71 kcal/mol
DOCKED: USER
DOCKED: USER
DOCKED: REMARK SMILES O=C(CCCOc1ccc(Cl)cc1Cl)[N-]/N=C\c1cccc(C(F)(F)F)c1
DOCKED: REMARK SMILES IDX 2 1 1 2 15 3 16 4 17 5 18 6 19 7 27 8 20 9 22 10 21 11 23 12
DOCKED: REMARK SMILES IDX 24 13 25 14 26 15 3 16 4 17 5 18 6 19 7 20 8 21 13 22 9 23
DOCKED: REMARK SMILES IDX 12 24 10 25 14 26 11 27
DOCKED: REMARK H PARENT
DOCKED: USER                              x       y       z     vdW  Elec       q    Type
DOCKED: USER                           _______ _______ _______ _____ _____    ______ ____
DOCKED: ROOT
DOCKED: ATOM      1  C   UNL     1     141.302  73.631 221.087 -0.25 -0.01    +0.068 C  
DOCKED: ATOM      2  O   UNL     1     141.334  72.936 220.034 -0.06 +0.06    -0.319 OA 
DOCKED: ENDROOT
DOCKED: BRANCH   1   3
DOCKED: ATOM      3  N   UNL     1     141.041  73.013 222.346 -0.32 -0.01    -0.545 NA 
DOCKED: BRANCH   3   4
DOCKED: ATOM      4  N   UNL     1     139.754  72.580 222.696 -0.34 +0.07    -0.372 NA 
DOCKED: BRANCH   4   5
DOCKED: ATOM      5  C   UNL     1     139.523  71.414 223.222 -0.30 -0.02    +0.094 C  
DOCKED: BRANCH   5   6
DOCKED: ATOM      6  C   UNL     1     139.983  71.015 224.573 -0.46 +0.00    -0.009 A  
DOCKED: ATOM      7  C   UNL     1     140.712  71.933 225.339 -0.33 -0.00    +0.009 A  
DOCKED: ATOM      8  C   UNL     1     139.780  69.714 225.073 -0.40 -0.00    +0.022 A  
DOCKED: ATOM      9  C   UNL     1     141.173  71.586 226.611 -0.72 -0.00    +0.001 A  
DOCKED: ATOM     10  C   UNL     1     140.256  69.352 226.345 -0.49 -0.01    +0.056 A  
DOCKED: ATOM     11  C   UNL     1     140.932  70.310 227.122 -0.59 -0.00    +0.013 A  
DOCKED: BRANCH  10  12
DOCKED: ATOM     12  C   UNL     1     140.003  67.957 226.860 -0.31 -0.08    +0.416 C  
DOCKED: ATOM     13  F   UNL     1     141.052  67.137 226.492 -0.22 +0.05    -0.166 F  
DOCKED: ATOM     14  F   UNL     1     139.914  67.982 228.242 -0.17 +0.04    -0.166 F  
DOCKED: ATOM     15  F   UNL     1     138.826  67.428 226.357 -0.20 -0.00    -0.166 F  
DOCKED: ENDBRANCH  10  12
DOCKED: ENDBRANCH   5   6
DOCKED: ENDBRANCH   4   5
DOCKED: ENDBRANCH   3   4
DOCKED: ENDBRANCH   1   3
DOCKED: BRANCH   1  16
DOCKED: ATOM     16  C   UNL     1     141.454  75.121 221.022 -0.29 -0.02    +0.060 C  
DOCKED: BRANCH  16  17
DOCKED: ATOM     17  C   UNL     1     142.494  75.546 219.978 -0.30 -0.02    +0.048 C  
DOCKED: BRANCH  17  18
DOCKED: ATOM     18  C   UNL     1     142.106  76.844 219.253 -0.20 -0.12    +0.230 C  
DOCKED: BRANCH  18  19
DOCKED: ATOM     19  O   UNL     1     141.166  77.606 220.014 -0.04 +0.23    -0.492 OA 
DOCKED: BRANCH  19  20
DOCKED: ATOM     20  C   UNL     1     141.463  78.528 221.034 -0.27 -0.07    +0.137 A  
DOCKED: ATOM     21  C   UNL     1     141.412  78.190 222.404 -0.42 -0.02    +0.049 A  
DOCKED: ATOM     22  C   UNL     1     141.826  79.833 220.667 -0.30 -0.04    +0.084 A  
DOCKED: ATOM     23  C   UNL     1     141.754  79.136 223.375 -0.58 -0.01    +0.024 A  
DOCKED: ATOM     24  C   UNL     1     142.168  80.773 221.646 -0.41 -0.01    +0.045 A  
DOCKED: ATOM     25  C   UNL     1     142.139  80.423 222.998 -0.58 -0.01    +0.042 A  
DOCKED: ATOM     26  Cl  UNL     1     141.872  80.300 218.974 -0.37 +0.05    -0.080 Cl 
DOCKED: ATOM     27  Cl  UNL     1     142.582  81.601 224.219 -0.53 +0.01    -0.084 Cl 
DOCKED: ENDBRANCH  19  20
DOCKED: ENDBRANCH  18  19
DOCKED: ENDBRANCH  17  18
DOCKED: ENDBRANCH  16  17
DOCKED: ENDBRANCH   1  16
DOCKED: TORSDOF 10
DOCKED: TER
DOCKED: ENDMDL
________________________________________________________________________________


    FINAL DOCKED STATE:
    ________________________


Run:   17 / 20
Time taken for this run:   0.083s

DOCKED: MODEL        17
DOCKED: USER    Run = 17
DOCKED: USER
DOCKED: USER    Estimated Free Energy of Binding    =  -6.53 kcal/mol  [=(1)+(2)+(3)-(4)]
DOCKED: USER
DOCKED: USER    (1) Final Intermolecular Energy     =  -9.52 kcal/mol
DOCKED: USER        vdW + Hbond + desolv Energy     =  -9.56 kcal/mol
DOCKED: USER        Electrostatic Energy            =  +0.05 kcal/mol
DOCKED: USER        Moving Ligand-Fixed Receptor    =  -9.52 kcal/mol
DOCKED: USER        Moving Ligand-Moving Receptor   =  +0.00 kcal/mol
DOCKED: USER    (2) Final Total Internal Energy     =  -0.84 kcal/mol
DOCKED: USER    (3) Torsional Free Energy           =  +2.98 kcal/mol
DOCKED: USER    (4) Unbound System's Energy         =  -0.84 kcal/mol
DOCKED: USER
DOCKED: USER
DOCKED: REMARK SMILES O=C(CCCOc1ccc(Cl)cc1Cl)[N-]/N=C\c1cccc(C(F)(F)F)c1
DOCKED: REMARK SMILES IDX 2 1 1 2 15 3 16 4 17 5 18 6 19 7 27 8 20 9 22 10 21 11 23 12
DOCKED: REMARK SMILES IDX 24 13 25 14 26 15 3 16 4 17 5 18 6 19 7 20 8 21 13 22 9 23
DOCKED: REMARK SMILES IDX 12 24 10 25 14 26 11 27
DOCKED: REMARK H PARENT
DOCKED: USER                              x       y       z     vdW  Elec       q    Type
DOCKED: USER                           _______ _______ _______ _____ _____    ______ ____
DOCKED: ROOT
DOCKED: ATOM      1  C   UNL     1     140.435  74.526 221.031 -0.24 -0.01    +0.068 C  
DOCKED: ATOM      2  O   UNL     1     141.313  74.460 220.128 -0.09 +0.08    -0.319 OA 
DOCKED: ENDROOT
DOCKED: BRANCH   1   3
DOCKED: ATOM      3  N   UNL     1     140.661  73.913 222.298 -0.49 -0.04    -0.545 NA 
DOCKED: BRANCH   3   4
DOCKED: ATOM      4  N   UNL     1     139.815  72.907 222.787 -0.45 +0.06    -0.372 NA 
DOCKED: BRANCH   4   5
DOCKED: ATOM      5  C   UNL     1     140.204  71.678 222.949 -0.31 -0.01    +0.094 C  
DOCKED: BRANCH   5   6
DOCKED: ATOM      6  C   UNL     1     140.279  71.006 224.268 -0.44 +0.00    -0.009 A  
DOCKED: ATOM      7  C   UNL     1     139.930  69.653 224.361 -0.29 -0.00    +0.009 A  
DOCKED: ATOM      8  C   UNL     1     140.611  71.711 225.442 -0.48 -0.00    +0.022 A  
DOCKED: ATOM      9  C   UNL     1     139.977  68.993 225.590 -0.47 -0.00    +0.001 A  
DOCKED: ATOM     10  C   UNL     1     140.644  71.056 226.685 -0.61 -0.01    +0.056 A  
DOCKED: ATOM     11  C   UNL     1     140.350  69.682 226.745 -0.55 -0.00    +0.013 A  
DOCKED: BRANCH  10  12
DOCKED: ATOM     12  C   UNL     1     141.025  71.834 227.921 -0.41 -0.09    +0.416 C  
DOCKED: ATOM     13  F   UNL     1     141.784  71.031 228.751 -0.16 +0.03    -0.166 F  
DOCKED: ATOM     14  F   UNL     1     141.772  72.942 227.560 -0.30 +0.04    -0.166 F  
DOCKED: ATOM     15  F   UNL     1     139.910  72.268 228.620 -0.28 +0.06    -0.166 F  
DOCKED: ENDBRANCH  10  12
DOCKED: ENDBRANCH   5   6
DOCKED: ENDBRANCH   4   5
DOCKED: ENDBRANCH   3   4
DOCKED: ENDBRANCH   1   3
DOCKED: BRANCH   1  16
DOCKED: ATOM     16  C   UNL     1     139.111  75.177 220.759 -0.15 -0.01    +0.060 C  
DOCKED: BRANCH  16  17
DOCKED: ATOM     17  C   UNL     1     138.170  75.090 221.967 -0.22 -0.01    +0.048 C  
DOCKED: BRANCH  17  18
DOCKED: ATOM     18  C   UNL     1     137.922  76.457 222.621 -0.21 -0.05    +0.230 C  
DOCKED: BRANCH  18  19
DOCKED: ATOM     19  O   UNL     1     138.647  77.494 221.955 -0.06 +0.10    -0.492 OA 
DOCKED: BRANCH  19  20
DOCKED: ATOM     20  C   UNL     1     139.689  78.270 222.494 -0.27 -0.03    +0.137 A  
DOCKED: ATOM     21  C   UNL     1     141.042  77.873 222.439 -0.43 -0.02    +0.049 A  
DOCKED: ATOM     22  C   UNL     1     139.362  79.489 223.108 -0.32 -0.01    +0.084 A  
DOCKED: ATOM     23  C   UNL     1     142.041  78.702 222.957 -0.46 -0.01    +0.024 A  
DOCKED: ATOM     24  C   UNL     1     140.368  80.313 223.624 -0.42 -0.01    +0.045 A  
DOCKED: ATOM     25  C   UNL     1     141.707  79.924 223.543 -0.57 -0.01    +0.042 A  
DOCKED: ATOM     26  Cl  UNL     1     137.685  80.005 223.224 -0.32 +0.01    -0.080 Cl 
DOCKED: ATOM     27  Cl  UNL     1     142.965  80.967 224.177 -0.59 +0.01    -0.084 Cl 
DOCKED: ENDBRANCH  19  20
DOCKED: ENDBRANCH  18  19
DOCKED: ENDBRANCH  17  18
DOCKED: ENDBRANCH  16  17
DOCKED: ENDBRANCH   1  16
DOCKED: TORSDOF 10
DOCKED: TER
DOCKED: ENDMDL
________________________________________________________________________________


    FINAL DOCKED STATE:
    ________________________


Run:   18 / 20
Time taken for this run:   0.083s

DOCKED: MODEL        18
DOCKED: USER    Run = 18
DOCKED: USER
DOCKED: USER    Estimated Free Energy of Binding    =  -6.70 kcal/mol  [=(1)+(2)+(3)-(4)]
DOCKED: USER
DOCKED: USER    (1) Final Intermolecular Energy     =  -9.68 kcal/mol
DOCKED: USER        vdW + Hbond + desolv Energy     =  -9.91 kcal/mol
DOCKED: USER        Electrostatic Energy            =  +0.23 kcal/mol
DOCKED: USER        Moving Ligand-Fixed Receptor    =  -9.68 kcal/mol
DOCKED: USER        Moving Ligand-Moving Receptor   =  +0.00 kcal/mol
DOCKED: USER    (2) Final Total Internal Energy     =  -0.88 kcal/mol
DOCKED: USER    (3) Torsional Free Energy           =  +2.98 kcal/mol
DOCKED: USER    (4) Unbound System's Energy         =  -0.88 kcal/mol
DOCKED: USER
DOCKED: USER
DOCKED: REMARK SMILES O=C(CCCOc1ccc(Cl)cc1Cl)[N-]/N=C\c1cccc(C(F)(F)F)c1
DOCKED: REMARK SMILES IDX 2 1 1 2 15 3 16 4 17 5 18 6 19 7 27 8 20 9 22 10 21 11 23 12
DOCKED: REMARK SMILES IDX 24 13 25 14 26 15 3 16 4 17 5 18 6 19 7 20 8 21 13 22 9 23
DOCKED: REMARK SMILES IDX 12 24 10 25 14 26 11 27
DOCKED: REMARK H PARENT
DOCKED: USER                              x       y       z     vdW  Elec       q    Type
DOCKED: USER                           _______ _______ _______ _____ _____    ______ ____
DOCKED: ROOT
DOCKED: ATOM      1  C   UNL     1     139.742  74.935 221.855 -0.26 -0.01    +0.068 C  
DOCKED: ATOM      2  O   UNL     1     139.445  75.815 222.709 -0.40 +0.05    -0.319 OA 
DOCKED: ENDROOT
DOCKED: BRANCH   1   3
DOCKED: ATOM      3  N   UNL     1     139.538  73.555 222.147 -0.44 +0.10    -0.545 NA 
DOCKED: BRANCH   3   4
DOCKED: ATOM      4  N   UNL     1     140.523  72.787 222.784 -0.44 +0.01    -0.372 NA 
DOCKED: BRANCH   4   5
DOCKED: ATOM      5  C   UNL     1     140.406  71.506 222.972 -0.29 -0.01    +0.094 C  
DOCKED: BRANCH   5   6
DOCKED: ATOM      6  C   UNL     1     140.241  70.882 224.306 -0.43 +0.00    -0.009 A  
DOCKED: ATOM      7  C   UNL     1     139.549  69.669 224.406 -0.34 -0.00    +0.009 A  
DOCKED: ATOM      8  C   UNL     1     140.688  71.515 225.482 -0.57 -0.00    +0.022 A  
DOCKED: ATOM      9  C   UNL     1     139.363  69.060 225.649 -0.46 -0.00    +0.001 A  
DOCKED: ATOM     10  C   UNL     1     140.491  70.916 226.738 -0.59 -0.01    +0.056 A  
DOCKED: ATOM     11  C   UNL     1     139.847  69.668 226.808 -0.53 -0.00    +0.013 A  
DOCKED: BRANCH  10  12
DOCKED: ATOM     12  C   UNL     1     141.001  71.609 227.977 -0.40 -0.09    +0.416 C  
DOCKED: ATOM     13  F   UNL     1     139.929  72.070 228.717 -0.29 +0.05    -0.166 F  
DOCKED: ATOM     14  F   UNL     1     141.727  70.714 228.744 -0.12 +0.03    -0.166 F  
DOCKED: ATOM     15  F   UNL     1     141.820  72.682 227.666 -0.32 +0.04    -0.166 F  
DOCKED: ENDBRANCH  10  12
DOCKED: ENDBRANCH   5   6
DOCKED: ENDBRANCH   4   5
DOCKED: ENDBRANCH   3   4
DOCKED: ENDBRANCH   1   3
DOCKED: BRANCH   1  16
DOCKED: ATOM     16  C   UNL     1     140.390  75.321 220.559 -0.19 -0.02    +0.060 C  
DOCKED: BRANCH  16  17
DOCKED: ATOM     17  C   UNL     1     141.759  75.975 220.774 -0.22 -0.02    +0.048 C  
DOCKED: BRANCH  17  18
DOCKED: ATOM     18  C   UNL     1     141.771  77.461 220.384 -0.21 -0.13    +0.230 C  
DOCKED: BRANCH  18  19
DOCKED: ATOM     19  O   UNL     1     141.906  78.301 221.533 -0.12 +0.31    -0.492 OA 
DOCKED: BRANCH  19  20
DOCKED: ATOM     20  C   UNL     1     140.869  78.951 222.225 -0.31 -0.05    +0.137 A  
DOCKED: ATOM     21  C   UNL     1     139.512  78.590 222.077 -0.25 -0.01    +0.049 A  
DOCKED: ATOM     22  C   UNL     1     141.204  79.997 223.098 -0.45 -0.02    +0.084 A  
DOCKED: ATOM     23  C   UNL     1     138.524  79.245 222.819 -0.28 -0.00    +0.024 A  
DOCKED: ATOM     24  C   UNL     1     140.209  80.647 223.838 -0.37 -0.01    +0.045 A  
DOCKED: ATOM     25  C   UNL     1     138.872  80.267 223.704 -0.38 -0.01    +0.042 A  
DOCKED: ATOM     26  Cl  UNL     1     142.879  80.496 223.288 -0.80 +0.02    -0.080 Cl 
DOCKED: ATOM     27  Cl  UNL     1     137.631  81.075 224.644 -0.46 +0.01    -0.084 Cl 
DOCKED: ENDBRANCH  19  20
DOCKED: ENDBRANCH  18  19
DOCKED: ENDBRANCH  17  18
DOCKED: ENDBRANCH  16  17
DOCKED: ENDBRANCH   1  16
DOCKED: TORSDOF 10
DOCKED: TER
DOCKED: ENDMDL
________________________________________________________________________________


    FINAL DOCKED STATE:
    ________________________


Run:   19 / 20
Time taken for this run:   0.083s

DOCKED: MODEL        19
DOCKED: USER    Run = 19
DOCKED: USER
DOCKED: USER    Estimated Free Energy of Binding    =  -5.13 kcal/mol  [=(1)+(2)+(3)-(4)]
DOCKED: USER
DOCKED: USER    (1) Final Intermolecular Energy     =  -8.12 kcal/mol
DOCKED: USER        vdW + Hbond + desolv Energy     =  -8.15 kcal/mol
DOCKED: USER        Electrostatic Energy            =  +0.03 kcal/mol
DOCKED: USER        Moving Ligand-Fixed Receptor    =  -8.12 kcal/mol
DOCKED: USER        Moving Ligand-Moving Receptor   =  +0.00 kcal/mol
DOCKED: USER    (2) Final Total Internal Energy     =  -1.45 kcal/mol
DOCKED: USER    (3) Torsional Free Energy           =  +2.98 kcal/mol
DOCKED: USER    (4) Unbound System's Energy         =  -1.45 kcal/mol
DOCKED: USER
DOCKED: USER
DOCKED: REMARK SMILES O=C(CCCOc1ccc(Cl)cc1Cl)[N-]/N=C\c1cccc(C(F)(F)F)c1
DOCKED: REMARK SMILES IDX 2 1 1 2 15 3 16 4 17 5 18 6 19 7 27 8 20 9 22 10 21 11 23 12
DOCKED: REMARK SMILES IDX 24 13 25 14 26 15 3 16 4 17 5 18 6 19 7 20 8 21 13 22 9 23
DOCKED: REMARK SMILES IDX 12 24 10 25 14 26 11 27
DOCKED: REMARK H PARENT
DOCKED: USER                              x       y       z     vdW  Elec       q    Type
DOCKED: USER                           _______ _______ _______ _____ _____    ______ ____
DOCKED: ROOT
DOCKED: ATOM      1  C   UNL     1     141.158  72.941 221.608 -0.25 -0.01    +0.068 C  
DOCKED: ATOM      2  O   UNL     1     141.166  71.822 222.191 -0.18 +0.02    -0.319 OA 
DOCKED: ENDROOT
DOCKED: BRANCH   1   3
DOCKED: ATOM      3  N   UNL     1     140.266  73.967 222.038 -0.65 +0.03    -0.545 NA 
DOCKED: BRANCH   3   4
DOCKED: ATOM      4  N   UNL     1     140.619  75.322 221.964 -0.49 +0.06    -0.372 NA 
DOCKED: BRANCH   4   5
DOCKED: ATOM      5  C   UNL     1     139.740  76.272 221.848 -0.30 -0.02    +0.094 C  
DOCKED: BRANCH   5   6
DOCKED: ATOM      6  C   UNL     1     139.895  77.615 222.455 -0.36 +0.00    -0.009 A  
DOCKED: ATOM      7  C   UNL     1     138.765  78.256 222.980 -0.28 -0.00    +0.009 A  
DOCKED: ATOM      8  C   UNL     1     141.126  78.297 222.444 -0.45 -0.01    +0.022 A  
DOCKED: ATOM      9  C   UNL     1     138.872  79.527 223.548 -0.37 -0.00    +0.001 A  
DOCKED: ATOM     10  C   UNL     1     141.238  79.584 223.000 -0.47 -0.02    +0.056 A  
DOCKED: ATOM     11  C   UNL     1     140.104  80.182 223.577 -0.44 -0.00    +0.013 A  
DOCKED: BRANCH  10  12
DOCKED: ATOM     12  C   UNL     1     142.577  80.279 222.992 -0.32 -0.13    +0.416 C  
DOCKED: ATOM     13  F   UNL     1     142.580  81.254 222.013 -0.14 +0.04    -0.166 F  
DOCKED: ATOM     14  F   UNL     1     142.798  80.875 224.222 -0.24 +0.03    -0.166 F  
DOCKED: ATOM     15  F   UNL     1     143.614  79.396 222.743 -0.15 +0.09    -0.166 F  
DOCKED: ENDBRANCH  10  12
DOCKED: ENDBRANCH   5   6
DOCKED: ENDBRANCH   4   5
DOCKED: ENDBRANCH   3   4
DOCKED: ENDBRANCH   1   3
DOCKED: BRANCH   1  16
DOCKED: ATOM     16  C   UNL     1     142.023  73.180 220.407 -0.21 -0.01    +0.060 C  
DOCKED: BRANCH  16  17
DOCKED: ATOM     17  C   UNL     1     143.502  73.330 220.785 -0.27 -0.01    +0.048 C  
DOCKED: BRANCH  17  18
DOCKED: ATOM     18  C   UNL     1     144.224  74.385 219.935 -0.28 -0.09    +0.230 C  
DOCKED: BRANCH  18  19
DOCKED: ATOM     19  O   UNL     1     143.372  74.904 218.911 -0.07 +0.20    -0.492 OA 
DOCKED: BRANCH  19  20
DOCKED: ATOM     20  C   UNL     1     143.023  76.251 218.712 -0.26 -0.08    +0.137 A  
DOCKED: ATOM     21  C   UNL     1     142.468  77.053 219.732 -0.32 -0.03    +0.049 A  
DOCKED: ATOM     22  C   UNL     1     143.241  76.815 217.445 -0.24 -0.06    +0.084 A  
DOCKED: ATOM     23  C   UNL     1     142.175  78.399 219.490 -0.24 -0.02    +0.024 A  
DOCKED: ATOM     24  C   UNL     1     142.946  78.163 217.211 -0.24 -0.05    +0.045 A  
DOCKED: ATOM     25  C   UNL     1     142.420  78.956 218.234 -0.31 -0.03    +0.042 A  
DOCKED: ATOM     26  Cl  UNL     1     143.903  75.842 216.140 -0.25 +0.04    -0.080 Cl 
DOCKED: ATOM     27  Cl  UNL     1     142.066  80.648 217.939 -0.37 +0.06    -0.084 Cl 
DOCKED: ENDBRANCH  19  20
DOCKED: ENDBRANCH  18  19
DOCKED: ENDBRANCH  17  18
DOCKED: ENDBRANCH  16  17
DOCKED: ENDBRANCH   1  16
DOCKED: TORSDOF 10
DOCKED: TER
DOCKED: ENDMDL
________________________________________________________________________________


    FINAL DOCKED STATE:
    ________________________


Run:   20 / 20
Time taken for this run:   0.083s

DOCKED: MODEL        20
DOCKED: USER    Run = 20
DOCKED: USER
DOCKED: USER    Estimated Free Energy of Binding    =  -6.72 kcal/mol  [=(1)+(2)+(3)-(4)]
DOCKED: USER
DOCKED: USER    (1) Final Intermolecular Energy     =  -9.70 kcal/mol
DOCKED: USER        vdW + Hbond + desolv Energy     =  -9.93 kcal/mol
DOCKED: USER        Electrostatic Energy            =  +0.22 kcal/mol
DOCKED: USER        Moving Ligand-Fixed Receptor    =  -9.70 kcal/mol
DOCKED: USER        Moving Ligand-Moving Receptor   =  +0.00 kcal/mol
DOCKED: USER    (2) Final Total Internal Energy     =  -0.95 kcal/mol
DOCKED: USER    (3) Torsional Free Energy           =  +2.98 kcal/mol
DOCKED: USER    (4) Unbound System's Energy         =  -0.95 kcal/mol
DOCKED: USER
DOCKED: USER
DOCKED: REMARK SMILES O=C(CCCOc1ccc(Cl)cc1Cl)[N-]/N=C\c1cccc(C(F)(F)F)c1
DOCKED: REMARK SMILES IDX 2 1 1 2 15 3 16 4 17 5 18 6 19 7 27 8 20 9 22 10 21 11 23 12
DOCKED: REMARK SMILES IDX 24 13 25 14 26 15 3 16 4 17 5 18 6 19 7 20 8 21 13 22 9 23
DOCKED: REMARK SMILES IDX 12 24 10 25 14 26 11 27
DOCKED: REMARK H PARENT
DOCKED: USER                              x       y       z     vdW  Elec       q    Type
DOCKED: USER                           _______ _______ _______ _____ _____    ______ ____
DOCKED: ROOT
DOCKED: ATOM      1  C   UNL     1     139.828  75.029 221.903 -0.26 -0.01    +0.068 C  
DOCKED: ATOM      2  O   UNL     1     139.618  75.975 222.711 -0.38 +0.05    -0.319 OA 
DOCKED: ENDROOT
DOCKED: BRANCH   1   3
DOCKED: ATOM      3  N   UNL     1     139.590  73.680 222.302 -0.58 +0.09    -0.545 NA 
DOCKED: BRANCH   3   4
DOCKED: ATOM      4  N   UNL     1     140.633  72.852 222.743 -0.44 -0.00    -0.372 NA 
DOCKED: BRANCH   4   5
DOCKED: ATOM      5  C   UNL     1     140.490  71.572 222.913 -0.28 -0.01    +0.094 C  
DOCKED: BRANCH   5   6
DOCKED: ATOM      6  C   UNL     1     140.296  70.935 224.237 -0.43 +0.00    -0.009 A  
DOCKED: ATOM      7  C   UNL     1     139.574  69.738 224.315 -0.34 -0.00    +0.009 A  
DOCKED: ATOM      8  C   UNL     1     140.745  71.543 225.426 -0.55 -0.00    +0.022 A  
DOCKED: ATOM      9  C   UNL     1     139.361  69.117 225.547 -0.45 -0.00    +0.001 A  
DOCKED: ATOM     10  C   UNL     1     140.519  70.932 226.672 -0.59 -0.01    +0.056 A  
DOCKED: ATOM     11  C   UNL     1     139.846  69.699 226.720 -0.52 -0.00    +0.013 A  
DOCKED: BRANCH  10  12
DOCKED: ATOM     12  C   UNL     1     141.032  71.598 227.925 -0.40 -0.09    +0.416 C  
DOCKED: ATOM     13  F   UNL     1     141.825  72.676 227.579 -0.34 +0.03    -0.166 F  
DOCKED: ATOM     14  F   UNL     1     139.963  72.049 228.682 -0.29 +0.05    -0.166 F  
DOCKED: ATOM     15  F   UNL     1     141.779  70.728 228.702 -0.12 +0.03    -0.166 F  
DOCKED: ENDBRANCH  10  12
DOCKED: ENDBRANCH   5   6
DOCKED: ENDBRANCH   4   5
DOCKED: ENDBRANCH   3   4
DOCKED: ENDBRANCH   1   3
DOCKED: BRANCH   1  16
DOCKED: ATOM     16  C   UNL     1     140.407  75.300 220.547 -0.19 -0.02    +0.060 C  
DOCKED: BRANCH  16  17
DOCKED: ATOM     17  C   UNL     1     141.801  75.932 220.634 -0.24 -0.02    +0.048 C  
DOCKED: BRANCH  17  18
DOCKED: ATOM     18  C   UNL     1     141.838  77.358 220.065 -0.21 -0.13    +0.230 C  
DOCKED: BRANCH  18  19
DOCKED: ATOM     19  O   UNL     1     142.033  78.328 221.098 -0.11 +0.34    -0.492 OA 
DOCKED: BRANCH  19  20
DOCKED: ATOM     20  C   UNL     1     141.034  78.927 221.885 -0.29 -0.05    +0.137 A  
DOCKED: ATOM     21  C   UNL     1     139.660  78.656 221.709 -0.21 -0.01    +0.049 A  
DOCKED: ATOM     22  C   UNL     1     141.427  79.829 222.886 -0.46 -0.02    +0.084 A  
DOCKED: ATOM     23  C   UNL     1     138.711  79.252 222.546 -0.26 -0.00    +0.024 A  
DOCKED: ATOM     24  C   UNL     1     140.471  80.420 223.720 -0.41 -0.01    +0.045 A  
DOCKED: ATOM     25  C   UNL     1     139.115  80.127 223.555 -0.38 -0.01    +0.042 A  
DOCKED: ATOM     26  Cl  UNL     1     143.126  80.216 223.118 -0.73 +0.03    -0.080 Cl 
DOCKED: ATOM     27  Cl  UNL     1     137.924  80.859 224.612 -0.46 +0.01    -0.084 Cl 
DOCKED: ENDBRANCH  19  20
DOCKED: ENDBRANCH  18  19
DOCKED: ENDBRANCH  17  18
DOCKED: ENDBRANCH  16  17
DOCKED: ENDBRANCH   1  16
DOCKED: TORSDOF 10
DOCKED: TER
DOCKED: ENDMDL
________________________________________________________________________________


    CLUSTERING HISTOGRAM
    ____________________


________________________________________________________________________________
     |           |     |           |     |
Clus | Lowest    | Run | Mean      | Num | Histogram
-ter | Binding   |     | Binding   | in  |
Rank | Energy    |     | Energy    | Clus|    5    10   15   20   25   30   35
_____|___________|_____|___________|_____|____:____|____:____|____:____|____:___
   1 |     -6.78 |   8 |     -6.62 |   6 |######
   2 |     -6.77 |   7 |     -6.51 |   3 |###
   3 |     -6.48 |  11 |     -6.38 |   3 |###
   4 |     -6.21 |  15 |     -6.11 |   3 |###
   5 |     -6.21 |  13 |     -6.14 |   3 |###
   6 |     -6.18 |   6 |     -6.18 |   1 |#
   7 |     -5.13 |  19 |     -5.13 |   1 |#
_____|___________|_____|___________|_____|______________________________________


    RMSD TABLE
    __________


_______________________________________________________________________
     |      |      |           |         |                 |
Rank | Sub- | Run  | Binding   | Cluster | Reference       | Grep
     | Rank |      | Energy    | RMSD    | RMSD            | Pattern
_____|______|______|___________|_________|_________________|___________
   1      1      8       -6.78      0.00    274.05           RANKING
   1      2     20       -6.72      1.75    274.16           RANKING
   1      3     18       -6.70      1.82    274.20           RANKING
   1      4      9       -6.64      0.62    273.95           RANKING
   1      5     17       -6.53      1.92    274.09           RANKING
   1      6      3       -6.37      1.83    273.99           RANKING
   2      1      7       -6.77      0.00    274.06           RANKING
   2      2      2       -6.51      1.62    274.14           RANKING
   2      3      1       -6.24      1.94    274.10           RANKING
   3      1     11       -6.48      0.00    273.91           RANKING
   3      2     16       -6.44      1.31    273.75           RANKING
   3      3     10       -6.24      0.91    273.58           RANKING
   4      1     15       -6.21      0.00    273.30           RANKING
   4      2      5       -6.17      0.60    273.30           RANKING
   4      3     12       -5.93      1.65    273.13           RANKING
   5      1     13       -6.21      0.00    273.76           RANKING
   5      2      4       -6.15      1.48    273.72           RANKING
   5      3     14       -6.06      1.52    273.66           RANKING
   6      1      6       -6.18      0.00    272.37           RANKING
   7      1     19       -5.13      0.00    273.04           RANKING

Run time 1.636 sec
Idle time 0.000 sec
