AutoDock-GPU version: v1.6

**********************************************************
**    AutoDock-GPU AUTODOCKTOOLS-COMPATIBLE DLG FILE    **
**********************************************************


    DOCKING PARAMETERS
    ________________________


Ligand file:                               /home/a/REINVENT4/ReinventStudies/scoringData/graph-dock-34dfml/graph-DockGPU/node-autodockgpu/inputs/XUFANRSCLZKORJ-OUKQBFOZNA-N.pdbqt
Grid fld file:                             /home/a/REINVENT4/ReinventStudies/mols/Rad51/maps/rad51_receptor.maps.fld

Random seed:                               42
Number of runs:                            20
Number of energy evaluations:              1132076
Number of generations:                     42000
Size of population:                        150
Rate of crossover:                         80.000000%
Tournament selection probability limit:    60.000000%
Rate of mutation:                          2.000000%
Maximal allowed delta movement:            +/- 6.000000A
Maximal allowed delta angle:               +/- 90.000000

Rate of local search:                      100.000000%
Maximal number of local search iterations: 300
Rho lower bound:                           0.010000
Spread of local search delta movement:     2.000000A
Spread of local search delta angle:        74.999999
Limit of consecutive successes/failures:   4

Handle symmetry during clustering:         YES
RMSD tolerance:                            2.000000A

Program call in command line was:          /home/a/REINVENT4/ReinventStudies/adgpu-v1.6_linux_x64_cuda12_128wi --filelist batch.txt --heuristics 1 --nrun 20 --psize 150 --lsit 300 --seed 42 --heurmax 12000000 


    GRID PARAMETERS
    ________________________


Receptor name:                             rad51_receptor
Number of grid points (x, y, z):           53, 53, 53
Grid center (x, y, z):                     139.950000, 75.640000, 221.970000A
Grid size (x, y, z):                       19.500000, 19.500000, 19.500000A
Grid spacing:                              0.375000A


    LIGAND PARAMETERS
    ________________________


Ligand name:                               /home/a/REINVENT4/ReinventStudies/scoringData/graph-dock-34dfml/graph-DockGPU/node-autodockgpu/inputs/XUFANRSCLZKORJ-OUKQBFOZNA-N
Number of atoms:                           26
Number of rotatable bonds:                 5
Number of atom types:                      5


    DUMMY DATA (only for ADT-compatibility)
    ________________________


DPF> outlev 1
DPF> ga_run 20
DPF> fld /home/a/REINVENT4/ReinventStudies/mols/Rad51/maps/rad51_receptor.maps.fld
DPF> move /home/a/REINVENT4/ReinventStudies/scoringData/graph-dock-34dfml/graph-DockGPU/node-autodockgpu/inputs/XUFANRSCLZKORJ-OUKQBFOZNA-N.pdbqt


    COUNTER STATES
    ________________________


Number of energy evaluations performed:    971020
Number of generations used:                40


    INPUT LIGAND PDBQT FILE:
    ________________________


INPUT-LIGAND-PDBQT: REMARK SMILES O=c1c2ccccc2nc(/C=C/c2cccnc2)n1CC1CCCCC1
INPUT-LIGAND-PDBQT: REMARK SMILES IDX 10 1 9 2 8 3 7 4 6 5 5 6 4 7 3 8 2 9 1 10 19 11 11 12 12 13
INPUT-LIGAND-PDBQT: REMARK SMILES IDX 13 14 18 15 14 16 17 17 15 18 16 19 20 20 21 21 22 22 26 23
INPUT-LIGAND-PDBQT: REMARK SMILES IDX 23 24 25 25 24 26
INPUT-LIGAND-PDBQT: REMARK H PARENT
INPUT-LIGAND-PDBQT: ROOT
INPUT-LIGAND-PDBQT: ATOM      1  C   UNL     1      -1.219   0.935  -0.535  1.00  0.00     0.136 A 
INPUT-LIGAND-PDBQT: ATOM      2  N   UNL     1      -1.398   2.272  -0.716  1.00  0.00    -0.230 NA
INPUT-LIGAND-PDBQT: ATOM      3  C   UNL     1      -1.984   3.057   0.214  1.00  0.00     0.078 A 
INPUT-LIGAND-PDBQT: ATOM      4  C   UNL     1      -2.136   4.429  -0.023  1.00  0.00     0.029 A 
INPUT-LIGAND-PDBQT: ATOM      5  C   UNL     1      -2.752   5.239   0.935  1.00  0.00     0.002 A 
INPUT-LIGAND-PDBQT: ATOM      6  C   UNL     1      -3.220   4.681   2.128  1.00  0.00     0.001 A 
INPUT-LIGAND-PDBQT: ATOM      7  C   UNL     1      -3.072   3.311   2.367  1.00  0.00     0.016 A 
INPUT-LIGAND-PDBQT: ATOM      8  C   UNL     1      -2.448   2.489   1.408  1.00  0.00     0.066 A 
INPUT-LIGAND-PDBQT: ATOM      9  C   UNL     1      -2.277   1.108   1.597  1.00  0.00     0.261 A 
INPUT-LIGAND-PDBQT: ATOM     10  O   UNL     1      -2.734   0.573   2.646  1.00  0.00    -0.269 OA
INPUT-LIGAND-PDBQT: ATOM     11  N   UNL     1      -1.635   0.341   0.647  1.00  0.00    -0.292 N 
INPUT-LIGAND-PDBQT: ENDROOT
INPUT-LIGAND-PDBQT: BRANCH   1  12
INPUT-LIGAND-PDBQT: ATOM     12  C   UNL     1      -0.564   0.174  -1.637  1.00  0.00     0.048 C 
INPUT-LIGAND-PDBQT: BRANCH  12  13
INPUT-LIGAND-PDBQT: ATOM     13  C   UNL     1      -0.400   0.692  -2.865  1.00  0.00     0.013 C 
INPUT-LIGAND-PDBQT: BRANCH  13  14
INPUT-LIGAND-PDBQT: ATOM     14  C   UNL     1       0.273  -0.023  -3.977  1.00  0.00    -0.007 A 
INPUT-LIGAND-PDBQT: ATOM     15  C   UNL     1       0.379  -1.428  -4.030  1.00  0.00     0.119 A 
INPUT-LIGAND-PDBQT: ATOM     16  C   UNL     1       0.796   0.722  -5.044  1.00  0.00     0.011 A 
INPUT-LIGAND-PDBQT: ATOM     17  N   UNL     1       0.996  -2.028  -5.083  1.00  0.00    -0.264 NA
INPUT-LIGAND-PDBQT: ATOM     18  C   UNL     1       1.427   0.080  -6.110  1.00  0.00     0.021 A 
INPUT-LIGAND-PDBQT: ATOM     19  C   UNL     1       1.522  -1.311  -6.110  1.00  0.00     0.111 A 
INPUT-LIGAND-PDBQT: ENDBRANCH  13  14
INPUT-LIGAND-PDBQT: ENDBRANCH  12  13
INPUT-LIGAND-PDBQT: ENDBRANCH   1  12
INPUT-LIGAND-PDBQT: BRANCH  11  20
INPUT-LIGAND-PDBQT: ATOM     20  C   UNL     1      -1.468  -1.114   0.896  1.00  0.00     0.131 C 
INPUT-LIGAND-PDBQT: BRANCH  20  21
INPUT-LIGAND-PDBQT: ATOM     21  C   UNL     1      -0.185  -1.477   1.696  1.00  0.00     0.009 C 
INPUT-LIGAND-PDBQT: ATOM     22  C   UNL     1       1.130  -0.976   1.043  1.00  0.00     0.005 C 
INPUT-LIGAND-PDBQT: ATOM     23  C   UNL     1      -0.252  -1.040   3.171  1.00  0.00     0.005 C 
INPUT-LIGAND-PDBQT: ATOM     24  C   UNL     1       2.331  -0.957   2.013  1.00  0.00     0.000 C 
INPUT-LIGAND-PDBQT: ATOM     25  C   UNL     1       0.902  -1.645   3.999  1.00  0.00     0.000 C 
INPUT-LIGAND-PDBQT: ATOM     26  C   UNL     1       2.163  -1.952   3.166  1.00  0.00     0.000 C 
INPUT-LIGAND-PDBQT: ENDBRANCH  20  21
INPUT-LIGAND-PDBQT: ENDBRANCH  11  20
INPUT-LIGAND-PDBQT: TORSDOF 5


    FINAL DOCKED STATE:
    ________________________


Run:   1 / 20
Time taken for this run:   0.033s

DOCKED: MODEL        1
DOCKED: USER    Run = 1
DOCKED: USER
DOCKED: USER    Estimated Free Energy of Binding    =  -6.78 kcal/mol  [=(1)+(2)+(3)-(4)]
DOCKED: USER
DOCKED: USER    (1) Final Intermolecular Energy     =  -8.28 kcal/mol
DOCKED: USER        vdW + Hbond + desolv Energy     =  -8.26 kcal/mol
DOCKED: USER        Electrostatic Energy            =  -0.01 kcal/mol
DOCKED: USER        Moving Ligand-Fixed Receptor    =  -8.28 kcal/mol
DOCKED: USER        Moving Ligand-Moving Receptor   =  +0.00 kcal/mol
DOCKED: USER    (2) Final Total Internal Energy     =  -1.54 kcal/mol
DOCKED: USER    (3) Torsional Free Energy           =  +1.49 kcal/mol
DOCKED: USER    (4) Unbound System's Energy         =  -1.54 kcal/mol
DOCKED: USER
DOCKED: USER
DOCKED: REMARK SMILES O=c1c2ccccc2nc(/C=C/c2cccnc2)n1CC1CCCCC1
DOCKED: REMARK SMILES IDX 10 1 9 2 8 3 7 4 6 5 5 6 4 7 3 8 2 9 1 10 19 11 11 12 12 13
DOCKED: REMARK SMILES IDX 13 14 18 15 14 16 17 17 15 18 16 19 20 20 21 21 22 22 26 23
DOCKED: REMARK SMILES IDX 23 24 25 25 24 26
DOCKED: REMARK H PARENT
DOCKED: USER                              x       y       z     vdW  Elec       q    Type
DOCKED: USER                           _______ _______ _______ _____ _____    ______ ____
DOCKED: ROOT
DOCKED: ATOM      1  C   UNL     1     139.339  70.835 223.715 -0.28 -0.03    +0.136 A  
DOCKED: ATOM      2  N   UNL     1     139.877  71.513 224.765 -0.28 +0.05    -0.230 NA 
DOCKED: ATOM      3  C   UNL     1     140.219  70.906 225.921 -0.50 -0.01    +0.078 A  
DOCKED: ATOM      4  C   UNL     1     140.776  71.653 226.967 -0.72 -0.01    +0.029 A  
DOCKED: ATOM      5  C   UNL     1     141.119  71.026 228.168 -0.67 -0.00    +0.002 A  
DOCKED: ATOM      6  C   UNL     1     140.904  69.654 228.328 -0.59 -0.00    +0.001 A  
DOCKED: ATOM      7  C   UNL     1     140.346  68.905 227.287 -0.62 -0.00    +0.016 A  
DOCKED: ATOM      8  C   UNL     1     140.002  69.530 226.072 -0.45 -0.01    +0.066 A  
DOCKED: ATOM      9  C   UNL     1     139.436  68.825 224.997 -0.24 -0.04    +0.261 A  
DOCKED: ATOM     10  O   UNL     1     139.188  67.594 225.135 -0.87 -0.01    -0.269 OA 
DOCKED: ATOM     11  N   UNL     1     139.139  69.466 223.813 -0.13 +0.05    -0.292 N  
DOCKED: ENDROOT
DOCKED: BRANCH   1  12
DOCKED: ATOM     12  C   UNL     1     138.999  71.618 222.493 -0.23 -0.01    +0.048 C  
DOCKED: BRANCH  12  13
DOCKED: ATOM     13  C   UNL     1     139.563  72.806 222.224 -0.26 -0.00    +0.013 C  
DOCKED: BRANCH  13  14
DOCKED: ATOM     14  C   UNL     1     140.898  72.960 221.596 -0.29 +0.00    -0.007 A  
DOCKED: ATOM     15  C   UNL     1     141.424  74.211 221.213 -0.24 -0.02    +0.119 A  
DOCKED: ATOM     16  C   UNL     1     141.694  71.820 221.405 -0.20 -0.00    +0.011 A  
DOCKED: ATOM     17  N   UNL     1     142.661  74.291 220.654 -0.17 +0.08    -0.264 NA 
DOCKED: ATOM     18  C   UNL     1     142.958  71.931 220.826 -0.27 -0.00    +0.021 A  
DOCKED: ATOM     19  C   UNL     1     143.428  73.189 220.448 -0.28 -0.02    +0.111 A  
DOCKED: ENDBRANCH  13  14
DOCKED: ENDBRANCH  12  13
DOCKED: ENDBRANCH   1  12
DOCKED: BRANCH  11  20
DOCKED: ATOM     20  C   UNL     1     138.552  68.677 222.700 -0.19 -0.02    +0.131 C  
DOCKED: BRANCH  20  21
DOCKED: ATOM     21  C   UNL     1     139.570  68.292 221.589 -0.07 -0.00    +0.009 C  
DOCKED: ATOM     22  C   UNL     1     139.547  66.789 221.204 -0.19 -0.00    +0.005 C  
DOCKED: ATOM     23  C   UNL     1     139.448  69.170 220.331 -0.11 -0.00    +0.005 C  
DOCKED: ATOM     24  C   UNL     1     140.227  66.490 219.851 -0.16 -0.00    +0.000 C  
DOCKED: ATOM     25  C   UNL     1     140.633  68.951 219.365 -0.11 -0.00    +0.000 C  
DOCKED: ATOM     26  C   UNL     1     141.267  67.550 219.475 -0.16 -0.00    +0.000 C  
DOCKED: ENDBRANCH  20  21
DOCKED: ENDBRANCH  11  20
DOCKED: TORSDOF 5
DOCKED: TER
DOCKED: ENDMDL
________________________________________________________________________________


    FINAL DOCKED STATE:
    ________________________


Run:   2 / 20
Time taken for this run:   0.033s

DOCKED: MODEL        2
DOCKED: USER    Run = 2
DOCKED: USER
DOCKED: USER    Estimated Free Energy of Binding    =  -7.25 kcal/mol  [=(1)+(2)+(3)-(4)]
DOCKED: USER
DOCKED: USER    (1) Final Intermolecular Energy     =  -8.74 kcal/mol
DOCKED: USER        vdW + Hbond + desolv Energy     =  -8.67 kcal/mol
DOCKED: USER        Electrostatic Energy            =  -0.07 kcal/mol
DOCKED: USER        Moving Ligand-Fixed Receptor    =  -8.74 kcal/mol
DOCKED: USER        Moving Ligand-Moving Receptor   =  +0.00 kcal/mol
DOCKED: USER    (2) Final Total Internal Energy     =  -1.24 kcal/mol
DOCKED: USER    (3) Torsional Free Energy           =  +1.49 kcal/mol
DOCKED: USER    (4) Unbound System's Energy         =  -1.24 kcal/mol
DOCKED: USER
DOCKED: USER
DOCKED: REMARK SMILES O=c1c2ccccc2nc(/C=C/c2cccnc2)n1CC1CCCCC1
DOCKED: REMARK SMILES IDX 10 1 9 2 8 3 7 4 6 5 5 6 4 7 3 8 2 9 1 10 19 11 11 12 12 13
DOCKED: REMARK SMILES IDX 13 14 18 15 14 16 17 17 15 18 16 19 20 20 21 21 22 22 26 23
DOCKED: REMARK SMILES IDX 23 24 25 25 24 26
DOCKED: REMARK H PARENT
DOCKED: USER                              x       y       z     vdW  Elec       q    Type
DOCKED: USER                           _______ _______ _______ _____ _____    ______ ____
DOCKED: ROOT
DOCKED: ATOM      1  C   UNL     1     139.621  70.227 223.464 -0.22 -0.02    +0.136 A  
DOCKED: ATOM      2  N   UNL     1     140.118  71.110 224.373 -0.28 +0.04    -0.230 NA 
DOCKED: ATOM      3  C   UNL     1     140.346  70.772 225.661 -0.50 -0.01    +0.078 A  
DOCKED: ATOM      4  C   UNL     1     140.865  71.720 226.552 -0.67 -0.00    +0.029 A  
DOCKED: ATOM      5  C   UNL     1     141.091  71.373 227.887 -0.78 -0.00    +0.002 A  
DOCKED: ATOM      6  C   UNL     1     140.797  70.083 228.335 -0.57 -0.00    +0.001 A  
DOCKED: ATOM      7  C   UNL     1     140.276  69.134 227.448 -0.61 -0.00    +0.016 A  
DOCKED: ATOM      8  C   UNL     1     140.050  69.475 226.100 -0.45 -0.01    +0.066 A  
DOCKED: ATOM      9  C   UNL     1     139.526  68.562 225.171 -0.26 -0.04    +0.261 A  
DOCKED: ATOM     10  O   UNL     1     139.208  67.404 225.563 -0.93 -0.01    -0.269 OA 
DOCKED: ATOM     11  N   UNL     1     139.346  68.925 223.852 -0.10 +0.05    -0.292 N  
DOCKED: ENDROOT
DOCKED: BRANCH   1  12
DOCKED: ATOM     12  C   UNL     1     139.407  70.720 222.073 -0.18 -0.01    +0.048 C  
DOCKED: BRANCH  12  13
DOCKED: ATOM     13  C   UNL     1     140.378  71.328 221.373 -0.18 -0.00    +0.013 C  
DOCKED: BRANCH  13  14
DOCKED: ATOM     14  C   UNL     1     140.614  72.793 221.392 -0.26 +0.00    -0.007 A  
DOCKED: ATOM     15  C   UNL     1     139.713  73.705 221.978 -0.24 -0.02    +0.119 A  
DOCKED: ATOM     16  C   UNL     1     141.800  73.296 220.838 -0.26 -0.00    +0.011 A  
DOCKED: ATOM     17  N   UNL     1     139.990  75.036 221.977 -0.64 +0.04    -0.264 NA 
DOCKED: ATOM     18  C   UNL     1     142.057  74.667 220.848 -0.29 -0.01    +0.021 A  
DOCKED: ATOM     19  C   UNL     1     141.128  75.532 221.425 -0.30 -0.03    +0.111 A  
DOCKED: ENDBRANCH  13  14
DOCKED: ENDBRANCH  12  13
DOCKED: ENDBRANCH   1  12
DOCKED: BRANCH  11  20
DOCKED: ATOM     20  C   UNL     1     138.799  67.921 222.903 -0.20 -0.02    +0.131 C  
DOCKED: BRANCH  20  21
DOCKED: ATOM     21  C   UNL     1     137.333  68.196 222.465 -0.17 -0.00    +0.009 C  
DOCKED: ATOM     22  C   UNL     1     136.581  66.941 221.949 -0.11 -0.00    +0.005 C  
DOCKED: ATOM     23  C   UNL     1     136.505  68.910 223.549 -0.17 -0.00    +0.005 C  
DOCKED: ATOM     24  C   UNL     1     135.047  67.111 221.919 -0.12 -0.00    +0.000 C  
DOCKED: ATOM     25  C   UNL     1     135.152  69.409 222.998 -0.11 -0.00    +0.000 C  
DOCKED: ATOM     26  C   UNL     1     134.627  68.580 221.809 -0.06 -0.00    +0.000 C  
DOCKED: ENDBRANCH  20  21
DOCKED: ENDBRANCH  11  20
DOCKED: TORSDOF 5
DOCKED: TER
DOCKED: ENDMDL
________________________________________________________________________________


    FINAL DOCKED STATE:
    ________________________


Run:   3 / 20
Time taken for this run:   0.033s

DOCKED: MODEL        3
DOCKED: USER    Run = 3
DOCKED: USER
DOCKED: USER    Estimated Free Energy of Binding    =  -6.98 kcal/mol  [=(1)+(2)+(3)-(4)]
DOCKED: USER
DOCKED: USER    (1) Final Intermolecular Energy     =  -8.47 kcal/mol
DOCKED: USER        vdW + Hbond + desolv Energy     =  -8.43 kcal/mol
DOCKED: USER        Electrostatic Energy            =  -0.04 kcal/mol
DOCKED: USER        Moving Ligand-Fixed Receptor    =  -8.47 kcal/mol
DOCKED: USER        Moving Ligand-Moving Receptor   =  +0.00 kcal/mol
DOCKED: USER    (2) Final Total Internal Energy     =  -1.43 kcal/mol
DOCKED: USER    (3) Torsional Free Energy           =  +1.49 kcal/mol
DOCKED: USER    (4) Unbound System's Energy         =  -1.43 kcal/mol
DOCKED: USER
DOCKED: USER
DOCKED: REMARK SMILES O=c1c2ccccc2nc(/C=C/c2cccnc2)n1CC1CCCCC1
DOCKED: REMARK SMILES IDX 10 1 9 2 8 3 7 4 6 5 5 6 4 7 3 8 2 9 1 10 19 11 11 12 12 13
DOCKED: REMARK SMILES IDX 13 14 18 15 14 16 17 17 15 18 16 19 20 20 21 21 22 22 26 23
DOCKED: REMARK SMILES IDX 23 24 25 25 24 26
DOCKED: REMARK H PARENT
DOCKED: USER                              x       y       z     vdW  Elec       q    Type
DOCKED: USER                           _______ _______ _______ _____ _____    ______ ____
DOCKED: ROOT
DOCKED: ATOM      1  C   UNL     1     138.290  69.217 224.136 -0.25 -0.02    +0.136 A  
DOCKED: ATOM      2  N   UNL     1     138.555  68.371 225.168 -0.48 +0.00    -0.230 NA 
DOCKED: ATOM      3  C   UNL     1     139.376  68.706 226.187 -0.47 -0.01    +0.078 A  
DOCKED: ATOM      4  C   UNL     1     139.607  67.797 227.227 -0.56 -0.01    +0.029 A  
DOCKED: ATOM      5  C   UNL     1     140.465  68.140 228.276 -0.62 -0.00    +0.002 A  
DOCKED: ATOM      6  C   UNL     1     141.097  69.387 228.286 -0.59 -0.00    +0.001 A  
DOCKED: ATOM      7  C   UNL     1     140.870  70.296 227.247 -0.59 -0.00    +0.016 A  
DOCKED: ATOM      8  C   UNL     1     140.003  69.959 226.189 -0.46 -0.01    +0.066 A  
DOCKED: ATOM      9  C   UNL     1     139.744  70.833 225.121 -0.29 -0.05    +0.261 A  
DOCKED: ATOM     10  O   UNL     1     140.339  71.947 225.084 -0.31 +0.05    -0.269 OA 
DOCKED: ATOM     11  N   UNL     1     138.865  70.479 224.118 -0.16 +0.06    -0.292 N  
DOCKED: ENDROOT
DOCKED: BRANCH   1  12
DOCKED: ATOM     12  C   UNL     1     137.371  68.732 223.067 -0.18 -0.01    +0.048 C  
DOCKED: BRANCH  12  13
DOCKED: ATOM     13  C   UNL     1     136.036  68.766 223.202 -0.13 -0.00    +0.013 C  
DOCKED: BRANCH  13  14
DOCKED: ATOM     14  C   UNL     1     135.342  69.329 224.387 -0.21 +0.00    -0.007 A  
DOCKED: ATOM     15  C   UNL     1     134.721  68.523 225.363 -0.18 -0.00    +0.119 A  
DOCKED: ATOM     16  C   UNL     1     135.332  70.719 224.570 -0.20 -0.00    +0.011 A  
DOCKED: ATOM     17  N   UNL     1     134.112  69.096 226.436 -0.64 -0.00    -0.264 NA 
DOCKED: ATOM     18  C   UNL     1     134.696  71.280 225.678 -0.16 -0.00    +0.021 A  
DOCKED: ATOM     19  C   UNL     1     134.082  70.443 226.609 -0.32 -0.00    +0.111 A  
DOCKED: ENDBRANCH  13  14
DOCKED: ENDBRANCH  12  13
DOCKED: ENDBRANCH   1  12
DOCKED: BRANCH  11  20
DOCKED: ATOM     20  C   UNL     1     138.614  71.442 223.015 -0.20 -0.03    +0.131 C  
DOCKED: BRANCH  20  21
DOCKED: ATOM     21  C   UNL     1     139.904  71.945 222.307 -0.30 -0.00    +0.009 C  
DOCKED: ATOM     22  C   UNL     1     140.441  70.986 221.213 -0.15 -0.00    +0.005 C  
DOCKED: ATOM     23  C   UNL     1     139.765  73.373 221.747 -0.27 -0.00    +0.005 C  
DOCKED: ATOM     24  C   UNL     1     141.439  71.654 220.243 -0.15 -0.00    +0.000 C  
DOCKED: ATOM     25  C   UNL     1     141.126  73.945 221.297 -0.29 -0.00    +0.000 C  
DOCKED: ATOM     26  C   UNL     1     142.139  72.863 220.871 -0.26 -0.00    +0.000 C  
DOCKED: ENDBRANCH  20  21
DOCKED: ENDBRANCH  11  20
DOCKED: TORSDOF 5
DOCKED: TER
DOCKED: ENDMDL
________________________________________________________________________________


    FINAL DOCKED STATE:
    ________________________


Run:   4 / 20
Time taken for this run:   0.033s

DOCKED: MODEL        4
DOCKED: USER    Run = 4
DOCKED: USER
DOCKED: USER    Estimated Free Energy of Binding    =  -7.14 kcal/mol  [=(1)+(2)+(3)-(4)]
DOCKED: USER
DOCKED: USER    (1) Final Intermolecular Energy     =  -8.63 kcal/mol
DOCKED: USER        vdW + Hbond + desolv Energy     =  -8.47 kcal/mol
DOCKED: USER        Electrostatic Energy            =  -0.16 kcal/mol
DOCKED: USER        Moving Ligand-Fixed Receptor    =  -8.63 kcal/mol
DOCKED: USER        Moving Ligand-Moving Receptor   =  +0.00 kcal/mol
DOCKED: USER    (2) Final Total Internal Energy     =  -1.30 kcal/mol
DOCKED: USER    (3) Torsional Free Energy           =  +1.49 kcal/mol
DOCKED: USER    (4) Unbound System's Energy         =  -1.30 kcal/mol
DOCKED: USER
DOCKED: USER
DOCKED: REMARK SMILES O=c1c2ccccc2nc(/C=C/c2cccnc2)n1CC1CCCCC1
DOCKED: REMARK SMILES IDX 10 1 9 2 8 3 7 4 6 5 5 6 4 7 3 8 2 9 1 10 19 11 11 12 12 13
DOCKED: REMARK SMILES IDX 13 14 18 15 14 16 17 17 15 18 16 19 20 20 21 21 22 22 26 23
DOCKED: REMARK SMILES IDX 23 24 25 25 24 26
DOCKED: REMARK H PARENT
DOCKED: USER                              x       y       z     vdW  Elec       q    Type
DOCKED: USER                           _______ _______ _______ _____ _____    ______ ____
DOCKED: ROOT
DOCKED: ATOM      1  C   UNL     1     141.607  75.346 220.641 -0.23 -0.05    +0.136 A  
DOCKED: ATOM      2  N   UNL     1     141.780  74.006 220.805 -0.18 +0.05    -0.230 NA 
DOCKED: ATOM      3  C   UNL     1     140.825  73.212 221.337 -0.24 -0.01    +0.078 A  
DOCKED: ATOM      4  C   UNL     1     141.055  71.838 221.476 -0.22 -0.00    +0.029 A  
DOCKED: ATOM      5  C   UNL     1     140.071  71.019 222.036 -0.21 -0.00    +0.002 A  
DOCKED: ATOM      6  C   UNL     1     138.859  71.570 222.462 -0.22 -0.00    +0.001 A  
DOCKED: ATOM      7  C   UNL     1     138.627  72.943 222.328 -0.12 -0.01    +0.016 A  
DOCKED: ATOM      8  C   UNL     1     139.613  73.774 221.759 -0.25 -0.01    +0.066 A  
DOCKED: ATOM      9  C   UNL     1     139.432  75.158 221.604 -0.19 -0.05    +0.261 A  
DOCKED: ATOM     10  O   UNL     1     138.365  75.687 222.025 -0.19 +0.07    -0.269 OA 
DOCKED: ATOM     11  N   UNL     1     140.409  75.935 221.017 -0.13 +0.08    -0.292 N  
DOCKED: ENDROOT
DOCKED: BRANCH   1  12
DOCKED: ATOM     12  C   UNL     1     142.737  76.117 220.047 -0.26 -0.03    +0.048 C  
DOCKED: BRANCH  12  13
DOCKED: ATOM     13  C   UNL     1     143.593  75.569 219.170 -0.33 -0.01    +0.013 C  
DOCKED: BRANCH  13  14
DOCKED: ATOM     14  C   UNL     1     144.454  74.401 219.479 -0.28 +0.00    -0.007 A  
DOCKED: ATOM     15  C   UNL     1     144.820  73.442 218.512 -0.19 -0.01    +0.119 A  
DOCKED: ATOM     16  C   UNL     1     144.961  74.258 220.779 -0.48 -0.00    +0.011 A  
DOCKED: ATOM     17  N   UNL     1     145.623  72.400 218.853 -0.67 -0.17    -0.264 NA 
DOCKED: ATOM     18  C   UNL     1     145.781  73.177 221.101 -0.66 -0.00    +0.021 A  
DOCKED: ATOM     19  C   UNL     1     146.102  72.245 220.115 -0.29 +0.05    +0.111 A  
DOCKED: ENDBRANCH  13  14
DOCKED: ENDBRANCH  12  13
DOCKED: ENDBRANCH   1  12
DOCKED: BRANCH  11  20
DOCKED: ATOM     20  C   UNL     1     140.168  77.393 220.864 -0.17 -0.04    +0.131 C  
DOCKED: BRANCH  20  21
DOCKED: ATOM     21  C   UNL     1     141.162  78.286 221.659 -0.38 -0.00    +0.009 C  
DOCKED: ATOM     22  C   UNL     1     141.514  79.622 220.954 -0.35 -0.00    +0.005 C  
DOCKED: ATOM     23  C   UNL     1     140.711  78.546 223.108 -0.47 -0.00    +0.005 C  
DOCKED: ATOM     24  C   UNL     1     142.141  80.670 221.899 -0.49 -0.00    +0.000 C  
DOCKED: ATOM     25  C   UNL     1     141.831  79.198 223.947 -0.60 -0.00    +0.000 C  
DOCKED: ATOM     26  C   UNL     1     142.825  80.027 223.109 -0.66 -0.00    +0.000 C  
DOCKED: ENDBRANCH  20  21
DOCKED: ENDBRANCH  11  20
DOCKED: TORSDOF 5
DOCKED: TER
DOCKED: ENDMDL
________________________________________________________________________________


    FINAL DOCKED STATE:
    ________________________


Run:   5 / 20
Time taken for this run:   0.033s

DOCKED: MODEL        5
DOCKED: USER    Run = 5
DOCKED: USER
DOCKED: USER    Estimated Free Energy of Binding    =  -6.88 kcal/mol  [=(1)+(2)+(3)-(4)]
DOCKED: USER
DOCKED: USER    (1) Final Intermolecular Energy     =  -8.37 kcal/mol
DOCKED: USER        vdW + Hbond + desolv Energy     =  -8.31 kcal/mol
DOCKED: USER        Electrostatic Energy            =  -0.06 kcal/mol
DOCKED: USER        Moving Ligand-Fixed Receptor    =  -8.37 kcal/mol
DOCKED: USER        Moving Ligand-Moving Receptor   =  +0.00 kcal/mol
DOCKED: USER    (2) Final Total Internal Energy     =  -1.54 kcal/mol
DOCKED: USER    (3) Torsional Free Energy           =  +1.49 kcal/mol
DOCKED: USER    (4) Unbound System's Energy         =  -1.54 kcal/mol
DOCKED: USER
DOCKED: USER
DOCKED: REMARK SMILES O=c1c2ccccc2nc(/C=C/c2cccnc2)n1CC1CCCCC1
DOCKED: REMARK SMILES IDX 10 1 9 2 8 3 7 4 6 5 5 6 4 7 3 8 2 9 1 10 19 11 11 12 12 13
DOCKED: REMARK SMILES IDX 13 14 18 15 14 16 17 17 15 18 16 19 20 20 21 21 22 22 26 23
DOCKED: REMARK SMILES IDX 23 24 25 25 24 26
DOCKED: REMARK H PARENT
DOCKED: USER                              x       y       z     vdW  Elec       q    Type
DOCKED: USER                           _______ _______ _______ _____ _____    ______ ____
DOCKED: ROOT
DOCKED: ATOM      1  C   UNL     1     139.651  70.202 223.456 -0.21 -0.02    +0.136 A  
DOCKED: ATOM      2  N   UNL     1     140.184  71.126 224.301 -0.28 +0.04    -0.230 NA 
DOCKED: ATOM      3  C   UNL     1     140.397  70.872 225.611 -0.50 -0.01    +0.078 A  
DOCKED: ATOM      4  C   UNL     1     140.955  71.859 226.433 -0.67 -0.00    +0.029 A  
DOCKED: ATOM      5  C   UNL     1     141.165  71.600 227.790 -0.78 -0.00    +0.002 A  
DOCKED: ATOM      6  C   UNL     1     140.817  70.358 228.329 -0.57 -0.00    +0.001 A  
DOCKED: ATOM      7  C   UNL     1     140.257  69.371 227.511 -0.60 -0.00    +0.016 A  
DOCKED: ATOM      8  C   UNL     1     140.046  69.623 226.141 -0.45 -0.01    +0.066 A  
DOCKED: ATOM      9  C   UNL     1     139.485  68.669 225.277 -0.27 -0.04    +0.261 A  
DOCKED: ATOM     10  O   UNL     1     139.118  67.557 225.750 -0.88 -0.01    -0.269 OA 
DOCKED: ATOM     11  N   UNL     1     139.321  68.943 223.935 -0.12 +0.05    -0.292 N  
DOCKED: ENDROOT
DOCKED: BRANCH   1  12
DOCKED: ATOM     12  C   UNL     1     139.458  70.603 222.033 -0.18 -0.01    +0.048 C  
DOCKED: BRANCH  12  13
DOCKED: ATOM     13  C   UNL     1     138.647  71.612 221.678 -0.15 -0.00    +0.013 C  
DOCKED: BRANCH  13  14
DOCKED: ATOM     14  C   UNL     1     139.003  73.045 221.825 -0.21 +0.00    -0.007 A  
DOCKED: ATOM     15  C   UNL     1     140.336  73.504 221.850 -0.25 -0.01    +0.119 A  
DOCKED: ATOM     16  C   UNL     1     137.973  73.994 221.907 -0.17 -0.00    +0.011 A  
DOCKED: ATOM     17  N   UNL     1     140.599  74.832 221.974 -0.65 +0.02    -0.264 NA 
DOCKED: ATOM     18  C   UNL     1     138.273  75.350 222.037 -0.24 -0.01    +0.021 A  
DOCKED: ATOM     19  C   UNL     1     139.607  75.754 222.073 -0.29 -0.02    +0.111 A  
DOCKED: ENDBRANCH  13  14
DOCKED: ENDBRANCH  12  13
DOCKED: ENDBRANCH   1  12
DOCKED: BRANCH  11  20
DOCKED: ATOM     20  C   UNL     1     138.733  67.898 223.059 -0.21 -0.02    +0.131 C  
DOCKED: BRANCH  20  21
DOCKED: ATOM     21  C   UNL     1     137.233  68.127 222.717 -0.14 -0.00    +0.009 C  
DOCKED: ATOM     22  C   UNL     1     136.532  69.176 223.620 -0.19 -0.00    +0.005 C  
DOCKED: ATOM     23  C   UNL     1     136.998  68.455 221.231 -0.09 -0.00    +0.005 C  
DOCKED: ATOM     24  C   UNL     1     135.207  69.706 223.033 -0.11 -0.00    +0.000 C  
DOCKED: ATOM     25  C   UNL     1     135.498  68.409 220.867 -0.04 -0.00    +0.000 C  
DOCKED: ATOM     26  C   UNL     1     134.565  68.714 222.057 -0.07 -0.00    +0.000 C  
DOCKED: ENDBRANCH  20  21
DOCKED: ENDBRANCH  11  20
DOCKED: TORSDOF 5
DOCKED: TER
DOCKED: ENDMDL
________________________________________________________________________________


    FINAL DOCKED STATE:
    ________________________


Run:   6 / 20
Time taken for this run:   0.033s

DOCKED: MODEL        6
DOCKED: USER    Run = 6
DOCKED: USER
DOCKED: USER    Estimated Free Energy of Binding    =  -7.03 kcal/mol  [=(1)+(2)+(3)-(4)]
DOCKED: USER
DOCKED: USER    (1) Final Intermolecular Energy     =  -8.53 kcal/mol
DOCKED: USER        vdW + Hbond + desolv Energy     =  -8.48 kcal/mol
DOCKED: USER        Electrostatic Energy            =  -0.04 kcal/mol
DOCKED: USER        Moving Ligand-Fixed Receptor    =  -8.53 kcal/mol
DOCKED: USER        Moving Ligand-Moving Receptor   =  +0.00 kcal/mol
DOCKED: USER    (2) Final Total Internal Energy     =  -1.42 kcal/mol
DOCKED: USER    (3) Torsional Free Energy           =  +1.49 kcal/mol
DOCKED: USER    (4) Unbound System's Energy         =  -1.42 kcal/mol
DOCKED: USER
DOCKED: USER
DOCKED: REMARK SMILES O=c1c2ccccc2nc(/C=C/c2cccnc2)n1CC1CCCCC1
DOCKED: REMARK SMILES IDX 10 1 9 2 8 3 7 4 6 5 5 6 4 7 3 8 2 9 1 10 19 11 11 12 12 13
DOCKED: REMARK SMILES IDX 13 14 18 15 14 16 17 17 15 18 16 19 20 20 21 21 22 22 26 23
DOCKED: REMARK SMILES IDX 23 24 25 25 24 26
DOCKED: REMARK H PARENT
DOCKED: USER                              x       y       z     vdW  Elec       q    Type
DOCKED: USER                           _______ _______ _______ _____ _____    ______ ____
DOCKED: ROOT
DOCKED: ATOM      1  C   UNL     1     138.298  69.132 224.216 -0.26 -0.01    +0.136 A  
DOCKED: ATOM      2  N   UNL     1     138.580  68.307 225.262 -0.51 +0.00    -0.230 NA 
DOCKED: ATOM      3  C   UNL     1     139.407  68.667 226.267 -0.47 -0.01    +0.078 A  
DOCKED: ATOM      4  C   UNL     1     139.656  67.780 227.321 -0.53 -0.01    +0.029 A  
DOCKED: ATOM      5  C   UNL     1     140.520  68.149 228.355 -0.62 -0.00    +0.002 A  
DOCKED: ATOM      6  C   UNL     1     141.140  69.402 228.337 -0.57 -0.00    +0.001 A  
DOCKED: ATOM      7  C   UNL     1     140.896  70.290 227.284 -0.59 -0.00    +0.016 A  
DOCKED: ATOM      8  C   UNL     1     140.022  69.926 226.241 -0.46 -0.01    +0.066 A  
DOCKED: ATOM      9  C   UNL     1     139.745  70.779 225.160 -0.29 -0.05    +0.261 A  
DOCKED: ATOM     10  O   UNL     1     140.329  71.897 225.097 -0.35 +0.05    -0.269 OA 
DOCKED: ATOM     11  N   UNL     1     138.861  70.398 224.171 -0.16 +0.05    -0.292 N  
DOCKED: ENDROOT
DOCKED: BRANCH   1  12
DOCKED: ATOM     12  C   UNL     1     137.374  68.618 223.165 -0.17 -0.01    +0.048 C  
DOCKED: BRANCH  12  13
DOCKED: ATOM     13  C   UNL     1     136.054  68.865 223.191 -0.15 -0.00    +0.013 C  
DOCKED: BRANCH  13  14
DOCKED: ATOM     14  C   UNL     1     135.338  69.393 224.377 -0.21 +0.00    -0.007 A  
DOCKED: ATOM     15  C   UNL     1     134.695  68.561 225.316 -0.20 -0.00    +0.119 A  
DOCKED: ATOM     16  C   UNL     1     135.327  70.777 224.602 -0.20 -0.00    +0.011 A  
DOCKED: ATOM     17  N   UNL     1     134.066  69.103 226.393 -0.64 -0.00    -0.264 NA 
DOCKED: ATOM     18  C   UNL     1     134.671  71.307 225.713 -0.16 -0.00    +0.021 A  
DOCKED: ATOM     19  C   UNL     1     134.035  70.444 226.606 -0.32 -0.00    +0.111 A  
DOCKED: ENDBRANCH  13  14
DOCKED: ENDBRANCH  12  13
DOCKED: ENDBRANCH   1  12
DOCKED: BRANCH  11  20
DOCKED: ATOM     20  C   UNL     1     138.591  71.338 223.053 -0.21 -0.03    +0.131 C  
DOCKED: BRANCH  20  21
DOCKED: ATOM     21  C   UNL     1     139.870  71.848 222.330 -0.29 -0.00    +0.009 C  
DOCKED: ATOM     22  C   UNL     1     140.354  70.930 221.177 -0.15 -0.00    +0.005 C  
DOCKED: ATOM     23  C   UNL     1     139.745  73.303 221.841 -0.27 -0.00    +0.005 C  
DOCKED: ATOM     24  C   UNL     1     141.337  71.622 220.209 -0.15 -0.00    +0.000 C  
DOCKED: ATOM     25  C   UNL     1     141.105  73.868 221.377 -0.28 -0.00    +0.000 C  
DOCKED: ATOM     26  C   UNL     1     142.081  72.787 220.871 -0.26 -0.00    +0.000 C  
DOCKED: ENDBRANCH  20  21
DOCKED: ENDBRANCH  11  20
DOCKED: TORSDOF 5
DOCKED: TER
DOCKED: ENDMDL
________________________________________________________________________________


    FINAL DOCKED STATE:
    ________________________


Run:   7 / 20
Time taken for this run:   0.033s

DOCKED: MODEL        7
DOCKED: USER    Run = 7
DOCKED: USER
DOCKED: USER    Estimated Free Energy of Binding    =  -6.81 kcal/mol  [=(1)+(2)+(3)-(4)]
DOCKED: USER
DOCKED: USER    (1) Final Intermolecular Energy     =  -8.30 kcal/mol
DOCKED: USER        vdW + Hbond + desolv Energy     =  -8.27 kcal/mol
DOCKED: USER        Electrostatic Energy            =  -0.04 kcal/mol
DOCKED: USER        Moving Ligand-Fixed Receptor    =  -8.30 kcal/mol
DOCKED: USER        Moving Ligand-Moving Receptor   =  +0.00 kcal/mol
DOCKED: USER    (2) Final Total Internal Energy     =  -1.43 kcal/mol
DOCKED: USER    (3) Torsional Free Energy           =  +1.49 kcal/mol
DOCKED: USER    (4) Unbound System's Energy         =  -1.43 kcal/mol
DOCKED: USER
DOCKED: USER
DOCKED: REMARK SMILES O=c1c2ccccc2nc(/C=C/c2cccnc2)n1CC1CCCCC1
DOCKED: REMARK SMILES IDX 10 1 9 2 8 3 7 4 6 5 5 6 4 7 3 8 2 9 1 10 19 11 11 12 12 13
DOCKED: REMARK SMILES IDX 13 14 18 15 14 16 17 17 15 18 16 19 20 20 21 21 22 22 26 23
DOCKED: REMARK SMILES IDX 23 24 25 25 24 26
DOCKED: REMARK H PARENT
DOCKED: USER                              x       y       z     vdW  Elec       q    Type
DOCKED: USER                           _______ _______ _______ _____ _____    ______ ____
DOCKED: ROOT
DOCKED: ATOM      1  C   UNL     1     139.603  70.199 223.481 -0.22 -0.02    +0.136 A  
DOCKED: ATOM      2  N   UNL     1     140.115  71.125 224.337 -0.28 +0.04    -0.230 NA 
DOCKED: ATOM      3  C   UNL     1     140.348  70.858 225.640 -0.50 -0.01    +0.078 A  
DOCKED: ATOM      4  C   UNL     1     140.883  71.848 226.474 -0.66 -0.00    +0.029 A  
DOCKED: ATOM      5  C   UNL     1     141.114  71.574 227.824 -0.80 -0.00    +0.002 A  
DOCKED: ATOM      6  C   UNL     1     140.808  70.314 228.346 -0.56 -0.00    +0.001 A  
DOCKED: ATOM      7  C   UNL     1     140.272  69.323 227.517 -0.60 -0.00    +0.016 A  
DOCKED: ATOM      8  C   UNL     1     140.041  69.590 226.153 -0.45 -0.01    +0.066 A  
DOCKED: ATOM      9  C   UNL     1     139.502  68.632 225.279 -0.27 -0.04    +0.261 A  
DOCKED: ATOM     10  O   UNL     1     139.174  67.502 225.737 -0.91 -0.01    -0.269 OA 
DOCKED: ATOM     11  N   UNL     1     139.317  68.923 223.943 -0.12 +0.05    -0.292 N  
DOCKED: ENDROOT
DOCKED: BRANCH   1  12
DOCKED: ATOM     12  C   UNL     1     139.385  70.616 222.067 -0.18 -0.01    +0.048 C  
DOCKED: BRANCH  12  13
DOCKED: ATOM     13  C   UNL     1     140.120  71.576 221.483 -0.20 -0.00    +0.013 C  
DOCKED: BRANCH  13  14
DOCKED: ATOM     14  C   UNL     1     139.902  73.027 221.700 -0.26 +0.00    -0.007 A  
DOCKED: ATOM     15  C   UNL     1     140.959  73.956 221.781 -0.17 -0.01    +0.119 A  
DOCKED: ATOM     16  C   UNL     1     138.587  73.508 221.792 -0.19 -0.00    +0.011 A  
DOCKED: ATOM     17  N   UNL     1     140.695  75.277 221.968 -0.55 +0.04    -0.264 NA 
DOCKED: ATOM     18  C   UNL     1     138.347  74.868 221.987 -0.22 -0.01    +0.021 A  
DOCKED: ATOM     19  C   UNL     1     139.425  75.747 222.078 -0.28 -0.02    +0.111 A  
DOCKED: ENDBRANCH  13  14
DOCKED: ENDBRANCH  12  13
DOCKED: ENDBRANCH   1  12
DOCKED: BRANCH  11  20
DOCKED: ATOM     20  C   UNL     1     138.753  67.874 223.055 -0.21 -0.02    +0.131 C  
DOCKED: BRANCH  20  21
DOCKED: ATOM     21  C   UNL     1     137.250  68.073 222.713 -0.13 -0.00    +0.009 C  
DOCKED: ATOM     22  C   UNL     1     136.532  69.118 223.606 -0.19 -0.00    +0.005 C  
DOCKED: ATOM     23  C   UNL     1     137.006  68.381 221.225 -0.09 -0.00    +0.005 C  
DOCKED: ATOM     24  C   UNL     1     135.196  69.619 223.016 -0.11 -0.00    +0.000 C  
DOCKED: ATOM     25  C   UNL     1     135.507  68.305 220.863 -0.05 -0.00    +0.000 C  
DOCKED: ATOM     26  C   UNL     1     134.571  68.607 222.051 -0.07 -0.00    +0.000 C  
DOCKED: ENDBRANCH  20  21
DOCKED: ENDBRANCH  11  20
DOCKED: TORSDOF 5
DOCKED: TER
DOCKED: ENDMDL
________________________________________________________________________________


    FINAL DOCKED STATE:
    ________________________


Run:   8 / 20
Time taken for this run:   0.033s

DOCKED: MODEL        8
DOCKED: USER    Run = 8
DOCKED: USER
DOCKED: USER    Estimated Free Energy of Binding    =  -7.12 kcal/mol  [=(1)+(2)+(3)-(4)]
DOCKED: USER
DOCKED: USER    (1) Final Intermolecular Energy     =  -8.61 kcal/mol
DOCKED: USER        vdW + Hbond + desolv Energy     =  -8.45 kcal/mol
DOCKED: USER        Electrostatic Energy            =  -0.16 kcal/mol
DOCKED: USER        Moving Ligand-Fixed Receptor    =  -8.61 kcal/mol
DOCKED: USER        Moving Ligand-Moving Receptor   =  +0.00 kcal/mol
DOCKED: USER    (2) Final Total Internal Energy     =  -1.30 kcal/mol
DOCKED: USER    (3) Torsional Free Energy           =  +1.49 kcal/mol
DOCKED: USER    (4) Unbound System's Energy         =  -1.30 kcal/mol
DOCKED: USER
DOCKED: USER
DOCKED: REMARK SMILES O=c1c2ccccc2nc(/C=C/c2cccnc2)n1CC1CCCCC1
DOCKED: REMARK SMILES IDX 10 1 9 2 8 3 7 4 6 5 5 6 4 7 3 8 2 9 1 10 19 11 11 12 12 13
DOCKED: REMARK SMILES IDX 13 14 18 15 14 16 17 17 15 18 16 19 20 20 21 21 22 22 26 23
DOCKED: REMARK SMILES IDX 23 24 25 25 24 26
DOCKED: REMARK H PARENT
DOCKED: USER                              x       y       z     vdW  Elec       q    Type
DOCKED: USER                           _______ _______ _______ _____ _____    ______ ____
DOCKED: ROOT
DOCKED: ATOM      1  C   UNL     1     141.617  75.326 220.667 -0.24 -0.05    +0.136 A  
DOCKED: ATOM      2  N   UNL     1     141.778  73.991 220.880 -0.18 +0.05    -0.230 NA 
DOCKED: ATOM      3  C   UNL     1     140.804  73.219 221.408 -0.25 -0.01    +0.078 A  
DOCKED: ATOM      4  C   UNL     1     141.023  71.849 221.599 -0.23 -0.00    +0.029 A  
DOCKED: ATOM      5  C   UNL     1     140.019  71.052 222.155 -0.22 -0.00    +0.002 A  
DOCKED: ATOM      6  C   UNL     1     138.797  71.622 222.526 -0.22 -0.00    +0.001 A  
DOCKED: ATOM      7  C   UNL     1     138.576  72.990 222.339 -0.10 -0.01    +0.016 A  
DOCKED: ATOM      8  C   UNL     1     139.582  73.799 221.774 -0.25 -0.01    +0.066 A  
DOCKED: ATOM      9  C   UNL     1     139.412  75.177 221.569 -0.19 -0.05    +0.261 A  
DOCKED: ATOM     10  O   UNL     1     138.335  75.723 221.939 -0.18 +0.06    -0.269 OA 
DOCKED: ATOM     11  N   UNL     1     140.411  75.931 220.986 -0.13 +0.08    -0.292 N  
DOCKED: ENDROOT
DOCKED: BRANCH   1  12
DOCKED: ATOM     12  C   UNL     1     142.768  76.073 220.083 -0.25 -0.03    +0.048 C  
DOCKED: BRANCH  12  13
DOCKED: ATOM     13  C   UNL     1     143.603  75.516 219.191 -0.33 -0.01    +0.013 C  
DOCKED: BRANCH  13  14
DOCKED: ATOM     14  C   UNL     1     144.455  74.337 219.486 -0.30 +0.00    -0.007 A  
DOCKED: ATOM     15  C   UNL     1     144.817  73.391 218.505 -0.20 -0.00    +0.119 A  
DOCKED: ATOM     16  C   UNL     1     144.955  74.170 220.785 -0.51 -0.00    +0.011 A  
DOCKED: ATOM     17  N   UNL     1     145.612  72.338 218.831 -0.66 -0.18    -0.264 NA 
DOCKED: ATOM     18  C   UNL     1     145.766  73.077 221.093 -0.64 -0.00    +0.021 A  
DOCKED: ATOM     19  C   UNL     1     146.085  72.159 220.093 -0.27 +0.05    +0.111 A  
DOCKED: ENDBRANCH  13  14
DOCKED: ENDBRANCH  12  13
DOCKED: ENDBRANCH   1  12
DOCKED: BRANCH  11  20
DOCKED: ATOM     20  C   UNL     1     140.181  77.384 220.779 -0.16 -0.04    +0.131 C  
DOCKED: BRANCH  20  21
DOCKED: ATOM     21  C   UNL     1     141.122  78.299 221.612 -0.37 -0.00    +0.009 C  
DOCKED: ATOM     22  C   UNL     1     141.302  79.723 221.023 -0.34 -0.00    +0.005 C  
DOCKED: ATOM     23  C   UNL     1     140.724  78.379 223.097 -0.45 -0.00    +0.005 C  
DOCKED: ATOM     24  C   UNL     1     141.871  80.741 222.036 -0.50 -0.00    +0.000 C  
DOCKED: ATOM     25  C   UNL     1     141.817  79.064 223.945 -0.61 -0.00    +0.000 C  
DOCKED: ATOM     26  C   UNL     1     142.679  80.065 223.148 -0.66 -0.00    +0.000 C  
DOCKED: ENDBRANCH  20  21
DOCKED: ENDBRANCH  11  20
DOCKED: TORSDOF 5
DOCKED: TER
DOCKED: ENDMDL
________________________________________________________________________________


    FINAL DOCKED STATE:
    ________________________


Run:   9 / 20
Time taken for this run:   0.033s

DOCKED: MODEL        9
DOCKED: USER    Run = 9
DOCKED: USER
DOCKED: USER    Estimated Free Energy of Binding    =  -7.14 kcal/mol  [=(1)+(2)+(3)-(4)]
DOCKED: USER
DOCKED: USER    (1) Final Intermolecular Energy     =  -8.63 kcal/mol
DOCKED: USER        vdW + Hbond + desolv Energy     =  -8.48 kcal/mol
DOCKED: USER        Electrostatic Energy            =  -0.16 kcal/mol
DOCKED: USER        Moving Ligand-Fixed Receptor    =  -8.63 kcal/mol
DOCKED: USER        Moving Ligand-Moving Receptor   =  +0.00 kcal/mol
DOCKED: USER    (2) Final Total Internal Energy     =  -1.30 kcal/mol
DOCKED: USER    (3) Torsional Free Energy           =  +1.49 kcal/mol
DOCKED: USER    (4) Unbound System's Energy         =  -1.30 kcal/mol
DOCKED: USER
DOCKED: USER
DOCKED: REMARK SMILES O=c1c2ccccc2nc(/C=C/c2cccnc2)n1CC1CCCCC1
DOCKED: REMARK SMILES IDX 10 1 9 2 8 3 7 4 6 5 5 6 4 7 3 8 2 9 1 10 19 11 11 12 12 13
DOCKED: REMARK SMILES IDX 13 14 18 15 14 16 17 17 15 18 16 19 20 20 21 21 22 22 26 23
DOCKED: REMARK SMILES IDX 23 24 25 25 24 26
DOCKED: REMARK H PARENT
DOCKED: USER                              x       y       z     vdW  Elec       q    Type
DOCKED: USER                           _______ _______ _______ _____ _____    ______ ____
DOCKED: ROOT
DOCKED: ATOM      1  C   UNL     1     141.631  75.390 220.668 -0.24 -0.05    +0.136 A  
DOCKED: ATOM      2  N   UNL     1     141.810  74.053 220.844 -0.18 +0.05    -0.230 NA 
DOCKED: ATOM      3  C   UNL     1     140.855  73.258 221.375 -0.25 -0.01    +0.078 A  
DOCKED: ATOM      4  C   UNL     1     141.091  71.886 221.528 -0.23 -0.00    +0.029 A  
DOCKED: ATOM      5  C   UNL     1     140.107  71.066 222.087 -0.22 -0.00    +0.002 A  
DOCKED: ATOM      6  C   UNL     1     138.889  71.615 222.498 -0.23 -0.00    +0.001 A  
DOCKED: ATOM      7  C   UNL     1     138.651  72.985 222.350 -0.10 -0.01    +0.016 A  
DOCKED: ATOM      8  C   UNL     1     139.636  73.817 221.783 -0.25 -0.01    +0.066 A  
DOCKED: ATOM      9  C   UNL     1     139.449  75.198 221.614 -0.19 -0.05    +0.261 A  
DOCKED: ATOM     10  O   UNL     1     138.376  75.725 222.022 -0.19 +0.06    -0.269 OA 
DOCKED: ATOM     11  N   UNL     1     140.427  75.975 221.028 -0.13 +0.08    -0.292 N  
DOCKED: ENDROOT
DOCKED: BRANCH   1  12
DOCKED: ATOM     12  C   UNL     1     142.762  76.162 220.076 -0.25 -0.03    +0.048 C  
DOCKED: BRANCH  12  13
DOCKED: ATOM     13  C   UNL     1     143.621  75.615 219.202 -0.33 -0.01    +0.013 C  
DOCKED: BRANCH  13  14
DOCKED: ATOM     14  C   UNL     1     144.464  74.432 219.506 -0.28 +0.00    -0.007 A  
DOCKED: ATOM     15  C   UNL     1     144.828  73.482 218.530 -0.19 -0.01    +0.119 A  
DOCKED: ATOM     16  C   UNL     1     144.954  74.266 220.809 -0.47 -0.00    +0.011 A  
DOCKED: ATOM     17  N   UNL     1     145.615  72.424 218.866 -0.67 -0.17    -0.264 NA 
DOCKED: ATOM     18  C   UNL     1     145.757  73.170 221.126 -0.66 -0.00    +0.021 A  
DOCKED: ATOM     19  C   UNL     1     146.077  72.247 220.131 -0.30 +0.04    +0.111 A  
DOCKED: ENDBRANCH  13  14
DOCKED: ENDBRANCH  12  13
DOCKED: ENDBRANCH   1  12
DOCKED: BRANCH  11  20
DOCKED: ATOM     20  C   UNL     1     140.179  77.431 220.861 -0.17 -0.04    +0.131 C  
DOCKED: BRANCH  20  21
DOCKED: ATOM     21  C   UNL     1     141.163  78.336 221.655 -0.38 -0.00    +0.009 C  
DOCKED: ATOM     22  C   UNL     1     141.511  79.669 220.942 -0.35 -0.00    +0.005 C  
DOCKED: ATOM     23  C   UNL     1     140.701  78.605 223.099 -0.48 -0.00    +0.005 C  
DOCKED: ATOM     24  C   UNL     1     142.125  80.729 221.882 -0.48 -0.00    +0.000 C  
DOCKED: ATOM     25  C   UNL     1     141.812  79.270 223.940 -0.60 -0.00    +0.000 C  
DOCKED: ATOM     26  C   UNL     1     142.807  80.099 223.102 -0.67 -0.00    +0.000 C  
DOCKED: ENDBRANCH  20  21
DOCKED: ENDBRANCH  11  20
DOCKED: TORSDOF 5
DOCKED: TER
DOCKED: ENDMDL
________________________________________________________________________________


    FINAL DOCKED STATE:
    ________________________


Run:   10 / 20
Time taken for this run:   0.033s

DOCKED: MODEL        10
DOCKED: USER    Run = 10
DOCKED: USER
DOCKED: USER    Estimated Free Energy of Binding    =  -6.25 kcal/mol  [=(1)+(2)+(3)-(4)]
DOCKED: USER
DOCKED: USER    (1) Final Intermolecular Energy     =  -7.74 kcal/mol
DOCKED: USER        vdW + Hbond + desolv Energy     =  -7.80 kcal/mol
DOCKED: USER        Electrostatic Energy            =  +0.06 kcal/mol
DOCKED: USER        Moving Ligand-Fixed Receptor    =  -7.74 kcal/mol
DOCKED: USER        Moving Ligand-Moving Receptor   =  +0.00 kcal/mol
DOCKED: USER    (2) Final Total Internal Energy     =  -1.94 kcal/mol
DOCKED: USER    (3) Torsional Free Energy           =  +1.49 kcal/mol
DOCKED: USER    (4) Unbound System's Energy         =  -1.94 kcal/mol
DOCKED: USER
DOCKED: USER
DOCKED: REMARK SMILES O=c1c2ccccc2nc(/C=C/c2cccnc2)n1CC1CCCCC1
DOCKED: REMARK SMILES IDX 10 1 9 2 8 3 7 4 6 5 5 6 4 7 3 8 2 9 1 10 19 11 11 12 12 13
DOCKED: REMARK SMILES IDX 13 14 18 15 14 16 17 17 15 18 16 19 20 20 21 21 22 22 26 23
DOCKED: REMARK SMILES IDX 23 24 25 25 24 26
DOCKED: REMARK H PARENT
DOCKED: USER                              x       y       z     vdW  Elec       q    Type
DOCKED: USER                           _______ _______ _______ _____ _____    ______ ____
DOCKED: ROOT
DOCKED: ATOM      1  C   UNL     1     140.439  76.336 221.056 -0.22 -0.04    +0.136 A  
DOCKED: ATOM      2  N   UNL     1     140.739  75.034 221.315 -0.30 +0.05    -0.230 NA 
DOCKED: ATOM      3  C   UNL     1     141.896  74.464 220.913 -0.25 -0.02    +0.078 A  
DOCKED: ATOM      4  C   UNL     1     142.156  73.120 221.214 -0.20 -0.00    +0.029 A  
DOCKED: ATOM      5  C   UNL     1     143.348  72.528 220.789 -0.30 -0.00    +0.002 A  
DOCKED: ATOM      6  C   UNL     1     144.280  73.273 220.061 -0.40 -0.00    +0.001 A  
DOCKED: ATOM      7  C   UNL     1     144.024  74.614 219.758 -0.39 -0.01    +0.016 A  
DOCKED: ATOM      8  C   UNL     1     142.826  75.219 220.187 -0.30 -0.03    +0.066 A  
DOCKED: ATOM      9  C   UNL     1     142.518  76.560 219.906 -0.21 -0.16    +0.261 A  
DOCKED: ATOM     10  O   UNL     1     143.323  77.240 219.210 -0.25 +0.22    -0.269 OA 
DOCKED: ATOM     11  N   UNL     1     141.348  77.126 220.368 -0.12 +0.14    -0.292 N  
DOCKED: ENDROOT
DOCKED: BRANCH   1  12
DOCKED: ATOM     12  C   UNL     1     139.128  76.849 221.547 -0.23 -0.01    +0.048 C  
DOCKED: BRANCH  12  13
DOCKED: ATOM     13  C   UNL     1     139.002  77.479 222.726 -0.28 -0.00    +0.013 C  
DOCKED: BRANCH  13  14
DOCKED: ATOM     14  C   UNL     1     138.554  78.887 222.863 -0.29 +0.00    -0.007 A  
DOCKED: ATOM     15  C   UNL     1     137.771  79.539 221.889 -0.11 -0.02    +0.119 A  
DOCKED: ATOM     16  C   UNL     1     138.889  79.594 224.027 -0.30 -0.00    +0.011 A  
DOCKED: ATOM     17  N   UNL     1     137.378  80.827 222.077 -0.05 +0.04    -0.264 NA 
DOCKED: ATOM     18  C   UNL     1     138.475  80.917 224.192 -0.38 -0.00    +0.021 A  
DOCKED: ATOM     19  C   UNL     1     137.715  81.524 223.193 -0.20 -0.01    +0.111 A  
DOCKED: ENDBRANCH  13  14
DOCKED: ENDBRANCH  12  13
DOCKED: ENDBRANCH   1  12
DOCKED: BRANCH  11  20
DOCKED: ATOM     20  C   UNL     1     141.070  78.551 220.056 -0.19 -0.06    +0.131 C  
DOCKED: BRANCH  20  21
DOCKED: ATOM     21  C   UNL     1     141.236  79.510 221.268 -0.35 -0.00    +0.009 C  
DOCKED: ATOM     22  C   UNL     1     142.228  79.000 222.346 -0.47 -0.00    +0.005 C  
DOCKED: ATOM     23  C   UNL     1     141.590  80.950 220.853 -0.35 -0.00    +0.005 C  
DOCKED: ATOM     24  C   UNL     1     142.710  80.104 223.312 -0.67 -0.00    +0.000 C  
DOCKED: ATOM     25  C   UNL     1     141.482  81.930 222.041 -0.42 -0.00    +0.000 C  
DOCKED: ATOM     26  C   UNL     1     141.714  81.264 223.412 -0.59 -0.00    +0.000 C  
DOCKED: ENDBRANCH  20  21
DOCKED: ENDBRANCH  11  20
DOCKED: TORSDOF 5
DOCKED: TER
DOCKED: ENDMDL
________________________________________________________________________________


    FINAL DOCKED STATE:
    ________________________


Run:   11 / 20
Time taken for this run:   0.033s

DOCKED: MODEL        11
DOCKED: USER    Run = 11
DOCKED: USER
DOCKED: USER    Estimated Free Energy of Binding    =  -7.11 kcal/mol  [=(1)+(2)+(3)-(4)]
DOCKED: USER
DOCKED: USER    (1) Final Intermolecular Energy     =  -8.60 kcal/mol
DOCKED: USER        vdW + Hbond + desolv Energy     =  -8.55 kcal/mol
DOCKED: USER        Electrostatic Energy            =  -0.06 kcal/mol
DOCKED: USER        Moving Ligand-Fixed Receptor    =  -8.60 kcal/mol
DOCKED: USER        Moving Ligand-Moving Receptor   =  +0.00 kcal/mol
DOCKED: USER    (2) Final Total Internal Energy     =  -1.31 kcal/mol
DOCKED: USER    (3) Torsional Free Energy           =  +1.49 kcal/mol
DOCKED: USER    (4) Unbound System's Energy         =  -1.31 kcal/mol
DOCKED: USER
DOCKED: USER
DOCKED: REMARK SMILES O=c1c2ccccc2nc(/C=C/c2cccnc2)n1CC1CCCCC1
DOCKED: REMARK SMILES IDX 10 1 9 2 8 3 7 4 6 5 5 6 4 7 3 8 2 9 1 10 19 11 11 12 12 13
DOCKED: REMARK SMILES IDX 13 14 18 15 14 16 17 17 15 18 16 19 20 20 21 21 22 22 26 23
DOCKED: REMARK SMILES IDX 23 24 25 25 24 26
DOCKED: REMARK H PARENT
DOCKED: USER                              x       y       z     vdW  Elec       q    Type
DOCKED: USER                           _______ _______ _______ _____ _____    ______ ____
DOCKED: ROOT
DOCKED: ATOM      1  C   UNL     1     139.517  70.497 223.571 -0.25 -0.02    +0.136 A  
DOCKED: ATOM      2  N   UNL     1     140.103  71.346 224.459 -0.29 +0.04    -0.230 NA 
DOCKED: ATOM      3  C   UNL     1     140.421  70.973 225.717 -0.52 -0.01    +0.078 A  
DOCKED: ATOM      4  C   UNL     1     141.029  71.887 226.586 -0.71 -0.00    +0.029 A  
DOCKED: ATOM      5  C   UNL     1     141.349  71.504 227.892 -0.70 -0.00    +0.002 A  
DOCKED: ATOM      6  C   UNL     1     141.059  70.209 228.332 -0.56 -0.00    +0.001 A  
DOCKED: ATOM      7  C   UNL     1     140.450  69.294 227.468 -0.60 -0.00    +0.016 A  
DOCKED: ATOM      8  C   UNL     1     140.129  69.672 226.149 -0.45 -0.01    +0.066 A  
DOCKED: ATOM      9  C   UNL     1     139.515  68.793 225.243 -0.27 -0.04    +0.261 A  
DOCKED: ATOM     10  O   UNL     1     139.200  67.634 225.632 -0.88 +0.00    -0.269 OA 
DOCKED: ATOM     11  N   UNL     1     139.242  69.191 223.950 -0.13 +0.05    -0.292 N  
DOCKED: ENDROOT
DOCKED: BRANCH   1  12
DOCKED: ATOM     12  C   UNL     1     139.209  71.028 222.213 -0.20 -0.01    +0.048 C  
DOCKED: BRANCH  12  13
DOCKED: ATOM     13  C   UNL     1     140.148  71.588 221.434 -0.20 -0.00    +0.013 C  
DOCKED: BRANCH  13  14
DOCKED: ATOM     14  C   UNL     1     140.449  73.041 221.422 -0.26 +0.00    -0.007 A  
DOCKED: ATOM     15  C   UNL     1     139.592  74.004 221.993 -0.23 -0.02    +0.119 A  
DOCKED: ATOM     16  C   UNL     1     141.654  73.479 220.855 -0.26 -0.00    +0.011 A  
DOCKED: ATOM     17  N   UNL     1     139.928  75.321 221.964 -0.52 +0.04    -0.264 NA 
DOCKED: ATOM     18  C   UNL     1     141.972  74.838 220.836 -0.30 -0.01    +0.021 A  
DOCKED: ATOM     19  C   UNL     1     141.084  75.755 221.398 -0.30 -0.04    +0.111 A  
DOCKED: ENDBRANCH  13  14
DOCKED: ENDBRANCH  12  13
DOCKED: ENDBRANCH   1  12
DOCKED: BRANCH  11  20
DOCKED: ATOM     20  C   UNL     1     138.601  68.223 223.024 -0.21 -0.02    +0.131 C  
DOCKED: BRANCH  20  21
DOCKED: ATOM     21  C   UNL     1     137.060  68.390 222.899 -0.12 -0.00    +0.009 C  
DOCKED: ATOM     22  C   UNL     1     136.427  69.262 224.015 -0.22 -0.00    +0.005 C  
DOCKED: ATOM     23  C   UNL     1     136.620  68.892 221.511 -0.08 -0.00    +0.005 C  
DOCKED: ATOM     24  C   UNL     1     135.011  69.771 223.669 -0.14 -0.00    +0.000 C  
DOCKED: ATOM     25  C   UNL     1     135.091  68.790 221.326 -0.05 -0.00    +0.000 C  
DOCKED: ATOM     26  C   UNL     1     134.303  68.874 222.649 -0.08 -0.00    +0.000 C  
DOCKED: ENDBRANCH  20  21
DOCKED: ENDBRANCH  11  20
DOCKED: TORSDOF 5
DOCKED: TER
DOCKED: ENDMDL
________________________________________________________________________________


    FINAL DOCKED STATE:
    ________________________


Run:   12 / 20
Time taken for this run:   0.033s

DOCKED: MODEL        12
DOCKED: USER    Run = 12
DOCKED: USER
DOCKED: USER    Estimated Free Energy of Binding    =  -6.96 kcal/mol  [=(1)+(2)+(3)-(4)]
DOCKED: USER
DOCKED: USER    (1) Final Intermolecular Energy     =  -8.45 kcal/mol
DOCKED: USER        vdW + Hbond + desolv Energy     =  -8.39 kcal/mol
DOCKED: USER        Electrostatic Energy            =  -0.06 kcal/mol
DOCKED: USER        Moving Ligand-Fixed Receptor    =  -8.45 kcal/mol
DOCKED: USER        Moving Ligand-Moving Receptor   =  +0.00 kcal/mol
DOCKED: USER    (2) Final Total Internal Energy     =  -1.42 kcal/mol
DOCKED: USER    (3) Torsional Free Energy           =  +1.49 kcal/mol
DOCKED: USER    (4) Unbound System's Energy         =  -1.42 kcal/mol
DOCKED: USER
DOCKED: USER
DOCKED: REMARK SMILES O=c1c2ccccc2nc(/C=C/c2cccnc2)n1CC1CCCCC1
DOCKED: REMARK SMILES IDX 10 1 9 2 8 3 7 4 6 5 5 6 4 7 3 8 2 9 1 10 19 11 11 12 12 13
DOCKED: REMARK SMILES IDX 13 14 18 15 14 16 17 17 15 18 16 19 20 20 21 21 22 22 26 23
DOCKED: REMARK SMILES IDX 23 24 25 25 24 26
DOCKED: REMARK H PARENT
DOCKED: USER                              x       y       z     vdW  Elec       q    Type
DOCKED: USER                           _______ _______ _______ _____ _____    ______ ____
DOCKED: ROOT
DOCKED: ATOM      1  C   UNL     1     139.591  70.351 223.478 -0.23 -0.02    +0.136 A  
DOCKED: ATOM      2  N   UNL     1     140.198  71.232 224.319 -0.29 +0.04    -0.230 NA 
DOCKED: ATOM      3  C   UNL     1     140.402  70.962 225.627 -0.51 -0.01    +0.078 A  
DOCKED: ATOM      4  C   UNL     1     141.040  71.904 226.445 -0.68 -0.00    +0.029 A  
DOCKED: ATOM      5  C   UNL     1     141.241  71.628 227.800 -0.76 -0.00    +0.002 A  
DOCKED: ATOM      6  C   UNL     1     140.804  70.416 228.341 -0.57 -0.00    +0.001 A  
DOCKED: ATOM      7  C   UNL     1     140.165  69.475 227.528 -0.60 -0.00    +0.016 A  
DOCKED: ATOM      8  C   UNL     1     139.963  69.743 226.160 -0.45 -0.01    +0.066 A  
DOCKED: ATOM      9  C   UNL     1     139.324  68.834 225.301 -0.27 -0.03    +0.261 A  
DOCKED: ATOM     10  O   UNL     1     138.878  67.752 225.777 -0.80 -0.01    -0.269 OA 
DOCKED: ATOM     11  N   UNL     1     139.171  69.121 223.960 -0.14 +0.05    -0.292 N  
DOCKED: ENDROOT
DOCKED: BRANCH   1  12
DOCKED: ATOM     12  C   UNL     1     139.418  70.766 222.056 -0.18 -0.01    +0.048 C  
DOCKED: BRANCH  12  13
DOCKED: ATOM     13  C   UNL     1     138.630  71.794 221.702 -0.15 -0.00    +0.013 C  
DOCKED: BRANCH  13  14
DOCKED: ATOM     14  C   UNL     1     139.019  73.218 221.846 -0.22 +0.00    -0.007 A  
DOCKED: ATOM     15  C   UNL     1     140.363  73.647 221.850 -0.24 -0.01    +0.119 A  
DOCKED: ATOM     16  C   UNL     1     138.013  74.189 221.944 -0.17 -0.00    +0.011 A  
DOCKED: ATOM     17  N   UNL     1     140.658  74.969 221.971 -0.61 +0.03    -0.264 NA 
DOCKED: ATOM     18  C   UNL     1     138.345  75.539 222.071 -0.26 -0.01    +0.021 A  
DOCKED: ATOM     19  C   UNL     1     139.688  75.913 222.087 -0.30 -0.02    +0.111 A  
DOCKED: ENDBRANCH  13  14
DOCKED: ENDBRANCH  12  13
DOCKED: ENDBRANCH   1  12
DOCKED: BRANCH  11  20
DOCKED: ATOM     20  C   UNL     1     138.499  68.123 223.088 -0.22 -0.02    +0.131 C  
DOCKED: BRANCH  20  21
DOCKED: ATOM     21  C   UNL     1     137.074  68.542 222.627 -0.17 -0.00    +0.009 C  
DOCKED: ATOM     22  C   UNL     1     136.256  67.393 221.981 -0.13 -0.00    +0.005 C  
DOCKED: ATOM     23  C   UNL     1     136.257  69.222 223.741 -0.19 -0.00    +0.005 C  
DOCKED: ATOM     24  C   UNL     1     134.740  67.679 221.914 -0.10 -0.00    +0.000 C  
DOCKED: ATOM     25  C   UNL     1     134.965  69.864 223.192 -0.10 -0.00    +0.000 C  
DOCKED: ATOM     26  C   UNL     1     134.430  69.179 221.918 -0.04 -0.00    +0.000 C  
DOCKED: ENDBRANCH  20  21
DOCKED: ENDBRANCH  11  20
DOCKED: TORSDOF 5
DOCKED: TER
DOCKED: ENDMDL
________________________________________________________________________________


    FINAL DOCKED STATE:
    ________________________


Run:   13 / 20
Time taken for this run:   0.033s

DOCKED: MODEL        13
DOCKED: USER    Run = 13
DOCKED: USER
DOCKED: USER    Estimated Free Energy of Binding    =  -6.80 kcal/mol  [=(1)+(2)+(3)-(4)]
DOCKED: USER
DOCKED: USER    (1) Final Intermolecular Energy     =  -8.29 kcal/mol
DOCKED: USER        vdW + Hbond + desolv Energy     =  -8.25 kcal/mol
DOCKED: USER        Electrostatic Energy            =  -0.04 kcal/mol
DOCKED: USER        Moving Ligand-Fixed Receptor    =  -8.29 kcal/mol
DOCKED: USER        Moving Ligand-Moving Receptor   =  +0.00 kcal/mol
DOCKED: USER    (2) Final Total Internal Energy     =  -1.33 kcal/mol
DOCKED: USER    (3) Torsional Free Energy           =  +1.49 kcal/mol
DOCKED: USER    (4) Unbound System's Energy         =  -1.33 kcal/mol
DOCKED: USER
DOCKED: USER
DOCKED: REMARK SMILES O=c1c2ccccc2nc(/C=C/c2cccnc2)n1CC1CCCCC1
DOCKED: REMARK SMILES IDX 10 1 9 2 8 3 7 4 6 5 5 6 4 7 3 8 2 9 1 10 19 11 11 12 12 13
DOCKED: REMARK SMILES IDX 13 14 18 15 14 16 17 17 15 18 16 19 20 20 21 21 22 22 26 23
DOCKED: REMARK SMILES IDX 23 24 25 25 24 26
DOCKED: REMARK H PARENT
DOCKED: USER                              x       y       z     vdW  Elec       q    Type
DOCKED: USER                           _______ _______ _______ _____ _____    ______ ____
DOCKED: ROOT
DOCKED: ATOM      1  C   UNL     1     137.403  73.202 222.348 -0.07 -0.05    +0.136 A  
DOCKED: ATOM      2  N   UNL     1     137.247  74.519 222.043 -0.10 +0.07    -0.230 NA 
DOCKED: ATOM      3  C   UNL     1     138.295  75.336 221.800 -0.21 -0.02    +0.078 A  
DOCKED: ATOM      4  C   UNL     1     138.074  76.683 221.484 -0.17 -0.01    +0.029 A  
DOCKED: ATOM      5  C   UNL     1     139.159  77.530 221.243 -0.18 -0.00    +0.002 A  
DOCKED: ATOM      6  C   UNL     1     140.465  77.036 221.321 -0.29 -0.00    +0.001 A  
DOCKED: ATOM      7  C   UNL     1     140.689  75.693 221.638 -0.36 -0.00    +0.016 A  
DOCKED: ATOM      8  C   UNL     1     139.600  74.831 221.878 -0.27 -0.01    +0.066 A  
DOCKED: ATOM      9  C   UNL     1     139.769  73.476 222.203 -0.13 -0.04    +0.261 A  
DOCKED: ATOM     10  O   UNL     1     140.940  73.018 222.325 -0.59 -0.00    -0.269 OA 
DOCKED: ATOM     11  N   UNL     1     138.677  72.657 222.403 -0.09 +0.09    -0.292 N  
DOCKED: ENDROOT
DOCKED: BRANCH   1  12
DOCKED: ATOM     12  C   UNL     1     136.170  72.404 222.601 -0.13 -0.01    +0.048 C  
DOCKED: BRANCH  12  13
DOCKED: ATOM     13  C   UNL     1     135.702  72.183 223.841 -0.20 -0.00    +0.013 C  
DOCKED: BRANCH  13  14
DOCKED: ATOM     14  C   UNL     1     135.088  73.234 224.689 -0.25 +0.00    -0.007 A  
DOCKED: ATOM     15  C   UNL     1     134.181  72.944 225.729 -0.24 -0.00    +0.119 A  
DOCKED: ATOM     16  C   UNL     1     135.449  74.572 224.478 -0.32 -0.00    +0.011 A  
DOCKED: ATOM     17  N   UNL     1     133.661  73.949 226.482 -0.80 -0.03    -0.264 NA 
DOCKED: ATOM     18  C   UNL     1     134.896  75.584 225.264 -0.37 -0.00    +0.021 A  
DOCKED: ATOM     19  C   UNL     1     133.991  75.250 226.270 -0.33 +0.00    +0.111 A  
DOCKED: ENDBRANCH  13  14
DOCKED: ENDBRANCH  12  13
DOCKED: ENDBRANCH   1  12
DOCKED: BRANCH  11  20
DOCKED: ATOM     20  C   UNL     1     138.906  71.227 222.734 -0.20 -0.03    +0.131 C  
DOCKED: BRANCH  20  21
DOCKED: ATOM     21  C   UNL     1     139.273  70.973 224.224 -0.39 -0.00    +0.009 C  
DOCKED: ATOM     22  C   UNL     1     138.805  69.595 224.763 -0.37 -0.00    +0.005 C  
DOCKED: ATOM     23  C   UNL     1     140.769  71.185 224.520 -0.43 -0.00    +0.005 C  
DOCKED: ATOM     24  C   UNL     1     139.515  69.171 226.067 -0.50 -0.00    +0.000 C  
DOCKED: ATOM     25  C   UNL     1     141.055  71.193 226.037 -0.66 -0.00    +0.000 C  
DOCKED: ATOM     26  C   UNL     1     140.041  70.372 226.859 -0.57 -0.00    +0.000 C  
DOCKED: ENDBRANCH  20  21
DOCKED: ENDBRANCH  11  20
DOCKED: TORSDOF 5
DOCKED: TER
DOCKED: ENDMDL
________________________________________________________________________________


    FINAL DOCKED STATE:
    ________________________


Run:   14 / 20
Time taken for this run:   0.033s

DOCKED: MODEL        14
DOCKED: USER    Run = 14
DOCKED: USER
DOCKED: USER    Estimated Free Energy of Binding    =  -6.89 kcal/mol  [=(1)+(2)+(3)-(4)]
DOCKED: USER
DOCKED: USER    (1) Final Intermolecular Energy     =  -8.38 kcal/mol
DOCKED: USER        vdW + Hbond + desolv Energy     =  -8.29 kcal/mol
DOCKED: USER        Electrostatic Energy            =  -0.09 kcal/mol
DOCKED: USER        Moving Ligand-Fixed Receptor    =  -8.38 kcal/mol
DOCKED: USER        Moving Ligand-Moving Receptor   =  +0.00 kcal/mol
DOCKED: USER    (2) Final Total Internal Energy     =  -1.48 kcal/mol
DOCKED: USER    (3) Torsional Free Energy           =  +1.49 kcal/mol
DOCKED: USER    (4) Unbound System's Energy         =  -1.48 kcal/mol
DOCKED: USER
DOCKED: USER
DOCKED: REMARK SMILES O=c1c2ccccc2nc(/C=C/c2cccnc2)n1CC1CCCCC1
DOCKED: REMARK SMILES IDX 10 1 9 2 8 3 7 4 6 5 5 6 4 7 3 8 2 9 1 10 19 11 11 12 12 13
DOCKED: REMARK SMILES IDX 13 14 18 15 14 16 17 17 15 18 16 19 20 20 21 21 22 22 26 23
DOCKED: REMARK SMILES IDX 23 24 25 25 24 26
DOCKED: REMARK H PARENT
DOCKED: USER                              x       y       z     vdW  Elec       q    Type
DOCKED: USER                           _______ _______ _______ _____ _____    ______ ____
DOCKED: ROOT
DOCKED: ATOM      1  C   UNL     1     141.498  76.674 220.472 -0.23 -0.07    +0.136 A  
DOCKED: ATOM      2  N   UNL     1     142.196  77.786 220.831 -0.14 +0.17    -0.230 NA 
DOCKED: ATOM      3  C   UNL     1     141.782  78.615 221.813 -0.37 -0.04    +0.078 A  
DOCKED: ATOM      4  C   UNL     1     142.544  79.742 222.145 -0.46 -0.01    +0.029 A  
DOCKED: ATOM      5  C   UNL     1     142.110  80.607 223.154 -0.62 -0.00    +0.002 A  
DOCKED: ATOM      6  C   UNL     1     140.914  80.350 223.829 -0.48 -0.00    +0.001 A  
DOCKED: ATOM      7  C   UNL     1     140.149  79.226 223.499 -0.44 -0.00    +0.016 A  
DOCKED: ATOM      8  C   UNL     1     140.582  78.348 222.486 -0.38 -0.02    +0.066 A  
DOCKED: ATOM      9  C   UNL     1     139.851  77.209 222.114 -0.23 -0.06    +0.261 A  
DOCKED: ATOM     10  O   UNL     1     138.743  76.982 222.677 -0.24 +0.05    -0.269 OA 
DOCKED: ATOM     11  N   UNL     1     140.323  76.357 221.137 -0.13 +0.09    -0.292 N  
DOCKED: ENDROOT
DOCKED: BRANCH   1  12
DOCKED: ATOM     12  C   UNL     1     142.054  75.839 219.369 -0.23 -0.02    +0.048 C  
DOCKED: BRANCH  12  13
DOCKED: ATOM     13  C   UNL     1     143.372  75.763 219.125 -0.35 -0.01    +0.013 C  
DOCKED: BRANCH  13  14
DOCKED: ATOM     14  C   UNL     1     144.203  74.577 219.449 -0.30 +0.00    -0.007 A  
DOCKED: ATOM     15  C   UNL     1     144.794  73.764 218.461 -0.14 -0.02    +0.119 A  
DOCKED: ATOM     16  C   UNL     1     144.446  74.267 220.795 -0.39 -0.00    +0.011 A  
DOCKED: ATOM     17  N   UNL     1     145.557  72.697 218.820 -0.66 -0.14    -0.264 NA 
DOCKED: ATOM     18  C   UNL     1     145.230  73.165 221.135 -0.57 -0.00    +0.021 A  
DOCKED: ATOM     19  C   UNL     1     145.780  72.380 220.122 -0.38 +0.03    +0.111 A  
DOCKED: ENDBRANCH  13  14
DOCKED: ENDBRANCH  12  13
DOCKED: ENDBRANCH   1  12
DOCKED: BRANCH  11  20
DOCKED: ATOM     20  C   UNL     1     139.519  75.158 220.784 -0.15 -0.03    +0.131 C  
DOCKED: BRANCH  20  21
DOCKED: ATOM     21  C   UNL     1     139.850  73.900 221.637 -0.27 -0.00    +0.009 C  
DOCKED: ATOM     22  C   UNL     1     138.608  73.057 222.028 -0.17 -0.00    +0.005 C  
DOCKED: ATOM     23  C   UNL     1     140.926  73.005 220.995 -0.24 -0.00    +0.005 C  
DOCKED: ATOM     24  C   UNL     1     138.955  71.627 222.491 -0.24 -0.00    +0.000 C  
DOCKED: ATOM     25  C   UNL     1     141.426  71.922 221.976 -0.16 -0.00    +0.000 C  
DOCKED: ATOM     26  C   UNL     1     140.383  71.523 223.039 -0.34 -0.00    +0.000 C  
DOCKED: ENDBRANCH  20  21
DOCKED: ENDBRANCH  11  20
DOCKED: TORSDOF 5
DOCKED: TER
DOCKED: ENDMDL
________________________________________________________________________________


    FINAL DOCKED STATE:
    ________________________


Run:   15 / 20
Time taken for this run:   0.033s

DOCKED: MODEL        15
DOCKED: USER    Run = 15
DOCKED: USER
DOCKED: USER    Estimated Free Energy of Binding    =  -7.10 kcal/mol  [=(1)+(2)+(3)-(4)]
DOCKED: USER
DOCKED: USER    (1) Final Intermolecular Energy     =  -8.59 kcal/mol
DOCKED: USER        vdW + Hbond + desolv Energy     =  -8.52 kcal/mol
DOCKED: USER        Electrostatic Energy            =  -0.06 kcal/mol
DOCKED: USER        Moving Ligand-Fixed Receptor    =  -8.59 kcal/mol
DOCKED: USER        Moving Ligand-Moving Receptor   =  +0.00 kcal/mol
DOCKED: USER    (2) Final Total Internal Energy     =  -1.35 kcal/mol
DOCKED: USER    (3) Torsional Free Energy           =  +1.49 kcal/mol
DOCKED: USER    (4) Unbound System's Energy         =  -1.35 kcal/mol
DOCKED: USER
DOCKED: USER
DOCKED: REMARK SMILES O=c1c2ccccc2nc(/C=C/c2cccnc2)n1CC1CCCCC1
DOCKED: REMARK SMILES IDX 10 1 9 2 8 3 7 4 6 5 5 6 4 7 3 8 2 9 1 10 19 11 11 12 12 13
DOCKED: REMARK SMILES IDX 13 14 18 15 14 16 17 17 15 18 16 19 20 20 21 21 22 22 26 23
DOCKED: REMARK SMILES IDX 23 24 25 25 24 26
DOCKED: REMARK H PARENT
DOCKED: USER                              x       y       z     vdW  Elec       q    Type
DOCKED: USER                           _______ _______ _______ _____ _____    ______ ____
DOCKED: ROOT
DOCKED: ATOM      1  C   UNL     1     139.434  70.254 223.512 -0.23 -0.02    +0.136 A  
DOCKED: ATOM      2  N   UNL     1     139.943  71.141 224.410 -0.28 +0.04    -0.230 NA 
DOCKED: ATOM      3  C   UNL     1     140.237  70.796 225.682 -0.49 -0.01    +0.078 A  
DOCKED: ATOM      4  C   UNL     1     140.765  71.750 226.562 -0.66 -0.00    +0.029 A  
DOCKED: ATOM      5  C   UNL     1     141.060  71.395 227.881 -0.79 -0.00    +0.002 A  
DOCKED: ATOM      6  C   UNL     1     140.824  70.091 228.325 -0.57 -0.00    +0.001 A  
DOCKED: ATOM      7  C   UNL     1     140.295  69.137 227.450 -0.61 -0.00    +0.016 A  
DOCKED: ATOM      8  C   UNL     1     140.000  69.486 226.118 -0.45 -0.01    +0.066 A  
DOCKED: ATOM      9  C   UNL     1     139.464  68.567 225.200 -0.27 -0.03    +0.261 A  
DOCKED: ATOM     10  O   UNL     1     139.199  67.396 225.591 -0.94 -0.01    -0.269 OA 
DOCKED: ATOM     11  N   UNL     1     139.216  68.939 223.895 -0.14 +0.05    -0.292 N  
DOCKED: ENDROOT
DOCKED: BRANCH   1  12
DOCKED: ATOM     12  C   UNL     1     139.145  70.756 222.138 -0.18 -0.01    +0.048 C  
DOCKED: BRANCH  12  13
DOCKED: ATOM     13  C   UNL     1     138.397  71.849 221.919 -0.16 -0.00    +0.013 C  
DOCKED: BRANCH  13  14
DOCKED: ATOM     14  C   UNL     1     138.932  73.232 221.949 -0.22 +0.00    -0.007 A  
DOCKED: ATOM     15  C   UNL     1     140.313  73.519 221.946 -0.25 -0.01    +0.119 A  
DOCKED: ATOM     16  C   UNL     1     138.032  74.308 221.942 -0.18 -0.00    +0.011 A  
DOCKED: ATOM     17  N   UNL     1     140.744  74.808 221.961 -0.62 +0.02    -0.264 NA 
DOCKED: ATOM     18  C   UNL     1     138.503  75.621 221.960 -0.27 -0.01    +0.021 A  
DOCKED: ATOM     19  C   UNL     1     139.877  75.854 221.974 -0.31 -0.02    +0.111 A  
DOCKED: ENDBRANCH  13  14
DOCKED: ENDBRANCH  12  13
DOCKED: ENDBRANCH   1  12
DOCKED: BRANCH  11  20
DOCKED: ATOM     20  C   UNL     1     138.659  67.930 222.957 -0.21 -0.02    +0.131 C  
DOCKED: BRANCH  20  21
DOCKED: ATOM     21  C   UNL     1     137.198  68.217 222.512 -0.16 -0.00    +0.009 C  
DOCKED: ATOM     22  C   UNL     1     136.448  66.975 221.963 -0.11 -0.00    +0.005 C  
DOCKED: ATOM     23  C   UNL     1     136.361  68.909 223.603 -0.16 -0.00    +0.005 C  
DOCKED: ATOM     24  C   UNL     1     134.915  67.149 221.921 -0.12 -0.00    +0.000 C  
DOCKED: ATOM     25  C   UNL     1     135.014  69.423 223.051 -0.11 -0.00    +0.000 C  
DOCKED: ATOM     26  C   UNL     1     134.499  68.621 221.838 -0.06 -0.00    +0.000 C  
DOCKED: ENDBRANCH  20  21
DOCKED: ENDBRANCH  11  20
DOCKED: TORSDOF 5
DOCKED: TER
DOCKED: ENDMDL
________________________________________________________________________________


    FINAL DOCKED STATE:
    ________________________


Run:   16 / 20
Time taken for this run:   0.033s

DOCKED: MODEL        16
DOCKED: USER    Run = 16
DOCKED: USER
DOCKED: USER    Estimated Free Energy of Binding    =  -6.17 kcal/mol  [=(1)+(2)+(3)-(4)]
DOCKED: USER
DOCKED: USER    (1) Final Intermolecular Energy     =  -7.67 kcal/mol
DOCKED: USER        vdW + Hbond + desolv Energy     =  -7.72 kcal/mol
DOCKED: USER        Electrostatic Energy            =  +0.05 kcal/mol
DOCKED: USER        Moving Ligand-Fixed Receptor    =  -7.67 kcal/mol
DOCKED: USER        Moving Ligand-Moving Receptor   =  +0.00 kcal/mol
DOCKED: USER    (2) Final Total Internal Energy     =  -1.98 kcal/mol
DOCKED: USER    (3) Torsional Free Energy           =  +1.49 kcal/mol
DOCKED: USER    (4) Unbound System's Energy         =  -1.98 kcal/mol
DOCKED: USER
DOCKED: USER
DOCKED: REMARK SMILES O=c1c2ccccc2nc(/C=C/c2cccnc2)n1CC1CCCCC1
DOCKED: REMARK SMILES IDX 10 1 9 2 8 3 7 4 6 5 5 6 4 7 3 8 2 9 1 10 19 11 11 12 12 13
DOCKED: REMARK SMILES IDX 13 14 18 15 14 16 17 17 15 18 16 19 20 20 21 21 22 22 26 23
DOCKED: REMARK SMILES IDX 23 24 25 25 24 26
DOCKED: REMARK H PARENT
DOCKED: USER                              x       y       z     vdW  Elec       q    Type
DOCKED: USER                           _______ _______ _______ _____ _____    ______ ____
DOCKED: ROOT
DOCKED: ATOM      1  C   UNL     1     140.439  76.327 221.022 -0.21 -0.04    +0.136 A  
DOCKED: ATOM      2  N   UNL     1     140.760  75.032 221.294 -0.29 +0.05    -0.230 NA 
DOCKED: ATOM      3  C   UNL     1     141.929  74.479 220.904 -0.25 -0.02    +0.078 A  
DOCKED: ATOM      4  C   UNL     1     142.210  73.143 221.217 -0.18 -0.00    +0.029 A  
DOCKED: ATOM      5  C   UNL     1     143.415  72.567 220.804 -0.31 -0.00    +0.002 A  
DOCKED: ATOM      6  C   UNL     1     144.338  73.322 220.075 -0.41 -0.00    +0.001 A  
DOCKED: ATOM      7  C   UNL     1     144.060  74.656 219.758 -0.40 -0.01    +0.016 A  
DOCKED: ATOM      8  C   UNL     1     142.849  75.244 220.175 -0.30 -0.03    +0.066 A  
DOCKED: ATOM      9  C   UNL     1     142.520  76.577 219.881 -0.21 -0.16    +0.261 A  
DOCKED: ATOM     10  O   UNL     1     143.317  77.264 219.183 -0.24 +0.22    -0.269 OA 
DOCKED: ATOM     11  N   UNL     1     141.337  77.126 220.332 -0.12 +0.14    -0.292 N  
DOCKED: ENDROOT
DOCKED: BRANCH   1  12
DOCKED: ATOM     12  C   UNL     1     139.117  76.821 221.501 -0.22 -0.01    +0.048 C  
DOCKED: BRANCH  12  13
DOCKED: ATOM     13  C   UNL     1     138.955  77.367 222.717 -0.27 -0.00    +0.013 C  
DOCKED: BRANCH  13  14
DOCKED: ATOM     14  C   UNL     1     138.623  78.796 222.941 -0.30 +0.00    -0.007 A  
DOCKED: ATOM     15  C   UNL     1     139.135  79.540 224.024 -0.26 -0.01    +0.119 A  
DOCKED: ATOM     16  C   UNL     1     137.795  79.452 222.019 -0.16 -0.00    +0.011 A  
DOCKED: ATOM     17  N   UNL     1     138.805  80.851 224.169 -0.24 +0.02    -0.264 NA 
DOCKED: ATOM     18  C   UNL     1     137.470  80.797 222.194 -0.14 -0.00    +0.021 A  
DOCKED: ATOM     19  C   UNL     1     137.988  81.487 223.290 -0.21 -0.01    +0.111 A  
DOCKED: ENDBRANCH  13  14
DOCKED: ENDBRANCH  12  13
DOCKED: ENDBRANCH   1  12
DOCKED: BRANCH  11  20
DOCKED: ATOM     20  C   UNL     1     141.037  78.544 220.005 -0.18 -0.06    +0.131 C  
DOCKED: BRANCH  20  21
DOCKED: ATOM     21  C   UNL     1     141.223  79.523 221.199 -0.34 -0.00    +0.009 C  
DOCKED: ATOM     22  C   UNL     1     142.214  79.018 222.281 -0.48 -0.00    +0.005 C  
DOCKED: ATOM     23  C   UNL     1     141.595  80.949 220.754 -0.34 -0.00    +0.005 C  
DOCKED: ATOM     24  C   UNL     1     142.716  80.133 223.223 -0.67 -0.00    +0.000 C  
DOCKED: ATOM     25  C   UNL     1     141.508  81.953 221.924 -0.40 -0.00    +0.000 C  
DOCKED: ATOM     26  C   UNL     1     141.738  81.309 223.307 -0.58 -0.00    +0.000 C  
DOCKED: ENDBRANCH  20  21
DOCKED: ENDBRANCH  11  20
DOCKED: TORSDOF 5
DOCKED: TER
DOCKED: ENDMDL
________________________________________________________________________________


    FINAL DOCKED STATE:
    ________________________


Run:   17 / 20
Time taken for this run:   0.033s

DOCKED: MODEL        17
DOCKED: USER    Run = 17
DOCKED: USER
DOCKED: USER    Estimated Free Energy of Binding    =  -7.14 kcal/mol  [=(1)+(2)+(3)-(4)]
DOCKED: USER
DOCKED: USER    (1) Final Intermolecular Energy     =  -8.63 kcal/mol
DOCKED: USER        vdW + Hbond + desolv Energy     =  -8.48 kcal/mol
DOCKED: USER        Electrostatic Energy            =  -0.15 kcal/mol
DOCKED: USER        Moving Ligand-Fixed Receptor    =  -8.63 kcal/mol
DOCKED: USER        Moving Ligand-Moving Receptor   =  +0.00 kcal/mol
DOCKED: USER    (2) Final Total Internal Energy     =  -1.30 kcal/mol
DOCKED: USER    (3) Torsional Free Energy           =  +1.49 kcal/mol
DOCKED: USER    (4) Unbound System's Energy         =  -1.30 kcal/mol
DOCKED: USER
DOCKED: USER
DOCKED: REMARK SMILES O=c1c2ccccc2nc(/C=C/c2cccnc2)n1CC1CCCCC1
DOCKED: REMARK SMILES IDX 10 1 9 2 8 3 7 4 6 5 5 6 4 7 3 8 2 9 1 10 19 11 11 12 12 13
DOCKED: REMARK SMILES IDX 13 14 18 15 14 16 17 17 15 18 16 19 20 20 21 21 22 22 26 23
DOCKED: REMARK SMILES IDX 23 24 25 25 24 26
DOCKED: REMARK H PARENT
DOCKED: USER                              x       y       z     vdW  Elec       q    Type
DOCKED: USER                           _______ _______ _______ _____ _____    ______ ____
DOCKED: ROOT
DOCKED: ATOM      1  C   UNL     1     141.601  75.367 220.626 -0.23 -0.05    +0.136 A  
DOCKED: ATOM      2  N   UNL     1     141.781  74.028 220.790 -0.18 +0.05    -0.230 NA 
DOCKED: ATOM      3  C   UNL     1     140.835  73.231 221.332 -0.24 -0.01    +0.078 A  
DOCKED: ATOM      4  C   UNL     1     141.071  71.858 221.471 -0.23 -0.00    +0.029 A  
DOCKED: ATOM      5  C   UNL     1     140.096  71.036 222.042 -0.21 -0.00    +0.002 A  
DOCKED: ATOM      6  C   UNL     1     138.887  71.582 222.479 -0.22 -0.00    +0.001 A  
DOCKED: ATOM      7  C   UNL     1     138.648  72.954 222.344 -0.12 -0.01    +0.016 A  
DOCKED: ATOM      8  C   UNL     1     139.624  73.788 221.765 -0.25 -0.01    +0.066 A  
DOCKED: ATOM      9  C   UNL     1     139.436  75.171 221.610 -0.19 -0.05    +0.261 A  
DOCKED: ATOM     10  O   UNL     1     138.370  75.696 222.040 -0.20 +0.07    -0.269 OA 
DOCKED: ATOM     11  N   UNL     1     140.404  75.951 221.012 -0.13 +0.08    -0.292 N  
DOCKED: ENDROOT
DOCKED: BRANCH   1  12
DOCKED: ATOM     12  C   UNL     1     142.721  76.142 220.019 -0.27 -0.03    +0.048 C  
DOCKED: BRANCH  12  13
DOCKED: ATOM     13  C   UNL     1     143.575  75.595 219.140 -0.32 -0.01    +0.013 C  
DOCKED: BRANCH  13  14
DOCKED: ATOM     14  C   UNL     1     144.449  74.437 219.451 -0.27 +0.00    -0.007 A  
DOCKED: ATOM     15  C   UNL     1     144.791  73.458 218.495 -0.19 -0.01    +0.119 A  
DOCKED: ATOM     16  C   UNL     1     144.991  74.324 220.739 -0.47 -0.00    +0.011 A  
DOCKED: ATOM     17  N   UNL     1     145.608  72.426 218.837 -0.67 -0.17    -0.264 NA 
DOCKED: ATOM     18  C   UNL     1     145.824  73.252 221.063 -0.67 -0.00    +0.021 A  
DOCKED: ATOM     19  C   UNL     1     146.121  72.300 220.088 -0.31 +0.05    +0.111 A  
DOCKED: ENDBRANCH  13  14
DOCKED: ENDBRANCH  12  13
DOCKED: ENDBRANCH   1  12
DOCKED: BRANCH  11  20
DOCKED: ATOM     20  C   UNL     1     140.155  77.408 220.859 -0.17 -0.04    +0.131 C  
DOCKED: BRANCH  20  21
DOCKED: ATOM     21  C   UNL     1     141.150  78.307 221.647 -0.38 -0.00    +0.009 C  
DOCKED: ATOM     22  C   UNL     1     141.498  79.640 220.934 -0.35 -0.00    +0.005 C  
DOCKED: ATOM     23  C   UNL     1     140.703  78.573 223.096 -0.48 -0.00    +0.005 C  
DOCKED: ATOM     24  C   UNL     1     142.126  80.694 221.872 -0.48 -0.00    +0.000 C  
DOCKED: ATOM     25  C   UNL     1     141.825  79.231 223.928 -0.61 -0.00    +0.000 C  
DOCKED: ATOM     26  C   UNL     1     142.815  80.058 223.083 -0.66 -0.00    +0.000 C  
DOCKED: ENDBRANCH  20  21
DOCKED: ENDBRANCH  11  20
DOCKED: TORSDOF 5
DOCKED: TER
DOCKED: ENDMDL
________________________________________________________________________________


    FINAL DOCKED STATE:
    ________________________


Run:   18 / 20
Time taken for this run:   0.033s

DOCKED: MODEL        18
DOCKED: USER    Run = 18
DOCKED: USER
DOCKED: USER    Estimated Free Energy of Binding    =  -6.25 kcal/mol  [=(1)+(2)+(3)-(4)]
DOCKED: USER
DOCKED: USER    (1) Final Intermolecular Energy     =  -7.74 kcal/mol
DOCKED: USER        vdW + Hbond + desolv Energy     =  -7.81 kcal/mol
DOCKED: USER        Electrostatic Energy            =  +0.06 kcal/mol
DOCKED: USER        Moving Ligand-Fixed Receptor    =  -7.74 kcal/mol
DOCKED: USER        Moving Ligand-Moving Receptor   =  +0.00 kcal/mol
DOCKED: USER    (2) Final Total Internal Energy     =  -1.94 kcal/mol
DOCKED: USER    (3) Torsional Free Energy           =  +1.49 kcal/mol
DOCKED: USER    (4) Unbound System's Energy         =  -1.94 kcal/mol
DOCKED: USER
DOCKED: USER
DOCKED: REMARK SMILES O=c1c2ccccc2nc(/C=C/c2cccnc2)n1CC1CCCCC1
DOCKED: REMARK SMILES IDX 10 1 9 2 8 3 7 4 6 5 5 6 4 7 3 8 2 9 1 10 19 11 11 12 12 13
DOCKED: REMARK SMILES IDX 13 14 18 15 14 16 17 17 15 18 16 19 20 20 21 21 22 22 26 23
DOCKED: REMARK SMILES IDX 23 24 25 25 24 26
DOCKED: REMARK H PARENT
DOCKED: USER                              x       y       z     vdW  Elec       q    Type
DOCKED: USER                           _______ _______ _______ _____ _____    ______ ____
DOCKED: ROOT
DOCKED: ATOM      1  C   UNL     1     140.439  76.325 221.046 -0.22 -0.04    +0.136 A  
DOCKED: ATOM      2  N   UNL     1     140.749  75.025 221.305 -0.30 +0.05    -0.230 NA 
DOCKED: ATOM      3  C   UNL     1     141.908  74.462 220.901 -0.26 -0.02    +0.078 A  
DOCKED: ATOM      4  C   UNL     1     142.178  73.121 221.202 -0.20 -0.00    +0.029 A  
DOCKED: ATOM      5  C   UNL     1     143.373  72.536 220.774 -0.30 -0.00    +0.002 A  
DOCKED: ATOM      6  C   UNL     1     144.298  73.286 220.043 -0.40 -0.00    +0.001 A  
DOCKED: ATOM      7  C   UNL     1     144.031  74.625 219.738 -0.39 -0.01    +0.016 A  
DOCKED: ATOM      8  C   UNL     1     142.831  75.223 220.170 -0.30 -0.03    +0.066 A  
DOCKED: ATOM      9  C   UNL     1     142.513  76.562 219.889 -0.21 -0.16    +0.261 A  
DOCKED: ATOM     10  O   UNL     1     143.311  77.246 219.189 -0.25 +0.22    -0.269 OA 
DOCKED: ATOM     11  N   UNL     1     141.340  77.120 220.354 -0.12 +0.14    -0.292 N  
DOCKED: ENDROOT
DOCKED: BRANCH   1  12
DOCKED: ATOM     12  C   UNL     1     139.127  76.830 221.540 -0.23 -0.01    +0.048 C  
DOCKED: BRANCH  12  13
DOCKED: ATOM     13  C   UNL     1     139.000  77.460 222.719 -0.28 -0.00    +0.013 C  
DOCKED: BRANCH  13  14
DOCKED: ATOM     14  C   UNL     1     138.545  78.865 222.858 -0.29 +0.00    -0.007 A  
DOCKED: ATOM     15  C   UNL     1     137.754  79.512 221.886 -0.11 -0.02    +0.119 A  
DOCKED: ATOM     16  C   UNL     1     138.880  79.576 224.019 -0.29 -0.00    +0.011 A  
DOCKED: ATOM     17  N   UNL     1     137.355  80.799 222.075 -0.05 +0.04    -0.264 NA 
DOCKED: ATOM     18  C   UNL     1     138.460  80.896 224.185 -0.39 -0.00    +0.021 A  
DOCKED: ATOM     19  C   UNL     1     137.693  81.498 223.189 -0.20 -0.01    +0.111 A  
DOCKED: ENDBRANCH  13  14
DOCKED: ENDBRANCH  12  13
DOCKED: ENDBRANCH   1  12
DOCKED: BRANCH  11  20
DOCKED: ATOM     20  C   UNL     1     141.052  78.543 220.040 -0.18 -0.06    +0.131 C  
DOCKED: BRANCH  20  21
DOCKED: ATOM     21  C   UNL     1     141.216  79.505 221.251 -0.34 -0.00    +0.009 C  
DOCKED: ATOM     22  C   UNL     1     142.212  79.001 222.328 -0.47 -0.00    +0.005 C  
DOCKED: ATOM     23  C   UNL     1     141.561  80.946 220.832 -0.35 -0.00    +0.005 C  
DOCKED: ATOM     24  C   UNL     1     142.690  80.109 223.291 -0.67 -0.00    +0.000 C  
DOCKED: ATOM     25  C   UNL     1     141.451  81.927 222.019 -0.42 -0.00    +0.000 C  
DOCKED: ATOM     26  C   UNL     1     141.688  81.265 223.391 -0.59 -0.00    +0.000 C  
DOCKED: ENDBRANCH  20  21
DOCKED: ENDBRANCH  11  20
DOCKED: TORSDOF 5
DOCKED: TER
DOCKED: ENDMDL
________________________________________________________________________________


    FINAL DOCKED STATE:
    ________________________


Run:   19 / 20
Time taken for this run:   0.033s

DOCKED: MODEL        19
DOCKED: USER    Run = 19
DOCKED: USER
DOCKED: USER    Estimated Free Energy of Binding    =  -6.97 kcal/mol  [=(1)+(2)+(3)-(4)]
DOCKED: USER
DOCKED: USER    (1) Final Intermolecular Energy     =  -8.46 kcal/mol
DOCKED: USER        vdW + Hbond + desolv Energy     =  -8.42 kcal/mol
DOCKED: USER        Electrostatic Energy            =  -0.04 kcal/mol
DOCKED: USER        Moving Ligand-Fixed Receptor    =  -8.46 kcal/mol
DOCKED: USER        Moving Ligand-Moving Receptor   =  +0.00 kcal/mol
DOCKED: USER    (2) Final Total Internal Energy     =  -1.43 kcal/mol
DOCKED: USER    (3) Torsional Free Energy           =  +1.49 kcal/mol
DOCKED: USER    (4) Unbound System's Energy         =  -1.43 kcal/mol
DOCKED: USER
DOCKED: USER
DOCKED: REMARK SMILES O=c1c2ccccc2nc(/C=C/c2cccnc2)n1CC1CCCCC1
DOCKED: REMARK SMILES IDX 10 1 9 2 8 3 7 4 6 5 5 6 4 7 3 8 2 9 1 10 19 11 11 12 12 13
DOCKED: REMARK SMILES IDX 13 14 18 15 14 16 17 17 15 18 16 19 20 20 21 21 22 22 26 23
DOCKED: REMARK SMILES IDX 23 24 25 25 24 26
DOCKED: REMARK H PARENT
DOCKED: USER                              x       y       z     vdW  Elec       q    Type
DOCKED: USER                           _______ _______ _______ _____ _____    ______ ____
DOCKED: ROOT
DOCKED: ATOM      1  C   UNL     1     138.280  69.250 224.172 -0.25 -0.02    +0.136 A  
DOCKED: ATOM      2  N   UNL     1     138.541  68.398 225.201 -0.48 +0.00    -0.230 NA 
DOCKED: ATOM      3  C   UNL     1     139.365  68.726 226.220 -0.46 -0.01    +0.078 A  
DOCKED: ATOM      4  C   UNL     1     139.592  67.812 227.257 -0.55 -0.01    +0.029 A  
DOCKED: ATOM      5  C   UNL     1     140.453  68.147 228.306 -0.61 -0.00    +0.002 A  
DOCKED: ATOM      6  C   UNL     1     141.090  69.391 228.320 -0.59 -0.00    +0.001 A  
DOCKED: ATOM      7  C   UNL     1     140.867  70.305 227.285 -0.59 -0.00    +0.016 A  
DOCKED: ATOM      8  C   UNL     1     139.997  69.976 226.227 -0.46 -0.01    +0.066 A  
DOCKED: ATOM      9  C   UNL     1     139.741  70.855 225.162 -0.29 -0.05    +0.261 A  
DOCKED: ATOM     10  O   UNL     1     140.341  71.966 225.129 -0.30 +0.05    -0.269 OA 
DOCKED: ATOM     11  N   UNL     1     138.860  70.509 224.158 -0.16 +0.06    -0.292 N  
DOCKED: ENDROOT
DOCKED: BRANCH   1  12
DOCKED: ATOM     12  C   UNL     1     137.358  68.772 223.102 -0.18 -0.01    +0.048 C  
DOCKED: BRANCH  12  13
DOCKED: ATOM     13  C   UNL     1     136.026  68.734 223.269 -0.11 -0.00    +0.013 C  
DOCKED: BRANCH  13  14
DOCKED: ATOM     14  C   UNL     1     135.324  69.346 224.424 -0.21 +0.00    -0.007 A  
DOCKED: ATOM     15  C   UNL     1     134.679  68.582 225.419 -0.19 -0.00    +0.119 A  
DOCKED: ATOM     16  C   UNL     1     135.330  70.742 224.560 -0.20 -0.00    +0.011 A  
DOCKED: ATOM     17  N   UNL     1     134.063  69.200 226.463 -0.66 -0.01    -0.264 NA 
DOCKED: ATOM     18  C   UNL     1     134.687  71.348 225.639 -0.16 -0.00    +0.021 A  
DOCKED: ATOM     19  C   UNL     1     134.049  70.552 226.589 -0.33 -0.00    +0.111 A  
DOCKED: ENDBRANCH  13  14
DOCKED: ENDBRANCH  12  13
DOCKED: ENDBRANCH   1  12
DOCKED: BRANCH  11  20
DOCKED: ATOM     20  C   UNL     1     138.613  71.476 223.059 -0.21 -0.03    +0.131 C  
DOCKED: BRANCH  20  21
DOCKED: ATOM     21  C   UNL     1     139.904  71.971 222.347 -0.30 -0.00    +0.009 C  
DOCKED: ATOM     22  C   UNL     1     140.431  71.008 221.252 -0.15 -0.00    +0.005 C  
DOCKED: ATOM     23  C   UNL     1     139.772  73.400 221.788 -0.27 -0.00    +0.005 C  
DOCKED: ATOM     24  C   UNL     1     141.430  71.670 220.279 -0.16 -0.00    +0.000 C  
DOCKED: ATOM     25  C   UNL     1     141.136  73.963 221.333 -0.28 -0.00    +0.000 C  
DOCKED: ATOM     26  C   UNL     1     142.141  72.874 220.905 -0.25 -0.00    +0.000 C  
DOCKED: ENDBRANCH  20  21
DOCKED: ENDBRANCH  11  20
DOCKED: TORSDOF 5
DOCKED: TER
DOCKED: ENDMDL
________________________________________________________________________________


    FINAL DOCKED STATE:
    ________________________


Run:   20 / 20
Time taken for this run:   0.033s

DOCKED: MODEL        20
DOCKED: USER    Run = 20
DOCKED: USER
DOCKED: USER    Estimated Free Energy of Binding    =  -7.12 kcal/mol  [=(1)+(2)+(3)-(4)]
DOCKED: USER
DOCKED: USER    (1) Final Intermolecular Energy     =  -8.61 kcal/mol
DOCKED: USER        vdW + Hbond + desolv Energy     =  -8.47 kcal/mol
DOCKED: USER        Electrostatic Energy            =  -0.14 kcal/mol
DOCKED: USER        Moving Ligand-Fixed Receptor    =  -8.61 kcal/mol
DOCKED: USER        Moving Ligand-Moving Receptor   =  +0.00 kcal/mol
DOCKED: USER    (2) Final Total Internal Energy     =  -1.29 kcal/mol
DOCKED: USER    (3) Torsional Free Energy           =  +1.49 kcal/mol
DOCKED: USER    (4) Unbound System's Energy         =  -1.29 kcal/mol
DOCKED: USER
DOCKED: USER
DOCKED: REMARK SMILES O=c1c2ccccc2nc(/C=C/c2cccnc2)n1CC1CCCCC1
DOCKED: REMARK SMILES IDX 10 1 9 2 8 3 7 4 6 5 5 6 4 7 3 8 2 9 1 10 19 11 11 12 12 13
DOCKED: REMARK SMILES IDX 13 14 18 15 14 16 17 17 15 18 16 19 20 20 21 21 22 22 26 23
DOCKED: REMARK SMILES IDX 23 24 25 25 24 26
DOCKED: REMARK H PARENT
DOCKED: USER                              x       y       z     vdW  Elec       q    Type
DOCKED: USER                           _______ _______ _______ _____ _____    ______ ____
DOCKED: ROOT
DOCKED: ATOM      1  C   UNL     1     141.571  75.280 220.615 -0.23 -0.05    +0.136 A  
DOCKED: ATOM      2  N   UNL     1     141.792  73.942 220.734 -0.17 +0.05    -0.230 NA 
DOCKED: ATOM      3  C   UNL     1     140.884  73.104 221.279 -0.24 -0.01    +0.078 A  
DOCKED: ATOM      4  C   UNL     1     141.162  71.734 221.369 -0.21 -0.00    +0.029 A  
DOCKED: ATOM      5  C   UNL     1     140.227  70.868 221.944 -0.17 -0.00    +0.002 A  
DOCKED: ATOM      6  C   UNL     1     139.017  71.368 222.431 -0.22 -0.00    +0.001 A  
DOCKED: ATOM      7  C   UNL     1     138.737  72.736 222.345 -0.17 -0.00    +0.016 A  
DOCKED: ATOM      8  C   UNL     1     139.672  73.614 221.763 -0.25 -0.01    +0.066 A  
DOCKED: ATOM      9  C   UNL     1     139.442  74.995 221.655 -0.19 -0.05    +0.261 A  
DOCKED: ATOM     10  O   UNL     1     138.376  75.477 222.131 -0.21 +0.07    -0.269 OA 
DOCKED: ATOM     11  N   UNL     1     140.371  75.818 221.053 -0.13 +0.08    -0.292 N  
DOCKED: ENDROOT
DOCKED: BRANCH   1  12
DOCKED: ATOM     12  C   UNL     1     142.652  76.103 220.000 -0.28 -0.03    +0.048 C  
DOCKED: BRANCH  12  13
DOCKED: ATOM     13  C   UNL     1     143.556  75.580 219.156 -0.33 -0.01    +0.013 C  
DOCKED: BRANCH  13  14
DOCKED: ATOM     14  C   UNL     1     144.428  74.428 219.494 -0.29 +0.00    -0.007 A  
DOCKED: ATOM     15  C   UNL     1     144.766  73.426 218.561 -0.19 -0.01    +0.119 A  
DOCKED: ATOM     16  C   UNL     1     144.973  74.345 220.783 -0.45 -0.00    +0.011 A  
DOCKED: ATOM     17  N   UNL     1     145.581  72.400 218.925 -0.66 -0.16    -0.264 NA 
DOCKED: ATOM     18  C   UNL     1     145.804  73.279 221.130 -0.68 -0.00    +0.021 A  
DOCKED: ATOM     19  C   UNL     1     146.096  72.303 220.178 -0.30 +0.04    +0.111 A  
DOCKED: ENDBRANCH  13  14
DOCKED: ENDBRANCH  12  13
DOCKED: ENDBRANCH   1  12
DOCKED: BRANCH  11  20
DOCKED: ATOM     20  C   UNL     1     140.078  77.271 220.951 -0.17 -0.04    +0.131 C  
DOCKED: BRANCH  20  21
DOCKED: ATOM     21  C   UNL     1     141.100  78.177 221.695 -0.38 -0.00    +0.009 C  
DOCKED: ATOM     22  C   UNL     1     141.521  79.441 220.899 -0.34 -0.00    +0.005 C  
DOCKED: ATOM     23  C   UNL     1     140.641  78.564 223.113 -0.46 -0.00    +0.005 C  
DOCKED: ATOM     24  C   UNL     1     142.181  80.528 221.775 -0.48 -0.00    +0.000 C  
DOCKED: ATOM     25  C   UNL     1     141.778  79.227 223.920 -0.61 -0.00    +0.000 C  
DOCKED: ATOM     26  C   UNL     1     142.820  79.947 223.041 -0.65 -0.00    +0.000 C  
DOCKED: ENDBRANCH  20  21
DOCKED: ENDBRANCH  11  20
DOCKED: TORSDOF 5
DOCKED: TER
DOCKED: ENDMDL
________________________________________________________________________________


    CLUSTERING HISTOGRAM
    ____________________


________________________________________________________________________________
     |           |     |           |     |
Clus | Lowest    | Run | Mean      | Num | Histogram
-ter | Binding   |     | Binding   | in  |
Rank | Energy    |     | Energy    | Clus|    5    10   15   20   25   30   35
_____|___________|_____|___________|_____|____:____|____:____|____:____|____:___
   1 |     -7.25 |   2 |     -6.98 |   7 |#######
   2 |     -7.14 |   9 |     -7.13 |   5 |#####
   3 |     -7.03 |   6 |     -6.99 |   3 |###
   4 |     -6.89 |  14 |     -6.89 |   1 |#
   5 |     -6.80 |  13 |     -6.80 |   1 |#
   6 |     -6.25 |  18 |     -6.22 |   3 |###
_____|___________|_____|___________|_____|______________________________________


    RMSD TABLE
    __________


_______________________________________________________________________
     |      |      |           |         |                 |
Rank | Sub- | Run  | Binding   | Cluster | Reference       | Grep
     | Rank |      | Energy    | RMSD    | RMSD            | Pattern
_____|______|______|___________|_________|_________________|___________
   1      1      2       -7.25      0.00    270.99           RANKING
   1      2     11       -7.11      0.49    271.13           RANKING
   1      3     15       -7.10      0.75    270.89           RANKING
   1      4     12       -6.96      0.82    270.95           RANKING
   1      5      5       -6.88      0.84    270.92           RANKING
   1      6      7       -6.81      0.75    270.97           RANKING
   1      7      1       -6.78      1.75    271.14           RANKING
   2      1      9       -7.14      0.00    271.70           RANKING
   2      2     17       -7.14      0.06    271.67           RANKING
   2      3      4       -7.14      0.06    271.67           RANKING
   2      4     20       -7.12      0.18    271.65           RANKING
   2      5      8       -7.12      0.13    271.66           RANKING
   3      1      6       -7.03      0.00    271.34           RANKING
   3      2      3       -6.98      0.09    271.32           RANKING
   3      3     19       -6.97      0.11    271.35           RANKING
   4      1     14       -6.89      0.00    271.76           RANKING
   5      1     13       -6.80      0.00    271.10           RANKING
   6      1     18       -6.25      0.00    272.17           RANKING
   6      2     10       -6.25      0.03    272.19           RANKING
   6      3     16       -6.17      0.56    272.20           RANKING

Run time 0.638 sec
Idle time 0.000 sec
