AutoDock-GPU version: v1.6

**********************************************************
**    AutoDock-GPU AUTODOCKTOOLS-COMPATIBLE DLG FILE    **
**********************************************************


    DOCKING PARAMETERS
    ________________________


Ligand file:                               /home/a/REINVENT4/ReinventStudies/scoringData/graph-dock-34dfml/graph-DockGPU/node-autodockgpu/inputs/YCOHEPDJLXZVBZ-DEOSSOPVNA-N.pdbqt
Grid fld file:                             /home/a/REINVENT4/ReinventStudies/mols/Rad51/maps/rad51_receptor.maps.fld

Random seed:                               42
Number of runs:                            20
Number of energy evaluations:              1132076
Number of generations:                     42000
Size of population:                        150
Rate of crossover:                         80.000000%
Tournament selection probability limit:    60.000000%
Rate of mutation:                          2.000000%
Maximal allowed delta movement:            +/- 6.000000A
Maximal allowed delta angle:               +/- 90.000000

Rate of local search:                      100.000000%
Maximal number of local search iterations: 300
Rho lower bound:                           0.010000
Spread of local search delta movement:     2.000000A
Spread of local search delta angle:        74.999999
Limit of consecutive successes/failures:   4

Handle symmetry during clustering:         YES
RMSD tolerance:                            2.000000A

Program call in command line was:          /home/a/REINVENT4/ReinventStudies/adgpu-v1.6_linux_x64_cuda12_128wi --filelist batch.txt --heuristics 1 --nrun 20 --psize 150 --lsit 300 --seed 42 --heurmax 12000000 


    GRID PARAMETERS
    ________________________


Receptor name:                             rad51_receptor
Number of grid points (x, y, z):           53, 53, 53
Grid center (x, y, z):                     139.950000, 75.640000, 221.970000A
Grid size (x, y, z):                       19.500000, 19.500000, 19.500000A
Grid spacing:                              0.375000A


    LIGAND PARAMETERS
    ________________________


Ligand name:                               /home/a/REINVENT4/ReinventStudies/scoringData/graph-dock-34dfml/graph-DockGPU/node-autodockgpu/inputs/YCOHEPDJLXZVBZ-DEOSSOPVNA-N
Number of atoms:                           30
Number of rotatable bonds:                 4
Number of atom types:                      6


    DUMMY DATA (only for ADT-compatibility)
    ________________________


DPF> outlev 1
DPF> ga_run 20
DPF> fld /home/a/REINVENT4/ReinventStudies/mols/Rad51/maps/rad51_receptor.maps.fld
DPF> move /home/a/REINVENT4/ReinventStudies/scoringData/graph-dock-34dfml/graph-DockGPU/node-autodockgpu/inputs/YCOHEPDJLXZVBZ-DEOSSOPVNA-N.pdbqt


    COUNTER STATES
    ________________________


Number of energy evaluations performed:    683975
Number of generations used:                30


    INPUT LIGAND PDBQT FILE:
    ________________________


INPUT-LIGAND-PDBQT: REMARK SMILES O=S(=O)(Cc1ccccc1)N1C=Cc2ccccc2[C@H]1c1c[nH]c2ccccc12
INPUT-LIGAND-PDBQT: REMARK SMILES IDX 11 1 12 2 13 3 14 4 15 5 16 6 17 7 18 8 19 9 20 10 2 11 1 12
INPUT-LIGAND-PDBQT: REMARK SMILES IDX 3 13 4 14 5 15 6 16 10 17 7 18 9 19 8 20 21 21 22 22 29 23
INPUT-LIGAND-PDBQT: REMARK SMILES IDX 23 24 28 25 24 26 27 27 25 28 26 29
INPUT-LIGAND-PDBQT: REMARK H PARENT 23 30
INPUT-LIGAND-PDBQT: ROOT
INPUT-LIGAND-PDBQT: ATOM      1  N   UNL     1       0.130   0.539  -0.655  1.00  0.00    -0.265 N 
INPUT-LIGAND-PDBQT: ATOM      2  C   UNL     1       0.734   0.400   0.642  1.00  0.00     0.099 C 
INPUT-LIGAND-PDBQT: ATOM      3  C   UNL     1       0.456  -0.637   1.427  1.00  0.00     0.027 C 
INPUT-LIGAND-PDBQT: ATOM      4  C   UNL     1      -0.494  -1.672   0.997  1.00  0.00    -0.019 A 
INPUT-LIGAND-PDBQT: ATOM      5  C   UNL     1      -0.718  -2.794   1.808  1.00  0.00     0.008 A 
INPUT-LIGAND-PDBQT: ATOM      6  C   UNL     1      -1.606  -3.792   1.398  1.00  0.00     0.001 A 
INPUT-LIGAND-PDBQT: ATOM      7  C   UNL     1      -2.273  -3.676   0.177  1.00  0.00     0.000 A 
INPUT-LIGAND-PDBQT: ATOM      8  C   UNL     1      -2.057  -2.561  -0.635  1.00  0.00     0.007 A 
INPUT-LIGAND-PDBQT: ATOM      9  C   UNL     1      -1.172  -1.546  -0.231  1.00  0.00    -0.013 A 
INPUT-LIGAND-PDBQT: ATOM     10  C   UNL     1      -0.961  -0.337  -1.120  1.00  0.00     0.162 C 
INPUT-LIGAND-PDBQT: ENDROOT
INPUT-LIGAND-PDBQT: BRANCH   1  11
INPUT-LIGAND-PDBQT: ATOM     11  S   UNL     1       0.859   1.643  -1.785  1.00  0.00     0.239 S 
INPUT-LIGAND-PDBQT: ATOM     12  O   UNL     1      -0.192   2.228  -2.685  1.00  0.00    -0.206 OA
INPUT-LIGAND-PDBQT: ATOM     13  O   UNL     1       1.531   2.764  -1.042  1.00  0.00    -0.206 OA
INPUT-LIGAND-PDBQT: BRANCH  11  14
INPUT-LIGAND-PDBQT: ATOM     14  C   UNL     1       2.066   0.770  -2.769  1.00  0.00     0.195 C 
INPUT-LIGAND-PDBQT: BRANCH  14  15
INPUT-LIGAND-PDBQT: ATOM     15  C   UNL     1       2.870  -0.155  -1.899  1.00  0.00    -0.031 A 
INPUT-LIGAND-PDBQT: ATOM     16  C   UNL     1       2.479  -1.495  -1.737  1.00  0.00     0.005 A 
INPUT-LIGAND-PDBQT: ATOM     17  C   UNL     1       3.964   0.336  -1.167  1.00  0.00     0.005 A 
INPUT-LIGAND-PDBQT: ATOM     18  C   UNL     1       3.178  -2.332  -0.862  1.00  0.00     0.000 A 
INPUT-LIGAND-PDBQT: ATOM     19  C   UNL     1       4.662  -0.505  -0.295  1.00  0.00     0.000 A 
INPUT-LIGAND-PDBQT: ATOM     20  C   UNL     1       4.269  -1.838  -0.142  1.00  0.00     0.000 A 
INPUT-LIGAND-PDBQT: ENDBRANCH  14  15
INPUT-LIGAND-PDBQT: ENDBRANCH  11  14
INPUT-LIGAND-PDBQT: ENDBRANCH   1  11
INPUT-LIGAND-PDBQT: BRANCH  10  21
INPUT-LIGAND-PDBQT: ATOM     21  C   UNL     1      -2.240   0.449  -1.258  1.00  0.00     0.005 A 
INPUT-LIGAND-PDBQT: ATOM     22  C   UNL     1      -2.962   0.622  -2.437  1.00  0.00     0.089 A 
INPUT-LIGAND-PDBQT: ATOM     23  C   UNL     1      -2.953   1.128  -0.283  1.00  0.00     0.005 A 
INPUT-LIGAND-PDBQT: ATOM     24  N   UNL     1      -4.063   1.374  -2.214  1.00  0.00    -0.361 N 
INPUT-LIGAND-PDBQT: ATOM     25  C   UNL     1      -2.731   1.297   1.084  1.00  0.00     0.011 A 
INPUT-LIGAND-PDBQT: ATOM     26  C   UNL     1      -4.049   1.675  -0.905  1.00  0.00     0.046 A 
INPUT-LIGAND-PDBQT: ATOM     27  C   UNL     1      -3.664   2.055   1.815  1.00  0.00     0.001 A 
INPUT-LIGAND-PDBQT: ATOM     28  C   UNL     1      -4.989   2.430  -0.205  1.00  0.00     0.026 A 
INPUT-LIGAND-PDBQT: ATOM     29  C   UNL     1      -4.788   2.619   1.173  1.00  0.00     0.002 A 
INPUT-LIGAND-PDBQT: ATOM     30  H   UNL     1      -4.779   1.657  -2.919  1.00  0.00     0.166 HD
INPUT-LIGAND-PDBQT: ENDBRANCH  10  21
INPUT-LIGAND-PDBQT: TORSDOF 4


    FINAL DOCKED STATE:
    ________________________


Run:   1 / 20
Time taken for this run:   0.028s

DOCKED: MODEL        1
DOCKED: USER    Run = 1
DOCKED: USER
DOCKED: USER    Estimated Free Energy of Binding    =  -7.11 kcal/mol  [=(1)+(2)+(3)-(4)]
DOCKED: USER
DOCKED: USER    (1) Final Intermolecular Energy     =  -8.30 kcal/mol
DOCKED: USER        vdW + Hbond + desolv Energy     =  -8.23 kcal/mol
DOCKED: USER        Electrostatic Energy            =  -0.07 kcal/mol
DOCKED: USER        Moving Ligand-Fixed Receptor    =  -8.30 kcal/mol
DOCKED: USER        Moving Ligand-Moving Receptor   =  +0.00 kcal/mol
DOCKED: USER    (2) Final Total Internal Energy     =  -2.63 kcal/mol
DOCKED: USER    (3) Torsional Free Energy           =  +1.19 kcal/mol
DOCKED: USER    (4) Unbound System's Energy         =  -2.63 kcal/mol
DOCKED: USER
DOCKED: USER
DOCKED: REMARK SMILES O=S(=O)(Cc1ccccc1)N1C=Cc2ccccc2[C@H]1c1c[nH]c2ccccc12
DOCKED: REMARK SMILES IDX 11 1 12 2 13 3 14 4 15 5 16 6 17 7 18 8 19 9 20 10 2 11 1 12
DOCKED: REMARK SMILES IDX 3 13 4 14 5 15 6 16 10 17 7 18 9 19 8 20 21 21 22 22 29 23
DOCKED: REMARK SMILES IDX 23 24 28 25 24 26 27 27 25 28 26 29
DOCKED: REMARK H PARENT 23 30
DOCKED: USER                              x       y       z     vdW  Elec       q    Type
DOCKED: USER                           _______ _______ _______ _____ _____    ______ ____
DOCKED: ROOT
DOCKED: ATOM      1  N   UNL     1     141.440  81.290 221.774 -0.23 +0.06    -0.265 N  
DOCKED: ATOM      2  C   UNL     1     141.431  82.727 221.720 -0.21 -0.02    +0.099 C  
DOCKED: ATOM      3  C   UNL     1     140.547  83.385 220.976 -0.27 -0.00    +0.027 C  
DOCKED: ATOM      4  C   UNL     1     139.554  82.661 220.171 -0.14 +0.00    -0.019 A  
DOCKED: ATOM      5  C   UNL     1     138.585  83.375 219.451 -0.06 -0.00    +0.008 A  
DOCKED: ATOM      6  C   UNL     1     137.626  82.693 218.697 -0.02 -0.00    +0.001 A  
DOCKED: ATOM      7  C   UNL     1     137.628  81.298 218.659 -0.02 -0.00    +0.000 A  
DOCKED: ATOM      8  C   UNL     1     138.592  80.580 219.371 -0.04 -0.00    +0.007 A  
DOCKED: ATOM      9  C   UNL     1     139.567  81.254 220.127 -0.11 +0.00    -0.013 A  
DOCKED: ATOM     10  C   UNL     1     140.612  80.458 220.883 -0.19 -0.05    +0.162 C  
DOCKED: ENDROOT
DOCKED: BRANCH   1  11
DOCKED: ATOM     11  S   UNL     1     142.299  80.525 223.079 -0.60 -0.06    +0.239 S  
DOCKED: ATOM     12  O   UNL     1     143.680  80.138 222.630 -0.46 +0.08    -0.206 OA 
DOCKED: ATOM     13  O   UNL     1     142.421  81.475 224.237 -0.52 +0.02    -0.206 OA 
DOCKED: BRANCH  11  14
DOCKED: ATOM     14  C   UNL     1     141.411  79.064 223.595 -0.45 -0.05    +0.195 C  
DOCKED: BRANCH  14  15
DOCKED: ATOM     15  C   UNL     1     139.930  79.302 223.505 -0.42 +0.01    -0.031 A  
DOCKED: ATOM     16  C   UNL     1     139.091  78.338 222.921 -0.31 -0.00    +0.005 A  
DOCKED: ATOM     17  C   UNL     1     139.385  80.529 223.919 -0.38 -0.00    +0.005 A  
DOCKED: ATOM     18  C   UNL     1     137.726  78.596 222.762 -0.23 -0.00    +0.000 A  
DOCKED: ATOM     19  C   UNL     1     138.019  80.782 223.760 -0.35 -0.00    +0.000 A  
DOCKED: ATOM     20  C   UNL     1     137.190  79.816 223.181 -0.23 -0.00    +0.000 A  
DOCKED: ENDBRANCH  14  15
DOCKED: ENDBRANCH  11  14
DOCKED: ENDBRANCH   1  11
DOCKED: BRANCH  10  21
DOCKED: ATOM     21  C   UNL     1     141.486  79.688 219.925 -0.28 -0.00    +0.005 A  
DOCKED: ATOM     22  C   UNL     1     142.191  80.233 218.854 -0.29 -0.06    +0.089 A  
DOCKED: ATOM     23  C   UNL     1     141.779  78.334 219.911 -0.29 -0.00    +0.005 A  
DOCKED: ATOM     24  N   UNL     1     142.881  79.272 218.200 -0.16 +0.36    -0.361 N  
DOCKED: ATOM     25  C   UNL     1     141.380  77.287 220.743 -0.30 -0.01    +0.011 A  
DOCKED: ATOM     26  C   UNL     1     142.626  78.124 218.850 -0.23 -0.04    +0.046 A  
DOCKED: ATOM     27  C   UNL     1     141.866  75.998 220.460 -0.29 -0.00    +0.001 A  
DOCKED: ATOM     28  C   UNL     1     143.122  76.857 218.547 -0.32 -0.02    +0.026 A  
DOCKED: ATOM     29  C   UNL     1     142.733  75.784 219.366 -0.32 -0.00    +0.002 A  
DOCKED: ATOM     30  H   UNL     1     143.492  79.401 217.364 -0.52 -0.31    +0.166 HD 
DOCKED: ENDBRANCH  10  21
DOCKED: TORSDOF 4
DOCKED: TER
DOCKED: ENDMDL
________________________________________________________________________________


    FINAL DOCKED STATE:
    ________________________


Run:   2 / 20
Time taken for this run:   0.028s

DOCKED: MODEL        2
DOCKED: USER    Run = 2
DOCKED: USER
DOCKED: USER    Estimated Free Energy of Binding    =  -7.79 kcal/mol  [=(1)+(2)+(3)-(4)]
DOCKED: USER
DOCKED: USER    (1) Final Intermolecular Energy     =  -8.98 kcal/mol
DOCKED: USER        vdW + Hbond + desolv Energy     =  -8.88 kcal/mol
DOCKED: USER        Electrostatic Energy            =  -0.10 kcal/mol
DOCKED: USER        Moving Ligand-Fixed Receptor    =  -8.98 kcal/mol
DOCKED: USER        Moving Ligand-Moving Receptor   =  +0.00 kcal/mol
DOCKED: USER    (2) Final Total Internal Energy     =  -2.03 kcal/mol
DOCKED: USER    (3) Torsional Free Energy           =  +1.19 kcal/mol
DOCKED: USER    (4) Unbound System's Energy         =  -2.03 kcal/mol
DOCKED: USER
DOCKED: USER
DOCKED: REMARK SMILES O=S(=O)(Cc1ccccc1)N1C=Cc2ccccc2[C@H]1c1c[nH]c2ccccc12
DOCKED: REMARK SMILES IDX 11 1 12 2 13 3 14 4 15 5 16 6 17 7 18 8 19 9 20 10 2 11 1 12
DOCKED: REMARK SMILES IDX 3 13 4 14 5 15 6 16 10 17 7 18 9 19 8 20 21 21 22 22 29 23
DOCKED: REMARK SMILES IDX 23 24 28 25 24 26 27 27 25 28 26 29
DOCKED: REMARK H PARENT 23 30
DOCKED: USER                              x       y       z     vdW  Elec       q    Type
DOCKED: USER                           _______ _______ _______ _____ _____    ______ ____
DOCKED: ROOT
DOCKED: ATOM      1  N   UNL     1     141.241  78.185 219.731 -0.10 +0.13    -0.265 N  
DOCKED: ATOM      2  C   UNL     1     141.003  79.526 219.272 -0.17 -0.04    +0.099 C  
DOCKED: ATOM      3  C   UNL     1     141.161  80.572 220.080 -0.27 -0.01    +0.027 C  
DOCKED: ATOM      4  C   UNL     1     141.572  80.386 221.478 -0.39 +0.01    -0.019 A  
DOCKED: ATOM      5  C   UNL     1     141.803  81.505 222.291 -0.47 -0.00    +0.008 A  
DOCKED: ATOM      6  C   UNL     1     142.213  81.338 223.617 -0.61 -0.00    +0.001 A  
DOCKED: ATOM      7  C   UNL     1     142.395  80.055 224.136 -0.52 -0.00    +0.000 A  
DOCKED: ATOM      8  C   UNL     1     142.164  78.936 223.333 -0.57 -0.00    +0.007 A  
DOCKED: ATOM      9  C   UNL     1     141.745  79.090 222.000 -0.46 +0.01    -0.013 A  
DOCKED: ATOM     10  C   UNL     1     141.487  77.863 221.149 -0.25 -0.09    +0.162 C  
DOCKED: ENDROOT
DOCKED: BRANCH   1  11
DOCKED: ATOM     11  S   UNL     1     141.453  76.936 218.538 -0.14 -0.11    +0.239 S  
DOCKED: ATOM     12  O   UNL     1     140.916  75.632 219.056 -0.06 +0.07    -0.206 OA 
DOCKED: ATOM     13  O   UNL     1     140.707  77.297 217.284 -0.03 +0.08    -0.206 OA 
DOCKED: BRANCH  11  14
DOCKED: ATOM     14  C   UNL     1     143.191  76.759 218.170 -0.21 -0.13    +0.195 C  
DOCKED: BRANCH  14  15
DOCKED: ATOM     15  C   UNL     1     143.705  75.459 218.721 -0.25 +0.02    -0.031 A  
DOCKED: ATOM     16  C   UNL     1     143.946  75.317 220.098 -0.40 -0.00    +0.005 A  
DOCKED: ATOM     17  C   UNL     1     144.039  74.406 217.852 -0.17 -0.00    +0.005 A  
DOCKED: ATOM     18  C   UNL     1     144.504  74.137 220.598 -0.49 -0.00    +0.000 A  
DOCKED: ATOM     19  C   UNL     1     144.594  73.226 218.357 -0.21 -0.00    +0.000 A  
DOCKED: ATOM     20  C   UNL     1     144.827  73.092 219.729 -0.40 -0.00    +0.000 A  
DOCKED: ENDBRANCH  14  15
DOCKED: ENDBRANCH  11  14
DOCKED: ENDBRANCH   1  11
DOCKED: BRANCH  10  21
DOCKED: ATOM     21  C   UNL     1     140.341  77.060 221.709 -0.33 -0.00    +0.005 A  
DOCKED: ATOM     22  C   UNL     1     140.356  75.689 221.958 -0.32 -0.02    +0.089 A  
DOCKED: ATOM     23  C   UNL     1     139.083  77.494 222.097 -0.28 -0.00    +0.005 A  
DOCKED: ATOM     24  N   UNL     1     139.171  75.285 222.466 -0.11 +0.08    -0.361 N  
DOCKED: ATOM     25  C   UNL     1     138.494  78.758 222.096 -0.21 -0.00    +0.011 A  
DOCKED: ATOM     26  C   UNL     1     138.406  76.386 222.547 -0.29 -0.01    +0.046 A  
DOCKED: ATOM     27  C   UNL     1     137.173  78.870 222.568 -0.19 -0.00    +0.001 A  
DOCKED: ATOM     28  C   UNL     1     137.097  76.469 223.020 -0.25 -0.01    +0.026 A  
DOCKED: ATOM     29  C   UNL     1     136.478  77.730 223.028 -0.17 -0.00    +0.002 A  
DOCKED: ATOM     30  H   UNL     1     138.909  74.313 222.743 -0.55 -0.06    +0.166 HD 
DOCKED: ENDBRANCH  10  21
DOCKED: TORSDOF 4
DOCKED: TER
DOCKED: ENDMDL
________________________________________________________________________________


    FINAL DOCKED STATE:
    ________________________


Run:   3 / 20
Time taken for this run:   0.028s

DOCKED: MODEL        3
DOCKED: USER    Run = 3
DOCKED: USER
DOCKED: USER    Estimated Free Energy of Binding    =  -7.85 kcal/mol  [=(1)+(2)+(3)-(4)]
DOCKED: USER
DOCKED: USER    (1) Final Intermolecular Energy     =  -9.05 kcal/mol
DOCKED: USER        vdW + Hbond + desolv Energy     =  -8.95 kcal/mol
DOCKED: USER        Electrostatic Energy            =  -0.10 kcal/mol
DOCKED: USER        Moving Ligand-Fixed Receptor    =  -9.05 kcal/mol
DOCKED: USER        Moving Ligand-Moving Receptor   =  +0.00 kcal/mol
DOCKED: USER    (2) Final Total Internal Energy     =  -1.96 kcal/mol
DOCKED: USER    (3) Torsional Free Energy           =  +1.19 kcal/mol
DOCKED: USER    (4) Unbound System's Energy         =  -1.96 kcal/mol
DOCKED: USER
DOCKED: USER
DOCKED: REMARK SMILES O=S(=O)(Cc1ccccc1)N1C=Cc2ccccc2[C@H]1c1c[nH]c2ccccc12
DOCKED: REMARK SMILES IDX 11 1 12 2 13 3 14 4 15 5 16 6 17 7 18 8 19 9 20 10 2 11 1 12
DOCKED: REMARK SMILES IDX 3 13 4 14 5 15 6 16 10 17 7 18 9 19 8 20 21 21 22 22 29 23
DOCKED: REMARK SMILES IDX 23 24 28 25 24 26 27 27 25 28 26 29
DOCKED: REMARK H PARENT 23 30
DOCKED: USER                              x       y       z     vdW  Elec       q    Type
DOCKED: USER                           _______ _______ _______ _____ _____    ______ ____
DOCKED: ROOT
DOCKED: ATOM      1  N   UNL     1     141.389  78.035 219.791 -0.12 +0.13    -0.265 N  
DOCKED: ATOM      2  C   UNL     1     141.191  79.358 219.264 -0.19 -0.05    +0.099 C  
DOCKED: ATOM      3  C   UNL     1     141.318  80.435 220.033 -0.28 -0.01    +0.027 C  
DOCKED: ATOM      4  C   UNL     1     141.654  80.307 221.458 -0.40 +0.01    -0.019 A  
DOCKED: ATOM      5  C   UNL     1     141.855  81.458 222.234 -0.46 -0.00    +0.008 A  
DOCKED: ATOM      6  C   UNL     1     142.192  81.344 223.585 -0.61 -0.00    +0.001 A  
DOCKED: ATOM      7  C   UNL     1     142.332  80.083 224.168 -0.51 -0.00    +0.000 A  
DOCKED: ATOM      8  C   UNL     1     142.131  78.933 223.402 -0.58 -0.00    +0.007 A  
DOCKED: ATOM      9  C   UNL     1     141.784  79.033 222.043 -0.47 +0.01    -0.013 A  
DOCKED: ATOM     10  C   UNL     1     141.557  77.773 221.233 -0.20 -0.09    +0.162 C  
DOCKED: ENDROOT
DOCKED: BRANCH   1  11
DOCKED: ATOM     11  S   UNL     1     141.649  76.734 218.666 -0.16 -0.11    +0.239 S  
DOCKED: ATOM     12  O   UNL     1     140.925  75.501 219.127 -0.06 +0.07    -0.206 OA 
DOCKED: ATOM     13  O   UNL     1     141.123  77.119 217.311 -0.04 +0.09    -0.206 OA 
DOCKED: BRANCH  11  14
DOCKED: ATOM     14  C   UNL     1     143.397  76.391 218.553 -0.20 -0.12    +0.195 C  
DOCKED: BRANCH  14  15
DOCKED: ATOM     15  C   UNL     1     143.698  75.043 219.146 -0.31 +0.01    -0.031 A  
DOCKED: ATOM     16  C   UNL     1     144.430  74.941 220.341 -0.37 -0.00    +0.005 A  
DOCKED: ATOM     17  C   UNL     1     143.331  73.872 218.462 -0.16 -0.00    +0.005 A  
DOCKED: ATOM     18  C   UNL     1     144.782  73.686 220.847 -0.55 -0.00    +0.000 A  
DOCKED: ATOM     19  C   UNL     1     143.682  72.619 218.972 -0.17 -0.00    +0.000 A  
DOCKED: ATOM     20  C   UNL     1     144.408  72.526 220.164 -0.38 -0.00    +0.000 A  
DOCKED: ENDBRANCH  14  15
DOCKED: ENDBRANCH  11  14
DOCKED: ENDBRANCH   1  11
DOCKED: BRANCH  10  21
DOCKED: ATOM     21  C   UNL     1     140.374  77.005 221.766 -0.35 -0.00    +0.005 A  
DOCKED: ATOM     22  C   UNL     1     140.328  75.629 221.975 -0.31 -0.02    +0.089 A  
DOCKED: ATOM     23  C   UNL     1     139.134  77.482 222.160 -0.29 -0.00    +0.005 A  
DOCKED: ATOM     24  N   UNL     1     139.124  75.263 222.467 -0.11 +0.08    -0.361 N  
DOCKED: ATOM     25  C   UNL     1     138.600  78.771 222.193 -0.22 -0.00    +0.011 A  
DOCKED: ATOM     26  C   UNL     1     138.407  76.393 222.576 -0.29 -0.01    +0.046 A  
DOCKED: ATOM     27  C   UNL     1     137.283  78.927 222.662 -0.20 -0.00    +0.001 A  
DOCKED: ATOM     28  C   UNL     1     137.101  76.520 223.046 -0.25 -0.01    +0.026 A  
DOCKED: ATOM     29  C   UNL     1     136.537  77.806 223.086 -0.16 -0.00    +0.002 A  
DOCKED: ATOM     30  H   UNL     1     138.818  74.296 222.715 -0.55 -0.07    +0.166 HD 
DOCKED: ENDBRANCH  10  21
DOCKED: TORSDOF 4
DOCKED: TER
DOCKED: ENDMDL
________________________________________________________________________________


    FINAL DOCKED STATE:
    ________________________


Run:   4 / 20
Time taken for this run:   0.028s

DOCKED: MODEL        4
DOCKED: USER    Run = 4
DOCKED: USER
DOCKED: USER    Estimated Free Energy of Binding    =  -7.79 kcal/mol  [=(1)+(2)+(3)-(4)]
DOCKED: USER
DOCKED: USER    (1) Final Intermolecular Energy     =  -8.98 kcal/mol
DOCKED: USER        vdW + Hbond + desolv Energy     =  -8.88 kcal/mol
DOCKED: USER        Electrostatic Energy            =  -0.10 kcal/mol
DOCKED: USER        Moving Ligand-Fixed Receptor    =  -8.98 kcal/mol
DOCKED: USER        Moving Ligand-Moving Receptor   =  +0.00 kcal/mol
DOCKED: USER    (2) Final Total Internal Energy     =  -2.03 kcal/mol
DOCKED: USER    (3) Torsional Free Energy           =  +1.19 kcal/mol
DOCKED: USER    (4) Unbound System's Energy         =  -2.03 kcal/mol
DOCKED: USER
DOCKED: USER
DOCKED: REMARK SMILES O=S(=O)(Cc1ccccc1)N1C=Cc2ccccc2[C@H]1c1c[nH]c2ccccc12
DOCKED: REMARK SMILES IDX 11 1 12 2 13 3 14 4 15 5 16 6 17 7 18 8 19 9 20 10 2 11 1 12
DOCKED: REMARK SMILES IDX 3 13 4 14 5 15 6 16 10 17 7 18 9 19 8 20 21 21 22 22 29 23
DOCKED: REMARK SMILES IDX 23 24 28 25 24 26 27 27 25 28 26 29
DOCKED: REMARK H PARENT 23 30
DOCKED: USER                              x       y       z     vdW  Elec       q    Type
DOCKED: USER                           _______ _______ _______ _____ _____    ______ ____
DOCKED: ROOT
DOCKED: ATOM      1  N   UNL     1     141.281  78.288 219.760 -0.11 +0.13    -0.265 N  
DOCKED: ATOM      2  C   UNL     1     141.018  79.632 219.323 -0.18 -0.04    +0.099 C  
DOCKED: ATOM      3  C   UNL     1     141.160  80.667 220.146 -0.27 -0.01    +0.027 C  
DOCKED: ATOM      4  C   UNL     1     141.579  80.468 221.540 -0.40 +0.01    -0.019 A  
DOCKED: ATOM      5  C   UNL     1     141.793  81.578 222.370 -0.47 -0.00    +0.008 A  
DOCKED: ATOM      6  C   UNL     1     142.209  81.397 223.692 -0.61 -0.00    +0.001 A  
DOCKED: ATOM      7  C   UNL     1     142.414  80.110 224.191 -0.51 -0.00    +0.000 A  
DOCKED: ATOM      8  C   UNL     1     142.201  79.000 223.371 -0.59 -0.00    +0.007 A  
DOCKED: ATOM      9  C   UNL     1     141.776  79.166 222.042 -0.47 +0.01    -0.013 A  
DOCKED: ATOM     10  C   UNL     1     141.537  77.949 221.172 -0.24 -0.09    +0.162 C  
DOCKED: ENDROOT
DOCKED: BRANCH   1  11
DOCKED: ATOM     11  S   UNL     1     141.512  77.061 218.548 -0.15 -0.11    +0.239 S  
DOCKED: ATOM     12  O   UNL     1     140.906  75.765 219.005 -0.06 +0.07    -0.206 OA 
DOCKED: ATOM     13  O   UNL     1     140.843  77.478 217.267 -0.04 +0.09    -0.206 OA 
DOCKED: BRANCH  11  14
DOCKED: ATOM     14  C   UNL     1     143.259  76.833 218.263 -0.19 -0.13    +0.195 C  
DOCKED: BRANCH  14  15
DOCKED: ATOM     15  C   UNL     1     143.691  75.482 218.758 -0.27 +0.02    -0.031 A  
DOCKED: ATOM     16  C   UNL     1     144.103  75.314 220.091 -0.40 -0.00    +0.005 A  
DOCKED: ATOM     17  C   UNL     1     143.776  74.397 217.870 -0.17 -0.00    +0.005 A  
DOCKED: ATOM     18  C   UNL     1     144.585  74.076 220.529 -0.51 -0.00    +0.000 A  
DOCKED: ATOM     19  C   UNL     1     144.255  73.160 218.312 -0.18 -0.00    +0.000 A  
DOCKED: ATOM     20  C   UNL     1     144.660  73.000 219.641 -0.36 -0.00    +0.000 A  
DOCKED: ENDBRANCH  14  15
DOCKED: ENDBRANCH  11  14
DOCKED: ENDBRANCH   1  11
DOCKED: BRANCH  10  21
DOCKED: ATOM     21  C   UNL     1     140.406  77.117 221.723 -0.34 -0.00    +0.005 A  
DOCKED: ATOM     22  C   UNL     1     140.448  75.744 221.954 -0.33 -0.02    +0.089 A  
DOCKED: ATOM     23  C   UNL     1     139.141  77.522 222.116 -0.29 -0.00    +0.005 A  
DOCKED: ATOM     24  N   UNL     1     139.271  75.311 222.458 -0.12 +0.07    -0.361 N  
DOCKED: ATOM     25  C   UNL     1     138.528  78.775 222.132 -0.21 -0.00    +0.011 A  
DOCKED: ATOM     26  C   UNL     1     138.485  76.397 222.553 -0.29 -0.01    +0.046 A  
DOCKED: ATOM     27  C   UNL     1     137.205  78.856 222.605 -0.19 -0.00    +0.001 A  
DOCKED: ATOM     28  C   UNL     1     137.175  76.448 223.027 -0.26 -0.01    +0.026 A  
DOCKED: ATOM     29  C   UNL     1     136.532  77.698 223.051 -0.17 -0.00    +0.002 A  
DOCKED: ATOM     30  H   UNL     1     139.028  74.331 222.723 -0.53 -0.05    +0.166 HD 
DOCKED: ENDBRANCH  10  21
DOCKED: TORSDOF 4
DOCKED: TER
DOCKED: ENDMDL
________________________________________________________________________________


    FINAL DOCKED STATE:
    ________________________


Run:   5 / 20
Time taken for this run:   0.028s

DOCKED: MODEL        5
DOCKED: USER    Run = 5
DOCKED: USER
DOCKED: USER    Estimated Free Energy of Binding    =  -7.12 kcal/mol  [=(1)+(2)+(3)-(4)]
DOCKED: USER
DOCKED: USER    (1) Final Intermolecular Energy     =  -8.31 kcal/mol
DOCKED: USER        vdW + Hbond + desolv Energy     =  -8.23 kcal/mol
DOCKED: USER        Electrostatic Energy            =  -0.08 kcal/mol
DOCKED: USER        Moving Ligand-Fixed Receptor    =  -8.31 kcal/mol
DOCKED: USER        Moving Ligand-Moving Receptor   =  +0.00 kcal/mol
DOCKED: USER    (2) Final Total Internal Energy     =  -2.62 kcal/mol
DOCKED: USER    (3) Torsional Free Energy           =  +1.19 kcal/mol
DOCKED: USER    (4) Unbound System's Energy         =  -2.62 kcal/mol
DOCKED: USER
DOCKED: USER
DOCKED: REMARK SMILES O=S(=O)(Cc1ccccc1)N1C=Cc2ccccc2[C@H]1c1c[nH]c2ccccc12
DOCKED: REMARK SMILES IDX 11 1 12 2 13 3 14 4 15 5 16 6 17 7 18 8 19 9 20 10 2 11 1 12
DOCKED: REMARK SMILES IDX 3 13 4 14 5 15 6 16 10 17 7 18 9 19 8 20 21 21 22 22 29 23
DOCKED: REMARK SMILES IDX 23 24 28 25 24 26 27 27 25 28 26 29
DOCKED: REMARK H PARENT 23 30
DOCKED: USER                              x       y       z     vdW  Elec       q    Type
DOCKED: USER                           _______ _______ _______ _____ _____    ______ ____
DOCKED: ROOT
DOCKED: ATOM      1  N   UNL     1     141.448  81.293 221.763 -0.23 +0.06    -0.265 N  
DOCKED: ATOM      2  C   UNL     1     141.448  82.730 221.709 -0.21 -0.02    +0.099 C  
DOCKED: ATOM      3  C   UNL     1     140.573  83.394 220.960 -0.27 -0.00    +0.027 C  
DOCKED: ATOM      4  C   UNL     1     139.580  82.677 220.149 -0.14 +0.00    -0.019 A  
DOCKED: ATOM      5  C   UNL     1     138.619  83.397 219.424 -0.06 -0.00    +0.008 A  
DOCKED: ATOM      6  C   UNL     1     137.660  82.722 218.664 -0.02 -0.00    +0.001 A  
DOCKED: ATOM      7  C   UNL     1     137.655  81.326 218.625 -0.02 -0.00    +0.000 A  
DOCKED: ATOM      8  C   UNL     1     138.609  80.602 219.343 -0.04 -0.00    +0.007 A  
DOCKED: ATOM      9  C   UNL     1     139.584  81.269 220.105 -0.11 +0.00    -0.013 A  
DOCKED: ATOM     10  C   UNL     1     140.620  80.466 220.866 -0.19 -0.05    +0.162 C  
DOCKED: ENDROOT
DOCKED: BRANCH   1  11
DOCKED: ATOM     11  S   UNL     1     142.295  80.521 223.072 -0.60 -0.06    +0.239 S  
DOCKED: ATOM     12  O   UNL     1     143.679  80.136 222.634 -0.46 +0.08    -0.206 OA 
DOCKED: ATOM     13  O   UNL     1     142.406  81.467 224.235 -0.52 +0.02    -0.206 OA 
DOCKED: BRANCH  11  14
DOCKED: ATOM     14  C   UNL     1     141.401  79.060 223.573 -0.45 -0.05    +0.195 C  
DOCKED: BRANCH  14  15
DOCKED: ATOM     15  C   UNL     1     139.921  79.306 223.491 -0.42 +0.01    -0.031 A  
DOCKED: ATOM     16  C   UNL     1     139.073  78.345 222.913 -0.31 -0.00    +0.005 A  
DOCKED: ATOM     17  C   UNL     1     139.384  80.537 223.904 -0.39 -0.00    +0.005 A  
DOCKED: ATOM     18  C   UNL     1     137.709  78.609 222.760 -0.23 -0.00    +0.000 A  
DOCKED: ATOM     19  C   UNL     1     138.019  80.797 223.751 -0.35 -0.00    +0.000 A  
DOCKED: ATOM     20  C   UNL     1     137.182  79.834 223.179 -0.23 -0.00    +0.000 A  
DOCKED: ENDBRANCH  14  15
DOCKED: ENDBRANCH  11  14
DOCKED: ENDBRANCH   1  11
DOCKED: BRANCH  10  21
DOCKED: ATOM     21  C   UNL     1     141.495  79.692 219.913 -0.28 -0.00    +0.005 A  
DOCKED: ATOM     22  C   UNL     1     142.202  80.232 218.841 -0.29 -0.06    +0.089 A  
DOCKED: ATOM     23  C   UNL     1     141.785  78.337 219.905 -0.29 -0.00    +0.005 A  
DOCKED: ATOM     24  N   UNL     1     142.892  79.266 218.193 -0.16 +0.36    -0.361 N  
DOCKED: ATOM     25  C   UNL     1     141.382  77.294 220.740 -0.30 -0.01    +0.011 A  
DOCKED: ATOM     26  C   UNL     1     142.633  78.122 218.846 -0.22 -0.04    +0.046 A  
DOCKED: ATOM     27  C   UNL     1     141.867  76.002 220.462 -0.29 -0.00    +0.001 A  
DOCKED: ATOM     28  C   UNL     1     143.129  76.853 218.549 -0.32 -0.02    +0.026 A  
DOCKED: ATOM     29  C   UNL     1     142.736  75.783 219.372 -0.32 -0.00    +0.002 A  
DOCKED: ATOM     30  H   UNL     1     143.505  79.391 217.357 -0.53 -0.31    +0.166 HD 
DOCKED: ENDBRANCH  10  21
DOCKED: TORSDOF 4
DOCKED: TER
DOCKED: ENDMDL
________________________________________________________________________________


    FINAL DOCKED STATE:
    ________________________


Run:   6 / 20
Time taken for this run:   0.028s

DOCKED: MODEL        6
DOCKED: USER    Run = 6
DOCKED: USER
DOCKED: USER    Estimated Free Energy of Binding    =  -7.80 kcal/mol  [=(1)+(2)+(3)-(4)]
DOCKED: USER
DOCKED: USER    (1) Final Intermolecular Energy     =  -8.99 kcal/mol
DOCKED: USER        vdW + Hbond + desolv Energy     =  -8.89 kcal/mol
DOCKED: USER        Electrostatic Energy            =  -0.10 kcal/mol
DOCKED: USER        Moving Ligand-Fixed Receptor    =  -8.99 kcal/mol
DOCKED: USER        Moving Ligand-Moving Receptor   =  +0.00 kcal/mol
DOCKED: USER    (2) Final Total Internal Energy     =  -2.02 kcal/mol
DOCKED: USER    (3) Torsional Free Energy           =  +1.19 kcal/mol
DOCKED: USER    (4) Unbound System's Energy         =  -2.02 kcal/mol
DOCKED: USER
DOCKED: USER
DOCKED: REMARK SMILES O=S(=O)(Cc1ccccc1)N1C=Cc2ccccc2[C@H]1c1c[nH]c2ccccc12
DOCKED: REMARK SMILES IDX 11 1 12 2 13 3 14 4 15 5 16 6 17 7 18 8 19 9 20 10 2 11 1 12
DOCKED: REMARK SMILES IDX 3 13 4 14 5 15 6 16 10 17 7 18 9 19 8 20 21 21 22 22 29 23
DOCKED: REMARK SMILES IDX 23 24 28 25 24 26 27 27 25 28 26 29
DOCKED: REMARK H PARENT 23 30
DOCKED: USER                              x       y       z     vdW  Elec       q    Type
DOCKED: USER                           _______ _______ _______ _____ _____    ______ ____
DOCKED: ROOT
DOCKED: ATOM      1  N   UNL     1     141.265  78.193 219.759 -0.11 +0.13    -0.265 N  
DOCKED: ATOM      2  C   UNL     1     141.024  79.539 219.314 -0.17 -0.04    +0.099 C  
DOCKED: ATOM      3  C   UNL     1     141.183  80.576 220.131 -0.27 -0.01    +0.027 C  
DOCKED: ATOM      4  C   UNL     1     141.599  80.378 221.526 -0.40 +0.01    -0.019 A  
DOCKED: ATOM      5  C   UNL     1     141.831  81.489 222.350 -0.47 -0.00    +0.008 A  
DOCKED: ATOM      6  C   UNL     1     142.244  81.310 223.672 -0.62 -0.00    +0.001 A  
DOCKED: ATOM      7  C   UNL     1     142.429  80.022 224.179 -0.49 -0.00    +0.000 A  
DOCKED: ATOM      8  C   UNL     1     142.198  78.910 223.366 -0.56 -0.00    +0.007 A  
DOCKED: ATOM      9  C   UNL     1     141.774  79.077 222.035 -0.47 +0.01    -0.013 A  
DOCKED: ATOM     10  C   UNL     1     141.515  77.858 221.173 -0.24 -0.09    +0.162 C  
DOCKED: ENDROOT
DOCKED: BRANCH   1  11
DOCKED: ATOM     11  S   UNL     1     141.475  76.956 218.554 -0.14 -0.11    +0.239 S  
DOCKED: ATOM     12  O   UNL     1     140.905  75.656 219.045 -0.06 +0.07    -0.206 OA 
DOCKED: ATOM     13  O   UNL     1     140.758  77.347 217.291 -0.03 +0.09    -0.206 OA 
DOCKED: BRANCH  11  14
DOCKED: ATOM     14  C   UNL     1     143.215  76.752 218.213 -0.21 -0.13    +0.195 C  
DOCKED: BRANCH  14  15
DOCKED: ATOM     15  C   UNL     1     143.692  75.426 218.737 -0.26 +0.02    -0.031 A  
DOCKED: ATOM     16  C   UNL     1     144.024  75.278 220.095 -0.42 -0.00    +0.005 A  
DOCKED: ATOM     17  C   UNL     1     143.900  74.352 217.856 -0.17 -0.00    +0.005 A  
DOCKED: ATOM     18  C   UNL     1     144.547  74.069 220.564 -0.50 -0.00    +0.000 A  
DOCKED: ATOM     19  C   UNL     1     144.420  73.144 218.330 -0.20 -0.00    +0.000 A  
DOCKED: ATOM     20  C   UNL     1     144.744  73.003 219.683 -0.38 -0.00    +0.000 A  
DOCKED: ENDBRANCH  14  15
DOCKED: ENDBRANCH  11  14
DOCKED: ENDBRANCH   1  11
DOCKED: BRANCH  10  21
DOCKED: ATOM     21  C   UNL     1     140.372  77.048 221.729 -0.34 -0.00    +0.005 A  
DOCKED: ATOM     22  C   UNL     1     140.389  75.675 221.963 -0.32 -0.02    +0.089 A  
DOCKED: ATOM     23  C   UNL     1     139.115  77.477 222.125 -0.29 -0.00    +0.005 A  
DOCKED: ATOM     24  N   UNL     1     139.206  75.265 222.471 -0.11 +0.07    -0.361 N  
DOCKED: ATOM     25  C   UNL     1     138.524  78.741 222.139 -0.21 -0.00    +0.011 A  
DOCKED: ATOM     26  C   UNL     1     138.440  76.364 222.566 -0.29 -0.01    +0.046 A  
DOCKED: ATOM     27  C   UNL     1     137.205  78.847 222.616 -0.19 -0.00    +0.001 A  
DOCKED: ATOM     28  C   UNL     1     137.133  76.441 223.044 -0.26 -0.01    +0.026 A  
DOCKED: ATOM     29  C   UNL     1     136.512  77.702 223.066 -0.17 -0.00    +0.002 A  
DOCKED: ATOM     30  H   UNL     1     138.945  74.290 222.738 -0.54 -0.06    +0.166 HD 
DOCKED: ENDBRANCH  10  21
DOCKED: TORSDOF 4
DOCKED: TER
DOCKED: ENDMDL
________________________________________________________________________________


    FINAL DOCKED STATE:
    ________________________


Run:   7 / 20
Time taken for this run:   0.028s

DOCKED: MODEL        7
DOCKED: USER    Run = 7
DOCKED: USER
DOCKED: USER    Estimated Free Energy of Binding    =  -7.62 kcal/mol  [=(1)+(2)+(3)-(4)]
DOCKED: USER
DOCKED: USER    (1) Final Intermolecular Energy     =  -8.81 kcal/mol
DOCKED: USER        vdW + Hbond + desolv Energy     =  -8.70 kcal/mol
DOCKED: USER        Electrostatic Energy            =  -0.11 kcal/mol
DOCKED: USER        Moving Ligand-Fixed Receptor    =  -8.81 kcal/mol
DOCKED: USER        Moving Ligand-Moving Receptor   =  +0.00 kcal/mol
DOCKED: USER    (2) Final Total Internal Energy     =  -2.15 kcal/mol
DOCKED: USER    (3) Torsional Free Energy           =  +1.19 kcal/mol
DOCKED: USER    (4) Unbound System's Energy         =  -2.15 kcal/mol
DOCKED: USER
DOCKED: USER
DOCKED: REMARK SMILES O=S(=O)(Cc1ccccc1)N1C=Cc2ccccc2[C@H]1c1c[nH]c2ccccc12
DOCKED: REMARK SMILES IDX 11 1 12 2 13 3 14 4 15 5 16 6 17 7 18 8 19 9 20 10 2 11 1 12
DOCKED: REMARK SMILES IDX 3 13 4 14 5 15 6 16 10 17 7 18 9 19 8 20 21 21 22 22 29 23
DOCKED: REMARK SMILES IDX 23 24 28 25 24 26 27 27 25 28 26 29
DOCKED: REMARK H PARENT 23 30
DOCKED: USER                              x       y       z     vdW  Elec       q    Type
DOCKED: USER                           _______ _______ _______ _____ _____    ______ ____
DOCKED: ROOT
DOCKED: ATOM      1  N   UNL     1     141.091  78.520 219.776 -0.09 +0.12    -0.265 N  
DOCKED: ATOM      2  C   UNL     1     140.798  79.886 219.438 -0.16 -0.04    +0.099 C  
DOCKED: ATOM      3  C   UNL     1     140.996  80.872 220.308 -0.26 -0.01    +0.027 C  
DOCKED: ATOM      4  C   UNL     1     141.511  80.593 221.656 -0.40 +0.01    -0.019 A  
DOCKED: ATOM      5  C   UNL     1     141.782  81.654 222.532 -0.47 -0.00    +0.008 A  
DOCKED: ATOM      6  C   UNL     1     142.289  81.398 223.809 -0.61 -0.00    +0.001 A  
DOCKED: ATOM      7  C   UNL     1     142.529  80.085 224.216 -0.49 -0.00    +0.000 A  
DOCKED: ATOM      8  C   UNL     1     142.260  79.023 223.350 -0.57 -0.00    +0.007 A  
DOCKED: ATOM      9  C   UNL     1     141.742  79.266 222.066 -0.47 +0.01    -0.013 A  
DOCKED: ATOM     10  C   UNL     1     141.444  78.100 221.145 -0.27 -0.08    +0.162 C  
DOCKED: ENDROOT
DOCKED: BRANCH   1  11
DOCKED: ATOM     11  S   UNL     1     141.236  77.367 218.481 -0.13 -0.11    +0.239 S  
DOCKED: ATOM     12  O   UNL     1     140.698  76.034 218.915 -0.05 +0.07    -0.206 OA 
DOCKED: ATOM     13  O   UNL     1     140.449  77.837 217.289 -0.03 +0.08    -0.206 OA 
DOCKED: BRANCH  11  14
DOCKED: ATOM     14  C   UNL     1     142.956  77.197 218.032 -0.23 -0.14    +0.195 C  
DOCKED: BRANCH  14  15
DOCKED: ATOM     15  C   UNL     1     143.506  75.908 218.575 -0.27 +0.02    -0.031 A  
DOCKED: ATOM     16  C   UNL     1     143.734  74.817 217.719 -0.18 -0.00    +0.005 A  
DOCKED: ATOM     17  C   UNL     1     143.708  75.753 219.957 -0.35 -0.00    +0.005 A  
DOCKED: ATOM     18  C   UNL     1     144.166  73.593 218.238 -0.19 -0.00    +0.000 A  
DOCKED: ATOM     19  C   UNL     1     144.143  74.527 220.471 -0.45 -0.00    +0.000 A  
DOCKED: ATOM     20  C   UNL     1     144.371  73.448 219.613 -0.35 -0.00    +0.000 A  
DOCKED: ENDBRANCH  14  15
DOCKED: ENDBRANCH  11  14
DOCKED: ENDBRANCH   1  11
DOCKED: BRANCH  10  21
DOCKED: ATOM     21  C   UNL     1     140.355  77.233 221.723 -0.33 -0.00    +0.005 A  
DOCKED: ATOM     22  C   UNL     1     140.454  75.866 221.976 -0.33 -0.02    +0.089 A  
DOCKED: ATOM     23  C   UNL     1     139.079  77.593 222.126 -0.28 -0.00    +0.005 A  
DOCKED: ATOM     24  N   UNL     1     139.302  75.395 222.501 -0.11 +0.07    -0.361 N  
DOCKED: ATOM     25  C   UNL     1     138.415  78.820 222.129 -0.21 -0.00    +0.011 A  
DOCKED: ATOM     26  C   UNL     1     138.474  76.449 222.589 -0.29 -0.01    +0.046 A  
DOCKED: ATOM     27  C   UNL     1     137.096  78.856 222.618 -0.19 -0.00    +0.001 A  
DOCKED: ATOM     28  C   UNL     1     137.169  76.456 223.079 -0.26 -0.01    +0.026 A  
DOCKED: ATOM     29  C   UNL     1     136.476  77.679 223.090 -0.17 -0.00    +0.002 A  
DOCKED: ATOM     30  H   UNL     1     139.101  74.410 222.785 -0.52 -0.05    +0.166 HD 
DOCKED: ENDBRANCH  10  21
DOCKED: TORSDOF 4
DOCKED: TER
DOCKED: ENDMDL
________________________________________________________________________________


    FINAL DOCKED STATE:
    ________________________


Run:   8 / 20
Time taken for this run:   0.028s

DOCKED: MODEL        8
DOCKED: USER    Run = 8
DOCKED: USER
DOCKED: USER    Estimated Free Energy of Binding    =  -7.09 kcal/mol  [=(1)+(2)+(3)-(4)]
DOCKED: USER
DOCKED: USER    (1) Final Intermolecular Energy     =  -8.28 kcal/mol
DOCKED: USER        vdW + Hbond + desolv Energy     =  -8.21 kcal/mol
DOCKED: USER        Electrostatic Energy            =  -0.07 kcal/mol
DOCKED: USER        Moving Ligand-Fixed Receptor    =  -8.28 kcal/mol
DOCKED: USER        Moving Ligand-Moving Receptor   =  +0.00 kcal/mol
DOCKED: USER    (2) Final Total Internal Energy     =  -2.56 kcal/mol
DOCKED: USER    (3) Torsional Free Energy           =  +1.19 kcal/mol
DOCKED: USER    (4) Unbound System's Energy         =  -2.56 kcal/mol
DOCKED: USER
DOCKED: USER
DOCKED: REMARK SMILES O=S(=O)(Cc1ccccc1)N1C=Cc2ccccc2[C@H]1c1c[nH]c2ccccc12
DOCKED: REMARK SMILES IDX 11 1 12 2 13 3 14 4 15 5 16 6 17 7 18 8 19 9 20 10 2 11 1 12
DOCKED: REMARK SMILES IDX 3 13 4 14 5 15 6 16 10 17 7 18 9 19 8 20 21 21 22 22 29 23
DOCKED: REMARK SMILES IDX 23 24 28 25 24 26 27 27 25 28 26 29
DOCKED: REMARK H PARENT 23 30
DOCKED: USER                              x       y       z     vdW  Elec       q    Type
DOCKED: USER                           _______ _______ _______ _____ _____    ______ ____
DOCKED: ROOT
DOCKED: ATOM      1  N   UNL     1     141.433  81.309 221.769 -0.23 +0.06    -0.265 N  
DOCKED: ATOM      2  C   UNL     1     141.447  82.745 221.715 -0.21 -0.02    +0.099 C  
DOCKED: ATOM      3  C   UNL     1     140.584  83.418 220.959 -0.27 -0.00    +0.027 C  
DOCKED: ATOM      4  C   UNL     1     139.592  82.710 220.139 -0.14 +0.00    -0.019 A  
DOCKED: ATOM      5  C   UNL     1     138.645  83.438 219.405 -0.06 -0.00    +0.008 A  
DOCKED: ATOM      6  C   UNL     1     137.686  82.772 218.637 -0.02 -0.00    +0.001 A  
DOCKED: ATOM      7  C   UNL     1     137.668  81.376 218.598 -0.02 -0.00    +0.000 A  
DOCKED: ATOM      8  C   UNL     1     138.610  80.644 219.324 -0.04 -0.00    +0.007 A  
DOCKED: ATOM      9  C   UNL     1     139.584  81.302 220.095 -0.11 +0.00    -0.013 A  
DOCKED: ATOM     10  C   UNL     1     140.606  80.490 220.864 -0.19 -0.05    +0.162 C  
DOCKED: ENDROOT
DOCKED: BRANCH   1  11
DOCKED: ATOM     11  S   UNL     1     142.261  80.529 223.085 -0.60 -0.06    +0.239 S  
DOCKED: ATOM     12  O   UNL     1     143.634  80.102 222.650 -0.47 +0.09    -0.206 OA 
DOCKED: ATOM     13  O   UNL     1     142.400  81.484 224.238 -0.52 +0.02    -0.206 OA 
DOCKED: BRANCH  11  14
DOCKED: ATOM     14  C   UNL     1     141.330  79.098 223.604 -0.44 -0.05    +0.195 C  
DOCKED: BRANCH  14  15
DOCKED: ATOM     15  C   UNL     1     139.857  79.365 223.473 -0.42 +0.01    -0.031 A  
DOCKED: ATOM     16  C   UNL     1     139.304  80.554 223.977 -0.37 -0.00    +0.005 A  
DOCKED: ATOM     17  C   UNL     1     139.007  78.387 222.929 -0.31 -0.00    +0.005 A  
DOCKED: ATOM     18  C   UNL     1     137.922  80.764 223.930 -0.36 -0.00    +0.000 A  
DOCKED: ATOM     19  C   UNL     1     137.626  78.602 222.882 -0.21 -0.00    +0.000 A  
DOCKED: ATOM     20  C   UNL     1     137.084  79.789 223.382 -0.23 -0.00    +0.000 A  
DOCKED: ENDBRANCH  14  15
DOCKED: ENDBRANCH  11  14
DOCKED: ENDBRANCH   1  11
DOCKED: BRANCH  10  21
DOCKED: ATOM     21  C   UNL     1     141.482  79.707 219.919 -0.28 -0.00    +0.005 A  
DOCKED: ATOM     22  C   UNL     1     142.200  80.240 218.851 -0.29 -0.06    +0.089 A  
DOCKED: ATOM     23  C   UNL     1     141.764  78.350 219.916 -0.29 -0.00    +0.005 A  
DOCKED: ATOM     24  N   UNL     1     142.888  79.269 218.209 -0.16 +0.36    -0.361 N  
DOCKED: ATOM     25  C   UNL     1     141.349  77.312 220.751 -0.30 -0.01    +0.011 A  
DOCKED: ATOM     26  C   UNL     1     142.617  78.127 218.864 -0.23 -0.04    +0.046 A  
DOCKED: ATOM     27  C   UNL     1     141.827  76.017 220.480 -0.29 -0.00    +0.001 A  
DOCKED: ATOM     28  C   UNL     1     143.106  76.854 218.573 -0.33 -0.02    +0.026 A  
DOCKED: ATOM     29  C   UNL     1     142.702  75.789 219.395 -0.32 -0.00    +0.002 A  
DOCKED: ATOM     30  H   UNL     1     143.507  79.388 217.377 -0.52 -0.31    +0.166 HD 
DOCKED: ENDBRANCH  10  21
DOCKED: TORSDOF 4
DOCKED: TER
DOCKED: ENDMDL
________________________________________________________________________________


    FINAL DOCKED STATE:
    ________________________


Run:   9 / 20
Time taken for this run:   0.028s

DOCKED: MODEL        9
DOCKED: USER    Run = 9
DOCKED: USER
DOCKED: USER    Estimated Free Energy of Binding    =  -7.78 kcal/mol  [=(1)+(2)+(3)-(4)]
DOCKED: USER
DOCKED: USER    (1) Final Intermolecular Energy     =  -8.97 kcal/mol
DOCKED: USER        vdW + Hbond + desolv Energy     =  -8.88 kcal/mol
DOCKED: USER        Electrostatic Energy            =  -0.10 kcal/mol
DOCKED: USER        Moving Ligand-Fixed Receptor    =  -8.97 kcal/mol
DOCKED: USER        Moving Ligand-Moving Receptor   =  +0.00 kcal/mol
DOCKED: USER    (2) Final Total Internal Energy     =  -2.02 kcal/mol
DOCKED: USER    (3) Torsional Free Energy           =  +1.19 kcal/mol
DOCKED: USER    (4) Unbound System's Energy         =  -2.02 kcal/mol
DOCKED: USER
DOCKED: USER
DOCKED: REMARK SMILES O=S(=O)(Cc1ccccc1)N1C=Cc2ccccc2[C@H]1c1c[nH]c2ccccc12
DOCKED: REMARK SMILES IDX 11 1 12 2 13 3 14 4 15 5 16 6 17 7 18 8 19 9 20 10 2 11 1 12
DOCKED: REMARK SMILES IDX 3 13 4 14 5 15 6 16 10 17 7 18 9 19 8 20 21 21 22 22 29 23
DOCKED: REMARK SMILES IDX 23 24 28 25 24 26 27 27 25 28 26 29
DOCKED: REMARK H PARENT 23 30
DOCKED: USER                              x       y       z     vdW  Elec       q    Type
DOCKED: USER                           _______ _______ _______ _____ _____    ______ ____
DOCKED: ROOT
DOCKED: ATOM      1  N   UNL     1     141.394  78.145 219.755 -0.12 +0.14    -0.265 N  
DOCKED: ATOM      2  C   UNL     1     141.147  79.475 219.268 -0.18 -0.05    +0.099 C  
DOCKED: ATOM      3  C   UNL     1     141.265  80.536 220.063 -0.27 -0.01    +0.027 C  
DOCKED: ATOM      4  C   UNL     1     141.640  80.379 221.475 -0.40 +0.01    -0.019 A  
DOCKED: ATOM      5  C   UNL     1     141.830  81.514 222.276 -0.47 -0.00    +0.008 A  
DOCKED: ATOM      6  C   UNL     1     142.204  81.375 223.615 -0.60 -0.00    +0.001 A  
DOCKED: ATOM      7  C   UNL     1     142.392  80.103 224.160 -0.52 -0.00    +0.000 A  
DOCKED: ATOM      8  C   UNL     1     142.203  78.968 223.369 -0.58 -0.00    +0.007 A  
DOCKED: ATOM      9  C   UNL     1     141.819  79.094 222.022 -0.47 +0.01    -0.013 A  
DOCKED: ATOM     10  C   UNL     1     141.605  77.850 221.184 -0.21 -0.09    +0.162 C  
DOCKED: ENDROOT
DOCKED: BRANCH   1  11
DOCKED: ATOM     11  S   UNL     1     141.660  76.882 218.589 -0.16 -0.11    +0.239 S  
DOCKED: ATOM     12  O   UNL     1     140.865  75.663 218.960 -0.05 +0.07    -0.206 OA 
DOCKED: ATOM     13  O   UNL     1     141.222  77.344 217.227 -0.05 +0.10    -0.206 OA 
DOCKED: BRANCH  11  14
DOCKED: ATOM     14  C   UNL     1     143.397  76.470 218.550 -0.19 -0.12    +0.195 C  
DOCKED: BRANCH  14  15
DOCKED: ATOM     15  C   UNL     1     143.621  75.118 219.169 -0.32 +0.01    -0.031 A  
DOCKED: ATOM     16  C   UNL     1     144.430  74.986 220.310 -0.35 -0.00    +0.005 A  
DOCKED: ATOM     17  C   UNL     1     143.100  73.966 218.557 -0.15 -0.00    +0.005 A  
DOCKED: ATOM     18  C   UNL     1     144.706  73.720 220.835 -0.53 -0.00    +0.000 A  
DOCKED: ATOM     19  C   UNL     1     143.377  72.702 219.087 -0.16 -0.00    +0.000 A  
DOCKED: ATOM     20  C   UNL     1     144.180  72.579 220.225 -0.36 -0.00    +0.000 A  
DOCKED: ENDBRANCH  14  15
DOCKED: ENDBRANCH  11  14
DOCKED: ENDBRANCH   1  11
DOCKED: BRANCH  10  21
DOCKED: ATOM     21  C   UNL     1     140.457  77.037 221.725 -0.35 -0.00    +0.005 A  
DOCKED: ATOM     22  C   UNL     1     140.480  75.666 221.973 -0.32 -0.02    +0.089 A  
DOCKED: ATOM     23  C   UNL     1     139.189  77.459 222.092 -0.29 -0.00    +0.005 A  
DOCKED: ATOM     24  N   UNL     1     139.290  75.251 222.461 -0.10 +0.07    -0.361 N  
DOCKED: ATOM     25  C   UNL     1     138.589  78.719 222.083 -0.21 -0.00    +0.011 A  
DOCKED: ATOM     26  C   UNL     1     138.515  76.346 222.531 -0.29 -0.01    +0.046 A  
DOCKED: ATOM     27  C   UNL     1     137.260  78.819 222.533 -0.19 -0.00    +0.001 A  
DOCKED: ATOM     28  C   UNL     1     137.197  76.417 222.982 -0.26 -0.01    +0.026 A  
DOCKED: ATOM     29  C   UNL     1     136.567  77.673 222.980 -0.17 -0.00    +0.002 A  
DOCKED: ATOM     30  H   UNL     1     139.032  74.277 222.733 -0.53 -0.06    +0.166 HD 
DOCKED: ENDBRANCH  10  21
DOCKED: TORSDOF 4
DOCKED: TER
DOCKED: ENDMDL
________________________________________________________________________________


    FINAL DOCKED STATE:
    ________________________


Run:   10 / 20
Time taken for this run:   0.028s

DOCKED: MODEL        10
DOCKED: USER    Run = 10
DOCKED: USER
DOCKED: USER    Estimated Free Energy of Binding    =  -7.70 kcal/mol  [=(1)+(2)+(3)-(4)]
DOCKED: USER
DOCKED: USER    (1) Final Intermolecular Energy     =  -8.90 kcal/mol
DOCKED: USER        vdW + Hbond + desolv Energy     =  -8.79 kcal/mol
DOCKED: USER        Electrostatic Energy            =  -0.11 kcal/mol
DOCKED: USER        Moving Ligand-Fixed Receptor    =  -8.90 kcal/mol
DOCKED: USER        Moving Ligand-Moving Receptor   =  +0.00 kcal/mol
DOCKED: USER    (2) Final Total Internal Energy     =  -2.07 kcal/mol
DOCKED: USER    (3) Torsional Free Energy           =  +1.19 kcal/mol
DOCKED: USER    (4) Unbound System's Energy         =  -2.07 kcal/mol
DOCKED: USER
DOCKED: USER
DOCKED: REMARK SMILES O=S(=O)(Cc1ccccc1)N1C=Cc2ccccc2[C@H]1c1c[nH]c2ccccc12
DOCKED: REMARK SMILES IDX 11 1 12 2 13 3 14 4 15 5 16 6 17 7 18 8 19 9 20 10 2 11 1 12
DOCKED: REMARK SMILES IDX 3 13 4 14 5 15 6 16 10 17 7 18 9 19 8 20 21 21 22 22 29 23
DOCKED: REMARK SMILES IDX 23 24 28 25 24 26 27 27 25 28 26 29
DOCKED: REMARK H PARENT 23 30
DOCKED: USER                              x       y       z     vdW  Elec       q    Type
DOCKED: USER                           _______ _______ _______ _____ _____    ______ ____
DOCKED: ROOT
DOCKED: ATOM      1  N   UNL     1     141.261  78.246 219.775 -0.11 +0.13    -0.265 N  
DOCKED: ATOM      2  C   UNL     1     141.013  79.592 219.334 -0.17 -0.04    +0.099 C  
DOCKED: ATOM      3  C   UNL     1     141.174  80.628 220.152 -0.27 -0.01    +0.027 C  
DOCKED: ATOM      4  C   UNL     1     141.598  80.429 221.544 -0.40 +0.01    -0.019 A  
DOCKED: ATOM      5  C   UNL     1     141.831  81.539 222.369 -0.47 -0.00    +0.008 A  
DOCKED: ATOM      6  C   UNL     1     142.252  81.358 223.689 -0.61 -0.00    +0.001 A  
DOCKED: ATOM      7  C   UNL     1     142.444  80.070 224.192 -0.50 -0.00    +0.000 A  
DOCKED: ATOM      8  C   UNL     1     142.211  78.960 223.378 -0.57 -0.00    +0.007 A  
DOCKED: ATOM      9  C   UNL     1     141.780  79.127 222.050 -0.47 +0.01    -0.013 A  
DOCKED: ATOM     10  C   UNL     1     141.520  77.909 221.187 -0.24 -0.09    +0.162 C  
DOCKED: ENDROOT
DOCKED: BRANCH   1  11
DOCKED: ATOM     11  S   UNL     1     141.468  77.012 218.566 -0.14 -0.11    +0.239 S  
DOCKED: ATOM     12  O   UNL     1     140.911  75.708 219.061 -0.06 +0.07    -0.206 OA 
DOCKED: ATOM     13  O   UNL     1     140.737  77.400 217.311 -0.03 +0.09    -0.206 OA 
DOCKED: BRANCH  11  14
DOCKED: ATOM     14  C   UNL     1     143.207  76.820 218.210 -0.20 -0.13    +0.195 C  
DOCKED: BRANCH  14  15
DOCKED: ATOM     15  C   UNL     1     143.701  75.506 218.747 -0.26 +0.02    -0.031 A  
DOCKED: ATOM     16  C   UNL     1     143.706  74.363 217.930 -0.18 -0.00    +0.005 A  
DOCKED: ATOM     17  C   UNL     1     144.075  75.390 220.096 -0.39 -0.00    +0.005 A  
DOCKED: ATOM     18  C   UNL     1     144.087  73.124 218.455 -0.18 -0.00    +0.000 A  
DOCKED: ATOM     19  C   UNL     1     144.457  74.150 220.616 -0.48 -0.00    +0.000 A  
DOCKED: ATOM     20  C   UNL     1     144.463  73.017 219.796 -0.36 -0.00    +0.000 A  
DOCKED: ENDBRANCH  14  15
DOCKED: ENDBRANCH  11  14
DOCKED: ENDBRANCH   1  11
DOCKED: BRANCH  10  21
DOCKED: ATOM     21  C   UNL     1     140.382  77.095 221.747 -0.34 -0.00    +0.005 A  
DOCKED: ATOM     22  C   UNL     1     140.411  75.724 221.995 -0.31 -0.02    +0.089 A  
DOCKED: ATOM     23  C   UNL     1     139.120  77.516 222.136 -0.29 -0.00    +0.005 A  
DOCKED: ATOM     24  N   UNL     1     139.229  75.308 222.504 -0.10 +0.07    -0.361 N  
DOCKED: ATOM     25  C   UNL     1     138.519  78.775 222.137 -0.21 -0.00    +0.011 A  
DOCKED: ATOM     26  C   UNL     1     138.454  76.402 222.587 -0.29 -0.01    +0.046 A  
DOCKED: ATOM     27  C   UNL     1     137.197  78.874 222.610 -0.19 -0.00    +0.001 A  
DOCKED: ATOM     28  C   UNL     1     137.145  76.472 223.060 -0.25 -0.01    +0.026 A  
DOCKED: ATOM     29  C   UNL     1     136.514  77.727 223.069 -0.16 -0.00    +0.002 A  
DOCKED: ATOM     30  H   UNL     1     138.977  74.334 222.780 -0.54 -0.06    +0.166 HD 
DOCKED: ENDBRANCH  10  21
DOCKED: TORSDOF 4
DOCKED: TER
DOCKED: ENDMDL
________________________________________________________________________________


    FINAL DOCKED STATE:
    ________________________


Run:   11 / 20
Time taken for this run:   0.028s

DOCKED: MODEL        11
DOCKED: USER    Run = 11
DOCKED: USER
DOCKED: USER    Estimated Free Energy of Binding    =  -7.85 kcal/mol  [=(1)+(2)+(3)-(4)]
DOCKED: USER
DOCKED: USER    (1) Final Intermolecular Energy     =  -9.04 kcal/mol
DOCKED: USER        vdW + Hbond + desolv Energy     =  -8.94 kcal/mol
DOCKED: USER        Electrostatic Energy            =  -0.09 kcal/mol
DOCKED: USER        Moving Ligand-Fixed Receptor    =  -9.04 kcal/mol
DOCKED: USER        Moving Ligand-Moving Receptor   =  +0.00 kcal/mol
DOCKED: USER    (2) Final Total Internal Energy     =  -1.97 kcal/mol
DOCKED: USER    (3) Torsional Free Energy           =  +1.19 kcal/mol
DOCKED: USER    (4) Unbound System's Energy         =  -1.97 kcal/mol
DOCKED: USER
DOCKED: USER
DOCKED: REMARK SMILES O=S(=O)(Cc1ccccc1)N1C=Cc2ccccc2[C@H]1c1c[nH]c2ccccc12
DOCKED: REMARK SMILES IDX 11 1 12 2 13 3 14 4 15 5 16 6 17 7 18 8 19 9 20 10 2 11 1 12
DOCKED: REMARK SMILES IDX 3 13 4 14 5 15 6 16 10 17 7 18 9 19 8 20 21 21 22 22 29 23
DOCKED: REMARK SMILES IDX 23 24 28 25 24 26 27 27 25 28 26 29
DOCKED: REMARK H PARENT 23 30
DOCKED: USER                              x       y       z     vdW  Elec       q    Type
DOCKED: USER                           _______ _______ _______ _____ _____    ______ ____
DOCKED: ROOT
DOCKED: ATOM      1  N   UNL     1     141.410  78.076 219.779 -0.12 +0.14    -0.265 N  
DOCKED: ATOM      2  C   UNL     1     141.192  79.401 219.266 -0.19 -0.05    +0.099 C  
DOCKED: ATOM      3  C   UNL     1     141.312  80.472 220.045 -0.28 -0.01    +0.027 C  
DOCKED: ATOM      4  C   UNL     1     141.659  80.333 221.466 -0.40 +0.01    -0.019 A  
DOCKED: ATOM      5  C   UNL     1     141.852  81.479 222.252 -0.46 -0.00    +0.008 A  
DOCKED: ATOM      6  C   UNL     1     142.200  81.356 223.600 -0.61 -0.00    +0.001 A  
DOCKED: ATOM      7  C   UNL     1     142.358  80.091 224.169 -0.51 -0.00    +0.000 A  
DOCKED: ATOM      8  C   UNL     1     142.166  78.946 223.393 -0.58 -0.00    +0.007 A  
DOCKED: ATOM      9  C   UNL     1     141.808  79.055 222.038 -0.47 +0.01    -0.013 A  
DOCKED: ATOM     10  C   UNL     1     141.591  77.801 221.216 -0.20 -0.09    +0.162 C  
DOCKED: ENDROOT
DOCKED: BRANCH   1  11
DOCKED: ATOM     11  S   UNL     1     141.677  76.789 218.638 -0.17 -0.11    +0.239 S  
DOCKED: ATOM     12  O   UNL     1     140.886  75.575 219.036 -0.05 +0.07    -0.206 OA 
DOCKED: ATOM     13  O   UNL     1     141.234  77.221 217.268 -0.05 +0.10    -0.206 OA 
DOCKED: BRANCH  11  14
DOCKED: ATOM     14  C   UNL     1     143.415  76.382 218.604 -0.20 -0.12    +0.195 C  
DOCKED: BRANCH  14  15
DOCKED: ATOM     15  C   UNL     1     143.640  75.029 219.219 -0.32 +0.01    -0.031 A  
DOCKED: ATOM     16  C   UNL     1     144.466  74.891 220.347 -0.40 -0.00    +0.005 A  
DOCKED: ATOM     17  C   UNL     1     143.103  73.880 218.615 -0.15 -0.00    +0.005 A  
DOCKED: ATOM     18  C   UNL     1     144.743  73.623 220.867 -0.53 -0.00    +0.000 A  
DOCKED: ATOM     19  C   UNL     1     143.380  72.614 219.140 -0.16 -0.00    +0.000 A  
DOCKED: ATOM     20  C   UNL     1     144.200  72.485 220.265 -0.36 -0.00    +0.000 A  
DOCKED: ENDBRANCH  14  15
DOCKED: ENDBRANCH  11  14
DOCKED: ENDBRANCH   1  11
DOCKED: BRANCH  10  21
DOCKED: ATOM     21  C   UNL     1     140.420  77.014 221.749 -0.35 -0.00    +0.005 A  
DOCKED: ATOM     22  C   UNL     1     140.403  75.640 221.975 -0.32 -0.02    +0.089 A  
DOCKED: ATOM     23  C   UNL     1     139.167  77.469 222.128 -0.29 -0.00    +0.005 A  
DOCKED: ATOM     24  N   UNL     1     139.202  75.253 222.462 -0.11 +0.07    -0.361 N  
DOCKED: ATOM     25  C   UNL     1     138.605  78.746 222.141 -0.22 -0.00    +0.011 A  
DOCKED: ATOM     26  C   UNL     1     138.461  76.370 222.552 -0.29 -0.01    +0.046 A  
DOCKED: ATOM     27  C   UNL     1     137.281  78.879 222.597 -0.20 -0.00    +0.001 A  
DOCKED: ATOM     28  C   UNL     1     137.148  76.473 223.009 -0.26 -0.01    +0.026 A  
DOCKED: ATOM     29  C   UNL     1     136.556  77.747 223.030 -0.17 -0.00    +0.002 A  
DOCKED: ATOM     30  H   UNL     1     138.916  74.283 222.720 -0.55 -0.06    +0.166 HD 
DOCKED: ENDBRANCH  10  21
DOCKED: TORSDOF 4
DOCKED: TER
DOCKED: ENDMDL
________________________________________________________________________________


    FINAL DOCKED STATE:
    ________________________


Run:   12 / 20
Time taken for this run:   0.028s

DOCKED: MODEL        12
DOCKED: USER    Run = 12
DOCKED: USER
DOCKED: USER    Estimated Free Energy of Binding    =  -7.12 kcal/mol  [=(1)+(2)+(3)-(4)]
DOCKED: USER
DOCKED: USER    (1) Final Intermolecular Energy     =  -8.32 kcal/mol
DOCKED: USER        vdW + Hbond + desolv Energy     =  -8.24 kcal/mol
DOCKED: USER        Electrostatic Energy            =  -0.07 kcal/mol
DOCKED: USER        Moving Ligand-Fixed Receptor    =  -8.32 kcal/mol
DOCKED: USER        Moving Ligand-Moving Receptor   =  +0.00 kcal/mol
DOCKED: USER    (2) Final Total Internal Energy     =  -2.62 kcal/mol
DOCKED: USER    (3) Torsional Free Energy           =  +1.19 kcal/mol
DOCKED: USER    (4) Unbound System's Energy         =  -2.62 kcal/mol
DOCKED: USER
DOCKED: USER
DOCKED: REMARK SMILES O=S(=O)(Cc1ccccc1)N1C=Cc2ccccc2[C@H]1c1c[nH]c2ccccc12
DOCKED: REMARK SMILES IDX 11 1 12 2 13 3 14 4 15 5 16 6 17 7 18 8 19 9 20 10 2 11 1 12
DOCKED: REMARK SMILES IDX 3 13 4 14 5 15 6 16 10 17 7 18 9 19 8 20 21 21 22 22 29 23
DOCKED: REMARK SMILES IDX 23 24 28 25 24 26 27 27 25 28 26 29
DOCKED: REMARK H PARENT 23 30
DOCKED: USER                              x       y       z     vdW  Elec       q    Type
DOCKED: USER                           _______ _______ _______ _____ _____    ______ ____
DOCKED: ROOT
DOCKED: ATOM      1  N   UNL     1     141.453  81.269 221.775 -0.24 +0.06    -0.265 N  
DOCKED: ATOM      2  C   UNL     1     141.450  82.706 221.716 -0.22 -0.02    +0.099 C  
DOCKED: ATOM      3  C   UNL     1     140.572  83.365 220.965 -0.27 -0.00    +0.027 C  
DOCKED: ATOM      4  C   UNL     1     139.580  82.642 220.158 -0.14 +0.00    -0.019 A  
DOCKED: ATOM      5  C   UNL     1     138.617  83.356 219.431 -0.06 -0.00    +0.008 A  
DOCKED: ATOM      6  C   UNL     1     137.659  82.675 218.674 -0.02 -0.00    +0.001 A  
DOCKED: ATOM      7  C   UNL     1     137.657  81.280 218.641 -0.02 -0.00    +0.000 A  
DOCKED: ATOM      8  C   UNL     1     138.614  80.561 219.360 -0.04 -0.00    +0.007 A  
DOCKED: ATOM      9  C   UNL     1     139.588  81.234 220.119 -0.11 +0.00    -0.013 A  
DOCKED: ATOM     10  C   UNL     1     140.627  80.437 220.882 -0.19 -0.05    +0.162 C  
DOCKED: ENDROOT
DOCKED: BRANCH   1  11
DOCKED: ATOM     11  S   UNL     1     142.303  80.505 223.087 -0.60 -0.06    +0.239 S  
DOCKED: ATOM     12  O   UNL     1     143.690  80.126 222.651 -0.47 +0.08    -0.206 OA 
DOCKED: ATOM     13  O   UNL     1     142.409  81.454 224.248 -0.51 +0.02    -0.206 OA 
DOCKED: BRANCH  11  14
DOCKED: ATOM     14  C   UNL     1     141.417  79.040 223.591 -0.45 -0.05    +0.195 C  
DOCKED: BRANCH  14  15
DOCKED: ATOM     15  C   UNL     1     139.935  79.276 223.500 -0.41 +0.01    -0.031 A  
DOCKED: ATOM     16  C   UNL     1     139.098  78.312 222.914 -0.31 -0.00    +0.005 A  
DOCKED: ATOM     17  C   UNL     1     139.388  80.501 223.917 -0.39 -0.00    +0.005 A  
DOCKED: ATOM     18  C   UNL     1     137.733  78.568 222.754 -0.23 -0.00    +0.000 A  
DOCKED: ATOM     19  C   UNL     1     138.022  80.752 223.757 -0.35 -0.00    +0.000 A  
DOCKED: ATOM     20  C   UNL     1     137.195  79.786 223.175 -0.23 -0.00    +0.000 A  
DOCKED: ENDBRANCH  14  15
DOCKED: ENDBRANCH  11  14
DOCKED: ENDBRANCH   1  11
DOCKED: BRANCH  10  21
DOCKED: ATOM     21  C   UNL     1     141.503  79.661 219.932 -0.28 -0.00    +0.005 A  
DOCKED: ATOM     22  C   UNL     1     142.213  80.199 218.861 -0.29 -0.06    +0.089 A  
DOCKED: ATOM     23  C   UNL     1     141.792  78.306 219.925 -0.29 -0.00    +0.005 A  
DOCKED: ATOM     24  N   UNL     1     142.903  79.233 218.215 -0.16 +0.36    -0.361 N  
DOCKED: ATOM     25  C   UNL     1     141.387  77.264 220.760 -0.30 -0.01    +0.011 A  
DOCKED: ATOM     26  C   UNL     1     142.642  78.089 218.868 -0.22 -0.04    +0.046 A  
DOCKED: ATOM     27  C   UNL     1     141.871  75.972 220.485 -0.28 -0.00    +0.001 A  
DOCKED: ATOM     28  C   UNL     1     143.137  76.819 218.573 -0.33 -0.02    +0.026 A  
DOCKED: ATOM     29  C   UNL     1     142.742  75.751 219.396 -0.32 -0.00    +0.002 A  
DOCKED: ATOM     30  H   UNL     1     143.517  79.357 217.380 -0.52 -0.31    +0.166 HD 
DOCKED: ENDBRANCH  10  21
DOCKED: TORSDOF 4
DOCKED: TER
DOCKED: ENDMDL
________________________________________________________________________________


    FINAL DOCKED STATE:
    ________________________


Run:   13 / 20
Time taken for this run:   0.028s

DOCKED: MODEL        13
DOCKED: USER    Run = 13
DOCKED: USER
DOCKED: USER    Estimated Free Energy of Binding    =  -8.20 kcal/mol  [=(1)+(2)+(3)-(4)]
DOCKED: USER
DOCKED: USER    (1) Final Intermolecular Energy     =  -9.40 kcal/mol
DOCKED: USER        vdW + Hbond + desolv Energy     =  -9.39 kcal/mol
DOCKED: USER        Electrostatic Energy            =  -0.01 kcal/mol
DOCKED: USER        Moving Ligand-Fixed Receptor    =  -9.40 kcal/mol
DOCKED: USER        Moving Ligand-Moving Receptor   =  +0.00 kcal/mol
DOCKED: USER    (2) Final Total Internal Energy     =  -1.58 kcal/mol
DOCKED: USER    (3) Torsional Free Energy           =  +1.19 kcal/mol
DOCKED: USER    (4) Unbound System's Energy         =  -1.58 kcal/mol
DOCKED: USER
DOCKED: USER
DOCKED: REMARK SMILES O=S(=O)(Cc1ccccc1)N1C=Cc2ccccc2[C@H]1c1c[nH]c2ccccc12
DOCKED: REMARK SMILES IDX 11 1 12 2 13 3 14 4 15 5 16 6 17 7 18 8 19 9 20 10 2 11 1 12
DOCKED: REMARK SMILES IDX 3 13 4 14 5 15 6 16 10 17 7 18 9 19 8 20 21 21 22 22 29 23
DOCKED: REMARK SMILES IDX 23 24 28 25 24 26 27 27 25 28 26 29
DOCKED: REMARK H PARENT 23 30
DOCKED: USER                              x       y       z     vdW  Elec       q    Type
DOCKED: USER                           _______ _______ _______ _____ _____    ______ ____
DOCKED: ROOT
DOCKED: ATOM      1  N   UNL     1     141.679  77.406 220.081 -0.15 +0.15    -0.265 N  
DOCKED: ATOM      2  C   UNL     1     141.729  78.537 219.195 -0.23 -0.06    +0.099 C  
DOCKED: ATOM      3  C   UNL     1     141.755  79.781 219.663 -0.29 -0.01    +0.027 C  
DOCKED: ATOM      4  C   UNL     1     141.718  80.042 221.109 -0.37 +0.01    -0.019 A  
DOCKED: ATOM      5  C   UNL     1     141.819  81.357 221.584 -0.42 -0.00    +0.008 A  
DOCKED: ATOM      6  C   UNL     1     141.803  81.612 222.958 -0.52 -0.00    +0.001 A  
DOCKED: ATOM      7  C   UNL     1     141.688  80.556 223.864 -0.57 -0.00    +0.000 A  
DOCKED: ATOM      8  C   UNL     1     141.585  79.243 223.398 -0.58 -0.00    +0.007 A  
DOCKED: ATOM      9  C   UNL     1     141.592  78.974 222.019 -0.44 +0.01    -0.013 A  
DOCKED: ATOM     10  C   UNL     1     141.465  77.544 221.533 -0.16 -0.09    +0.162 C  
DOCKED: ENDROOT
DOCKED: BRANCH   1  11
DOCKED: ATOM     11  S   UNL     1     142.096  75.843 219.439 -0.23 -0.11    +0.239 S  
DOCKED: ATOM     12  O   UNL     1     140.986  75.332 218.566 -0.04 +0.06    -0.206 OA 
DOCKED: ATOM     13  O   UNL     1     143.347  75.948 218.611 -0.25 +0.12    -0.206 OA 
DOCKED: BRANCH  11  14
DOCKED: ATOM     14  C   UNL     1     142.366  74.704 220.787 -0.17 -0.07    +0.195 C  
DOCKED: BRANCH  14  15
DOCKED: ATOM     15  C   UNL     1     143.614  73.903 220.545 -0.35 +0.01    -0.031 A  
DOCKED: ATOM     16  C   UNL     1     144.878  74.473 220.774 -0.40 -0.00    +0.005 A  
DOCKED: ATOM     17  C   UNL     1     143.530  72.611 219.998 -0.27 -0.00    +0.005 A  
DOCKED: ATOM     18  C   UNL     1     146.040  73.757 220.468 -0.65 -0.00    +0.000 A  
DOCKED: ATOM     19  C   UNL     1     144.694  71.898 219.696 -0.32 +0.00    +0.000 A  
DOCKED: ATOM     20  C   UNL     1     145.948  72.470 219.930 -0.46 +0.00    +0.000 A  
DOCKED: ENDBRANCH  14  15
DOCKED: ENDBRANCH  11  14
DOCKED: ENDBRANCH   1  11
DOCKED: BRANCH  10  21
DOCKED: ATOM     21  C   UNL     1     140.127  76.969 221.921 -0.35 -0.00    +0.005 A  
DOCKED: ATOM     22  C   UNL     1     139.862  75.623 222.165 -0.27 -0.01    +0.089 A  
DOCKED: ATOM     23  C   UNL     1     138.924  77.626 222.125 -0.27 -0.00    +0.005 A  
DOCKED: ATOM     24  N   UNL     1     138.564  75.446 222.497 -0.09 +0.10    -0.361 N  
DOCKED: ATOM     25  C   UNL     1     138.575  78.975 222.043 -0.20 -0.00    +0.011 A  
DOCKED: ATOM     26  C   UNL     1     138.004  76.667 222.471 -0.27 -0.01    +0.046 A  
DOCKED: ATOM     27  C   UNL     1     137.242  79.329 222.320 -0.16 -0.00    +0.001 A  
DOCKED: ATOM     28  C   UNL     1     136.677  76.990 222.751 -0.22 -0.00    +0.026 A  
DOCKED: ATOM     29  C   UNL     1     136.297  78.341 222.673 -0.16 -0.00    +0.002 A  
DOCKED: ATOM     30  H   UNL     1     138.097  74.542 222.731 -0.52 -0.08    +0.166 HD 
DOCKED: ENDBRANCH  10  21
DOCKED: TORSDOF 4
DOCKED: TER
DOCKED: ENDMDL
________________________________________________________________________________


    FINAL DOCKED STATE:
    ________________________


Run:   14 / 20
Time taken for this run:   0.028s

DOCKED: MODEL        14
DOCKED: USER    Run = 14
DOCKED: USER
DOCKED: USER    Estimated Free Energy of Binding    =  -7.81 kcal/mol  [=(1)+(2)+(3)-(4)]
DOCKED: USER
DOCKED: USER    (1) Final Intermolecular Energy     =  -9.01 kcal/mol
DOCKED: USER        vdW + Hbond + desolv Energy     =  -8.91 kcal/mol
DOCKED: USER        Electrostatic Energy            =  -0.10 kcal/mol
DOCKED: USER        Moving Ligand-Fixed Receptor    =  -9.01 kcal/mol
DOCKED: USER        Moving Ligand-Moving Receptor   =  +0.00 kcal/mol
DOCKED: USER    (2) Final Total Internal Energy     =  -1.98 kcal/mol
DOCKED: USER    (3) Torsional Free Energy           =  +1.19 kcal/mol
DOCKED: USER    (4) Unbound System's Energy         =  -1.98 kcal/mol
DOCKED: USER
DOCKED: USER
DOCKED: REMARK SMILES O=S(=O)(Cc1ccccc1)N1C=Cc2ccccc2[C@H]1c1c[nH]c2ccccc12
DOCKED: REMARK SMILES IDX 11 1 12 2 13 3 14 4 15 5 16 6 17 7 18 8 19 9 20 10 2 11 1 12
DOCKED: REMARK SMILES IDX 3 13 4 14 5 15 6 16 10 17 7 18 9 19 8 20 21 21 22 22 29 23
DOCKED: REMARK SMILES IDX 23 24 28 25 24 26 27 27 25 28 26 29
DOCKED: REMARK H PARENT 23 30
DOCKED: USER                              x       y       z     vdW  Elec       q    Type
DOCKED: USER                           _______ _______ _______ _____ _____    ______ ____
DOCKED: ROOT
DOCKED: ATOM      1  N   UNL     1     141.382  78.087 219.776 -0.12 +0.13    -0.265 N  
DOCKED: ATOM      2  C   UNL     1     141.172  79.409 219.251 -0.19 -0.05    +0.099 C  
DOCKED: ATOM      3  C   UNL     1     141.298  80.487 220.020 -0.28 -0.01    +0.027 C  
DOCKED: ATOM      4  C   UNL     1     141.643  80.359 221.443 -0.39 +0.01    -0.019 A  
DOCKED: ATOM      5  C   UNL     1     141.842  81.510 222.218 -0.46 -0.00    +0.008 A  
DOCKED: ATOM      6  C   UNL     1     142.189  81.398 223.567 -0.59 -0.00    +0.001 A  
DOCKED: ATOM      7  C   UNL     1     142.340  80.137 224.148 -0.53 -0.00    +0.000 A  
DOCKED: ATOM      8  C   UNL     1     142.141  78.986 223.383 -0.59 -0.00    +0.007 A  
DOCKED: ATOM      9  C   UNL     1     141.785  79.085 222.026 -0.47 +0.01    -0.013 A  
DOCKED: ATOM     10  C   UNL     1     141.560  77.825 221.216 -0.22 -0.09    +0.162 C  
DOCKED: ENDROOT
DOCKED: BRANCH   1  11
DOCKED: ATOM     11  S   UNL     1     141.643  76.789 218.648 -0.16 -0.11    +0.239 S  
DOCKED: ATOM     12  O   UNL     1     140.916  75.556 219.104 -0.06 +0.07    -0.206 OA 
DOCKED: ATOM     13  O   UNL     1     141.121  77.178 217.292 -0.05 +0.09    -0.206 OA 
DOCKED: BRANCH  11  14
DOCKED: ATOM     14  C   UNL     1     143.391  76.442 218.539 -0.20 -0.12    +0.195 C  
DOCKED: BRANCH  14  15
DOCKED: ATOM     15  C   UNL     1     143.687  75.090 219.124 -0.31 +0.01    -0.031 A  
DOCKED: ATOM     16  C   UNL     1     144.393  74.980 220.334 -0.35 -0.00    +0.005 A  
DOCKED: ATOM     17  C   UNL     1     143.342  73.924 218.420 -0.16 -0.00    +0.005 A  
DOCKED: ATOM     18  C   UNL     1     144.741  73.722 220.835 -0.54 -0.00    +0.000 A  
DOCKED: ATOM     19  C   UNL     1     143.690  72.668 218.925 -0.17 -0.00    +0.000 A  
DOCKED: ATOM     20  C   UNL     1     144.390  72.567 220.132 -0.37 -0.00    +0.000 A  
DOCKED: ENDBRANCH  14  15
DOCKED: ENDBRANCH  11  14
DOCKED: ENDBRANCH   1  11
DOCKED: BRANCH  10  21
DOCKED: ATOM     21  C   UNL     1     140.385  77.050 221.755 -0.34 -0.00    +0.005 A  
DOCKED: ATOM     22  C   UNL     1     140.359  75.677 221.991 -0.31 -0.02    +0.089 A  
DOCKED: ATOM     23  C   UNL     1     139.136  77.515 222.132 -0.29 -0.00    +0.005 A  
DOCKED: ATOM     24  N   UNL     1     139.156  75.302 222.482 -0.11 +0.08    -0.361 N  
DOCKED: ATOM     25  C   UNL     1     138.583  78.796 222.137 -0.22 -0.00    +0.011 A  
DOCKED: ATOM     26  C   UNL     1     138.422  76.424 222.565 -0.29 -0.01    +0.046 A  
DOCKED: ATOM     27  C   UNL     1     137.260  78.942 222.594 -0.19 -0.00    +0.001 A  
DOCKED: ATOM     28  C   UNL     1     137.111  76.539 223.023 -0.25 -0.01    +0.026 A  
DOCKED: ATOM     29  C   UNL     1     136.527  77.818 223.035 -0.16 -0.00    +0.002 A  
DOCKED: ATOM     30  H   UNL     1     138.864  74.335 222.746 -0.55 -0.07    +0.166 HD 
DOCKED: ENDBRANCH  10  21
DOCKED: TORSDOF 4
DOCKED: TER
DOCKED: ENDMDL
________________________________________________________________________________


    FINAL DOCKED STATE:
    ________________________


Run:   15 / 20
Time taken for this run:   0.028s

DOCKED: MODEL        15
DOCKED: USER    Run = 15
DOCKED: USER
DOCKED: USER    Estimated Free Energy of Binding    =  -7.83 kcal/mol  [=(1)+(2)+(3)-(4)]
DOCKED: USER
DOCKED: USER    (1) Final Intermolecular Energy     =  -9.02 kcal/mol
DOCKED: USER        vdW + Hbond + desolv Energy     =  -8.93 kcal/mol
DOCKED: USER        Electrostatic Energy            =  -0.09 kcal/mol
DOCKED: USER        Moving Ligand-Fixed Receptor    =  -9.02 kcal/mol
DOCKED: USER        Moving Ligand-Moving Receptor   =  +0.00 kcal/mol
DOCKED: USER    (2) Final Total Internal Energy     =  -1.99 kcal/mol
DOCKED: USER    (3) Torsional Free Energy           =  +1.19 kcal/mol
DOCKED: USER    (4) Unbound System's Energy         =  -1.99 kcal/mol
DOCKED: USER
DOCKED: USER
DOCKED: REMARK SMILES O=S(=O)(Cc1ccccc1)N1C=Cc2ccccc2[C@H]1c1c[nH]c2ccccc12
DOCKED: REMARK SMILES IDX 11 1 12 2 13 3 14 4 15 5 16 6 17 7 18 8 19 9 20 10 2 11 1 12
DOCKED: REMARK SMILES IDX 3 13 4 14 5 15 6 16 10 17 7 18 9 19 8 20 21 21 22 22 29 23
DOCKED: REMARK SMILES IDX 23 24 28 25 24 26 27 27 25 28 26 29
DOCKED: REMARK H PARENT 23 30
DOCKED: USER                              x       y       z     vdW  Elec       q    Type
DOCKED: USER                           _______ _______ _______ _____ _____    ______ ____
DOCKED: ROOT
DOCKED: ATOM      1  N   UNL     1     141.353  78.126 219.765 -0.11 +0.13    -0.265 N  
DOCKED: ATOM      2  C   UNL     1     141.119  79.454 219.268 -0.18 -0.05    +0.099 C  
DOCKED: ATOM      3  C   UNL     1     141.244  80.519 220.055 -0.27 -0.01    +0.027 C  
DOCKED: ATOM      4  C   UNL     1     141.613  80.370 221.469 -0.39 +0.01    -0.019 A  
DOCKED: ATOM      5  C   UNL     1     141.811  81.509 222.263 -0.47 -0.00    +0.008 A  
DOCKED: ATOM      6  C   UNL     1     142.180  81.376 223.604 -0.60 -0.00    +0.001 A  
DOCKED: ATOM      7  C   UNL     1     142.355  80.107 224.158 -0.52 -0.00    +0.000 A  
DOCKED: ATOM      8  C   UNL     1     142.158  78.968 223.375 -0.58 -0.00    +0.007 A  
DOCKED: ATOM      9  C   UNL     1     141.779  79.087 222.027 -0.46 +0.01    -0.013 A  
DOCKED: ATOM     10  C   UNL     1     141.557  77.839 221.197 -0.22 -0.09    +0.162 C  
DOCKED: ENDROOT
DOCKED: BRANCH   1  11
DOCKED: ATOM     11  S   UNL     1     141.611  76.852 218.609 -0.16 -0.11    +0.239 S  
DOCKED: ATOM     12  O   UNL     1     140.829  75.631 219.004 -0.05 +0.07    -0.206 OA 
DOCKED: ATOM     13  O   UNL     1     141.150  77.296 217.248 -0.05 +0.09    -0.206 OA 
DOCKED: BRANCH  11  14
DOCKED: ATOM     14  C   UNL     1     143.350  76.451 218.550 -0.22 -0.12    +0.195 C  
DOCKED: BRANCH  14  15
DOCKED: ATOM     15  C   UNL     1     143.592  75.110 219.184 -0.32 +0.01    -0.031 A  
DOCKED: ATOM     16  C   UNL     1     144.438  74.996 220.300 -0.35 -0.00    +0.005 A  
DOCKED: ATOM     17  C   UNL     1     143.051  73.948 218.609 -0.15 -0.00    +0.005 A  
DOCKED: ATOM     18  C   UNL     1     144.730  73.738 220.838 -0.54 -0.00    +0.000 A  
DOCKED: ATOM     19  C   UNL     1     143.343  72.692 219.151 -0.17 -0.00    +0.000 A  
DOCKED: ATOM     20  C   UNL     1     144.183  72.588 220.264 -0.37 -0.00    +0.000 A  
DOCKED: ENDBRANCH  14  15
DOCKED: ENDBRANCH  11  14
DOCKED: ENDBRANCH   1  11
DOCKED: BRANCH  10  21
DOCKED: ATOM     21  C   UNL     1     140.400  77.040 221.740 -0.34 -0.00    +0.005 A  
DOCKED: ATOM     22  C   UNL     1     140.400  75.666 221.968 -0.32 -0.02    +0.089 A  
DOCKED: ATOM     23  C   UNL     1     139.145  77.481 222.129 -0.29 -0.00    +0.005 A  
DOCKED: ATOM     24  N   UNL     1     139.208  75.266 222.466 -0.11 +0.07    -0.361 N  
DOCKED: ATOM     25  C   UNL     1     138.569  78.751 222.145 -0.22 -0.00    +0.011 A  
DOCKED: ATOM     26  C   UNL     1     138.455  76.374 222.560 -0.29 -0.01    +0.046 A  
DOCKED: ATOM     27  C   UNL     1     137.247  78.870 222.612 -0.20 -0.00    +0.001 A  
DOCKED: ATOM     28  C   UNL     1     137.145  76.464 223.028 -0.26 -0.01    +0.026 A  
DOCKED: ATOM     29  C   UNL     1     136.538  77.731 223.052 -0.16 -0.00    +0.002 A  
DOCKED: ATOM     30  H   UNL     1     138.935  74.293 222.727 -0.54 -0.06    +0.166 HD 
DOCKED: ENDBRANCH  10  21
DOCKED: TORSDOF 4
DOCKED: TER
DOCKED: ENDMDL
________________________________________________________________________________


    FINAL DOCKED STATE:
    ________________________


Run:   16 / 20
Time taken for this run:   0.028s

DOCKED: MODEL        16
DOCKED: USER    Run = 16
DOCKED: USER
DOCKED: USER    Estimated Free Energy of Binding    =  -6.84 kcal/mol  [=(1)+(2)+(3)-(4)]
DOCKED: USER
DOCKED: USER    (1) Final Intermolecular Energy     =  -8.04 kcal/mol
DOCKED: USER        vdW + Hbond + desolv Energy     =  -7.98 kcal/mol
DOCKED: USER        Electrostatic Energy            =  -0.05 kcal/mol
DOCKED: USER        Moving Ligand-Fixed Receptor    =  -8.04 kcal/mol
DOCKED: USER        Moving Ligand-Moving Receptor   =  +0.00 kcal/mol
DOCKED: USER    (2) Final Total Internal Energy     =  -2.80 kcal/mol
DOCKED: USER    (3) Torsional Free Energy           =  +1.19 kcal/mol
DOCKED: USER    (4) Unbound System's Energy         =  -2.80 kcal/mol
DOCKED: USER
DOCKED: USER
DOCKED: REMARK SMILES O=S(=O)(Cc1ccccc1)N1C=Cc2ccccc2[C@H]1c1c[nH]c2ccccc12
DOCKED: REMARK SMILES IDX 11 1 12 2 13 3 14 4 15 5 16 6 17 7 18 8 19 9 20 10 2 11 1 12
DOCKED: REMARK SMILES IDX 3 13 4 14 5 15 6 16 10 17 7 18 9 19 8 20 21 21 22 22 29 23
DOCKED: REMARK SMILES IDX 23 24 28 25 24 26 27 27 25 28 26 29
DOCKED: REMARK H PARENT 23 30
DOCKED: USER                              x       y       z     vdW  Elec       q    Type
DOCKED: USER                           _______ _______ _______ _____ _____    ______ ____
DOCKED: ROOT
DOCKED: ATOM      1  N   UNL     1     138.851  79.492 221.420 -0.05 +0.06    -0.265 N  
DOCKED: ATOM      2  C   UNL     1     138.394  80.353 222.476 -0.20 -0.02    +0.099 C  
DOCKED: ATOM      3  C   UNL     1     139.244  80.891 223.346 -0.36 -0.00    +0.027 C  
DOCKED: ATOM      4  C   UNL     1     140.684  80.609 223.264 -0.45 +0.00    -0.019 A  
DOCKED: ATOM      5  C   UNL     1     141.571  81.244 224.146 -0.38 -0.00    +0.008 A  
DOCKED: ATOM      6  C   UNL     1     142.943  80.996 224.062 -0.62 -0.00    +0.001 A  
DOCKED: ATOM      7  C   UNL     1     143.437  80.115 223.098 -0.58 -0.00    +0.000 A  
DOCKED: ATOM      8  C   UNL     1     142.560  79.478 222.218 -0.47 -0.00    +0.007 A  
DOCKED: ATOM      9  C   UNL     1     141.176  79.712 222.296 -0.42 +0.00    -0.013 A  
DOCKED: ATOM     10  C   UNL     1     140.239  79.001 221.341 -0.18 -0.05    +0.162 C  
DOCKED: ENDROOT
DOCKED: BRANCH   1  11
DOCKED: ATOM     11  S   UNL     1     137.779  79.196 220.082 -0.03 -0.05    +0.239 S  
DOCKED: ATOM     12  O   UNL     1     137.870  77.758 219.657 -0.01 +0.04    -0.206 OA 
DOCKED: ATOM     13  O   UNL     1     136.362  79.486 220.490 -0.02 +0.03    -0.206 OA 
DOCKED: BRANCH  11  14
DOCKED: ATOM     14  C   UNL     1     138.236  80.249 218.715 -0.01 -0.05    +0.195 C  
DOCKED: BRANCH  14  15
DOCKED: ATOM     15  C   UNL     1     139.732  80.331 218.603 -0.06 +0.01    -0.031 A  
DOCKED: ATOM     16  C   UNL     1     140.463  79.259 218.062 -0.08 -0.00    +0.005 A  
DOCKED: ATOM     17  C   UNL     1     140.421  81.439 219.124 -0.14 -0.00    +0.005 A  
DOCKED: ATOM     18  C   UNL     1     141.860  79.301 218.035 -0.26 -0.00    +0.000 A  
DOCKED: ATOM     19  C   UNL     1     141.818  81.478 219.094 -0.27 -0.00    +0.000 A  
DOCKED: ATOM     20  C   UNL     1     142.537  80.410 218.550 -0.33 -0.00    +0.000 A  
DOCKED: ENDBRANCH  14  15
DOCKED: ENDBRANCH  11  14
DOCKED: ENDBRANCH   1  11
DOCKED: BRANCH  10  21
DOCKED: ATOM     21  C   UNL     1     140.281  77.511 221.569 -0.29 -0.00    +0.005 A  
DOCKED: ATOM     22  C   UNL     1     139.398  76.789 222.368 -0.30 -0.02    +0.089 A  
DOCKED: ATOM     23  C   UNL     1     141.158  76.576 221.044 -0.31 -0.00    +0.005 A  
DOCKED: ATOM     24  N   UNL     1     139.710  75.473 222.351 -0.15 +0.05    -0.361 N  
DOCKED: ATOM     25  C   UNL     1     142.240  76.700 220.172 -0.29 -0.01    +0.011 A  
DOCKED: ATOM     26  C   UNL     1     140.777  75.354 221.545 -0.33 -0.01    +0.046 A  
DOCKED: ATOM     27  C   UNL     1     142.941  75.533 219.819 -0.36 -0.00    +0.001 A  
DOCKED: ATOM     28  C   UNL     1     141.454  74.182 221.212 -0.28 -0.00    +0.026 A  
DOCKED: ATOM     29  C   UNL     1     142.550  74.279 220.338 -0.30 -0.00    +0.002 A  
DOCKED: ATOM     30  H   UNL     1     139.214  74.708 222.860 -0.45 -0.04    +0.166 HD 
DOCKED: ENDBRANCH  10  21
DOCKED: TORSDOF 4
DOCKED: TER
DOCKED: ENDMDL
________________________________________________________________________________


    FINAL DOCKED STATE:
    ________________________


Run:   17 / 20
Time taken for this run:   0.028s

DOCKED: MODEL        17
DOCKED: USER    Run = 17
DOCKED: USER
DOCKED: USER    Estimated Free Energy of Binding    =  -7.78 kcal/mol  [=(1)+(2)+(3)-(4)]
DOCKED: USER
DOCKED: USER    (1) Final Intermolecular Energy     =  -8.97 kcal/mol
DOCKED: USER        vdW + Hbond + desolv Energy     =  -8.87 kcal/mol
DOCKED: USER        Electrostatic Energy            =  -0.10 kcal/mol
DOCKED: USER        Moving Ligand-Fixed Receptor    =  -8.97 kcal/mol
DOCKED: USER        Moving Ligand-Moving Receptor   =  +0.00 kcal/mol
DOCKED: USER    (2) Final Total Internal Energy     =  -2.04 kcal/mol
DOCKED: USER    (3) Torsional Free Energy           =  +1.19 kcal/mol
DOCKED: USER    (4) Unbound System's Energy         =  -2.04 kcal/mol
DOCKED: USER
DOCKED: USER
DOCKED: REMARK SMILES O=S(=O)(Cc1ccccc1)N1C=Cc2ccccc2[C@H]1c1c[nH]c2ccccc12
DOCKED: REMARK SMILES IDX 11 1 12 2 13 3 14 4 15 5 16 6 17 7 18 8 19 9 20 10 2 11 1 12
DOCKED: REMARK SMILES IDX 3 13 4 14 5 15 6 16 10 17 7 18 9 19 8 20 21 21 22 22 29 23
DOCKED: REMARK SMILES IDX 23 24 28 25 24 26 27 27 25 28 26 29
DOCKED: REMARK H PARENT 23 30
DOCKED: USER                              x       y       z     vdW  Elec       q    Type
DOCKED: USER                           _______ _______ _______ _____ _____    ______ ____
DOCKED: ROOT
DOCKED: ATOM      1  N   UNL     1     141.281  78.271 219.737 -0.11 +0.13    -0.265 N  
DOCKED: ATOM      2  C   UNL     1     141.016  79.613 219.297 -0.17 -0.04    +0.099 C  
DOCKED: ATOM      3  C   UNL     1     141.155  80.651 220.117 -0.27 -0.01    +0.027 C  
DOCKED: ATOM      4  C   UNL     1     141.574  80.455 221.512 -0.40 +0.01    -0.019 A  
DOCKED: ATOM      5  C   UNL     1     141.786  81.567 222.340 -0.47 -0.00    +0.008 A  
DOCKED: ATOM      6  C   UNL     1     142.202  81.391 223.662 -0.60 -0.00    +0.001 A  
DOCKED: ATOM      7  C   UNL     1     142.411  80.105 224.163 -0.52 -0.00    +0.000 A  
DOCKED: ATOM      8  C   UNL     1     142.200  78.992 223.346 -0.58 -0.00    +0.007 A  
DOCKED: ATOM      9  C   UNL     1     141.774  79.155 222.017 -0.46 +0.01    -0.013 A  
DOCKED: ATOM     10  C   UNL     1     141.538  77.935 221.149 -0.24 -0.09    +0.162 C  
DOCKED: ENDROOT
DOCKED: BRANCH   1  11
DOCKED: ATOM     11  S   UNL     1     141.514  77.043 218.527 -0.15 -0.11    +0.239 S  
DOCKED: ATOM     12  O   UNL     1     140.912  75.746 218.987 -0.06 +0.07    -0.206 OA 
DOCKED: ATOM     13  O   UNL     1     140.844  77.454 217.246 -0.04 +0.09    -0.206 OA 
DOCKED: BRANCH  11  14
DOCKED: ATOM     14  C   UNL     1     143.262  76.818 218.241 -0.20 -0.13    +0.195 C  
DOCKED: BRANCH  14  15
DOCKED: ATOM     15  C   UNL     1     143.702  75.477 218.757 -0.26 +0.02    -0.031 A  
DOCKED: ATOM     16  C   UNL     1     144.080  75.323 220.102 -0.40 -0.00    +0.005 A  
DOCKED: ATOM     17  C   UNL     1     143.828  74.388 217.878 -0.17 -0.00    +0.005 A  
DOCKED: ATOM     18  C   UNL     1     144.569  74.096 220.560 -0.50 -0.00    +0.000 A  
DOCKED: ATOM     19  C   UNL     1     144.314  73.162 218.341 -0.19 -0.00    +0.000 A  
DOCKED: ATOM     20  C   UNL     1     144.685  73.016 219.681 -0.37 -0.00    +0.000 A  
DOCKED: ENDBRANCH  14  15
DOCKED: ENDBRANCH  11  14
DOCKED: ENDBRANCH   1  11
DOCKED: BRANCH  10  21
DOCKED: ATOM     21  C   UNL     1     140.409  77.103 221.702 -0.34 -0.00    +0.005 A  
DOCKED: ATOM     22  C   UNL     1     140.457  75.732 221.945 -0.33 -0.02    +0.089 A  
DOCKED: ATOM     23  C   UNL     1     139.139  77.504 222.086 -0.28 -0.00    +0.005 A  
DOCKED: ATOM     24  N   UNL     1     139.279  75.297 222.447 -0.12 +0.07    -0.361 N  
DOCKED: ATOM     25  C   UNL     1     138.519  78.754 222.088 -0.21 -0.00    +0.011 A  
DOCKED: ATOM     26  C   UNL     1     138.488  76.379 222.530 -0.29 -0.01    +0.046 A  
DOCKED: ATOM     27  C   UNL     1     137.194  78.832 222.554 -0.19 -0.00    +0.001 A  
DOCKED: ATOM     28  C   UNL     1     137.175  76.428 222.997 -0.26 -0.01    +0.026 A  
DOCKED: ATOM     29  C   UNL     1     136.525  77.674 223.007 -0.17 -0.00    +0.002 A  
DOCKED: ATOM     30  H   UNL     1     139.040  74.318 222.719 -0.53 -0.05    +0.166 HD 
DOCKED: ENDBRANCH  10  21
DOCKED: TORSDOF 4
DOCKED: TER
DOCKED: ENDMDL
________________________________________________________________________________


    FINAL DOCKED STATE:
    ________________________


Run:   18 / 20
Time taken for this run:   0.028s

DOCKED: MODEL        18
DOCKED: USER    Run = 18
DOCKED: USER
DOCKED: USER    Estimated Free Energy of Binding    =  -8.18 kcal/mol  [=(1)+(2)+(3)-(4)]
DOCKED: USER
DOCKED: USER    (1) Final Intermolecular Energy     =  -9.38 kcal/mol
DOCKED: USER        vdW + Hbond + desolv Energy     =  -9.38 kcal/mol
DOCKED: USER        Electrostatic Energy            =  +0.00 kcal/mol
DOCKED: USER        Moving Ligand-Fixed Receptor    =  -9.38 kcal/mol
DOCKED: USER        Moving Ligand-Moving Receptor   =  +0.00 kcal/mol
DOCKED: USER    (2) Final Total Internal Energy     =  -1.67 kcal/mol
DOCKED: USER    (3) Torsional Free Energy           =  +1.19 kcal/mol
DOCKED: USER    (4) Unbound System's Energy         =  -1.67 kcal/mol
DOCKED: USER
DOCKED: USER
DOCKED: REMARK SMILES O=S(=O)(Cc1ccccc1)N1C=Cc2ccccc2[C@H]1c1c[nH]c2ccccc12
DOCKED: REMARK SMILES IDX 11 1 12 2 13 3 14 4 15 5 16 6 17 7 18 8 19 9 20 10 2 11 1 12
DOCKED: REMARK SMILES IDX 3 13 4 14 5 15 6 16 10 17 7 18 9 19 8 20 21 21 22 22 29 23
DOCKED: REMARK SMILES IDX 23 24 28 25 24 26 27 27 25 28 26 29
DOCKED: REMARK H PARENT 23 30
DOCKED: USER                              x       y       z     vdW  Elec       q    Type
DOCKED: USER                           _______ _______ _______ _____ _____    ______ ____
DOCKED: ROOT
DOCKED: ATOM      1  N   UNL     1     141.574  77.344 220.057 -0.14 +0.14    -0.265 N  
DOCKED: ATOM      2  C   UNL     1     141.679  78.556 219.291 -0.23 -0.06    +0.099 C  
DOCKED: ATOM      3  C   UNL     1     141.840  79.736 219.882 -0.28 -0.01    +0.027 C  
DOCKED: ATOM      4  C   UNL     1     141.900  79.842 221.346 -0.39 +0.01    -0.019 A  
DOCKED: ATOM      5  C   UNL     1     142.143  81.085 221.947 -0.45 -0.00    +0.008 A  
DOCKED: ATOM      6  C   UNL     1     142.220  81.191 223.338 -0.61 -0.00    +0.001 A  
DOCKED: ATOM      7  C   UNL     1     142.058  80.057 224.136 -0.49 -0.00    +0.000 A  
DOCKED: ATOM      8  C   UNL     1     141.814  78.815 223.545 -0.61 -0.00    +0.007 A  
DOCKED: ATOM      9  C   UNL     1     141.726  78.696 222.147 -0.45 +0.01    -0.013 A  
DOCKED: ATOM     10  C   UNL     1     141.448  77.343 221.526 -0.14 -0.09    +0.162 C  
DOCKED: ENDROOT
DOCKED: BRANCH   1  11
DOCKED: ATOM     11  S   UNL     1     141.817  75.830 219.234 -0.18 -0.10    +0.239 S  
DOCKED: ATOM     12  O   UNL     1     140.631  75.519 218.366 -0.03 +0.06    -0.206 OA 
DOCKED: ATOM     13  O   UNL     1     143.039  75.913 218.362 -0.20 +0.11    -0.206 OA 
DOCKED: BRANCH  11  14
DOCKED: ATOM     14  C   UNL     1     142.029  74.530 220.439 -0.20 -0.06    +0.195 C  
DOCKED: BRANCH  14  15
DOCKED: ATOM     15  C   UNL     1     143.398  73.923 220.308 -0.33 +0.01    -0.031 A  
DOCKED: ATOM     16  C   UNL     1     143.543  72.547 220.064 -0.28 -0.00    +0.005 A  
DOCKED: ATOM     17  C   UNL     1     144.543  74.708 220.521 -0.38 -0.00    +0.005 A  
DOCKED: ATOM     18  C   UNL     1     144.815  71.968 220.026 -0.35 +0.00    +0.000 A  
DOCKED: ATOM     19  C   UNL     1     145.813  74.126 220.480 -0.57 -0.00    +0.000 A  
DOCKED: ATOM     20  C   UNL     1     145.950  72.757 220.233 -0.55 +0.00    +0.000 A  
DOCKED: ENDBRANCH  14  15
DOCKED: ENDBRANCH  11  14
DOCKED: ENDBRANCH   1  11
DOCKED: BRANCH  10  21
DOCKED: ATOM     21  C   UNL     1     140.085  76.843 221.933 -0.35 -0.00    +0.005 A  
DOCKED: ATOM     22  C   UNL     1     139.741  75.509 222.146 -0.26 -0.01    +0.089 A  
DOCKED: ATOM     23  C   UNL     1     138.933  77.569 222.187 -0.28 -0.00    +0.005 A  
DOCKED: ATOM     24  N   UNL     1     138.442  75.406 222.507 -0.07 +0.11    -0.361 N  
DOCKED: ATOM     25  C   UNL     1     138.670  78.939 222.153 -0.22 -0.00    +0.011 A  
DOCKED: ATOM     26  C   UNL     1     137.961  76.660 222.530 -0.27 -0.01    +0.046 A  
DOCKED: ATOM     27  C   UNL     1     137.369  79.369 222.476 -0.18 -0.00    +0.001 A  
DOCKED: ATOM     28  C   UNL     1     136.665  77.058 222.855 -0.21 -0.00    +0.026 A  
DOCKED: ATOM     29  C   UNL     1     136.372  78.432 222.825 -0.17 -0.00    +0.002 A  
DOCKED: ATOM     30  H   UNL     1     137.924  74.527 222.727 -0.49 -0.08    +0.166 HD 
DOCKED: ENDBRANCH  10  21
DOCKED: TORSDOF 4
DOCKED: TER
DOCKED: ENDMDL
________________________________________________________________________________


    FINAL DOCKED STATE:
    ________________________


Run:   19 / 20
Time taken for this run:   0.028s

DOCKED: MODEL        19
DOCKED: USER    Run = 19
DOCKED: USER
DOCKED: USER    Estimated Free Energy of Binding    =  -8.08 kcal/mol  [=(1)+(2)+(3)-(4)]
DOCKED: USER
DOCKED: USER    (1) Final Intermolecular Energy     =  -9.27 kcal/mol
DOCKED: USER        vdW + Hbond + desolv Energy     =  -9.19 kcal/mol
DOCKED: USER        Electrostatic Energy            =  -0.08 kcal/mol
DOCKED: USER        Moving Ligand-Fixed Receptor    =  -9.27 kcal/mol
DOCKED: USER        Moving Ligand-Moving Receptor   =  +0.00 kcal/mol
DOCKED: USER    (2) Final Total Internal Energy     =  -1.74 kcal/mol
DOCKED: USER    (3) Torsional Free Energy           =  +1.19 kcal/mol
DOCKED: USER    (4) Unbound System's Energy         =  -1.74 kcal/mol
DOCKED: USER
DOCKED: USER
DOCKED: REMARK SMILES O=S(=O)(Cc1ccccc1)N1C=Cc2ccccc2[C@H]1c1c[nH]c2ccccc12
DOCKED: REMARK SMILES IDX 11 1 12 2 13 3 14 4 15 5 16 6 17 7 18 8 19 9 20 10 2 11 1 12
DOCKED: REMARK SMILES IDX 3 13 4 14 5 15 6 16 10 17 7 18 9 19 8 20 21 21 22 22 29 23
DOCKED: REMARK SMILES IDX 23 24 28 25 24 26 27 27 25 28 26 29
DOCKED: REMARK H PARENT 23 30
DOCKED: USER                              x       y       z     vdW  Elec       q    Type
DOCKED: USER                           _______ _______ _______ _____ _____    ______ ____
DOCKED: ROOT
DOCKED: ATOM      1  N   UNL     1     141.442  77.169 220.269 -0.13 +0.13    -0.265 N  
DOCKED: ATOM      2  C   UNL     1     141.622  78.313 219.417 -0.23 -0.06    +0.099 C  
DOCKED: ATOM      3  C   UNL     1     141.829  79.526 219.921 -0.28 -0.02    +0.027 C  
DOCKED: ATOM      4  C   UNL     1     141.865  79.739 221.375 -0.40 +0.01    -0.019 A  
DOCKED: ATOM      5  C   UNL     1     142.156  81.012 221.886 -0.45 -0.00    +0.008 A  
DOCKED: ATOM      6  C   UNL     1     142.211  81.220 223.267 -0.60 -0.00    +0.001 A  
DOCKED: ATOM      7  C   UNL     1     141.977  80.159 224.143 -0.47 -0.00    +0.000 A  
DOCKED: ATOM      8  C   UNL     1     141.684  78.889 223.642 -0.61 -0.00    +0.007 A  
DOCKED: ATOM      9  C   UNL     1     141.618  78.668 222.255 -0.46 +0.01    -0.013 A  
DOCKED: ATOM     10  C   UNL     1     141.286  77.286 221.730 -0.15 -0.08    +0.162 C  
DOCKED: ENDROOT
DOCKED: BRANCH   1  11
DOCKED: ATOM     11  S   UNL     1     141.626  75.587 219.568 -0.18 -0.09    +0.239 S  
DOCKED: ATOM     12  O   UNL     1     141.665  74.546 220.650 -0.21 +0.05    -0.206 OA 
DOCKED: ATOM     13  O   UNL     1     140.463  75.292 218.662 -0.03 +0.06    -0.206 OA 
DOCKED: BRANCH  11  14
DOCKED: ATOM     14  C   UNL     1     143.144  75.529 218.631 -0.20 -0.09    +0.195 C  
DOCKED: BRANCH  14  15
DOCKED: ATOM     15  C   UNL     1     144.085  74.524 219.234 -0.29 +0.01    -0.031 A  
DOCKED: ATOM     16  C   UNL     1     144.286  73.279 218.615 -0.21 -0.00    +0.005 A  
DOCKED: ATOM     17  C   UNL     1     144.699  74.785 220.471 -0.41 -0.00    +0.005 A  
DOCKED: ATOM     18  C   UNL     1     145.095  72.313 219.220 -0.32 +0.00    +0.000 A  
DOCKED: ATOM     19  C   UNL     1     145.510  73.817 221.072 -0.63 -0.00    +0.000 A  
DOCKED: ATOM     20  C   UNL     1     145.708  72.582 220.447 -0.51 +0.00    +0.000 A  
DOCKED: ENDBRANCH  14  15
DOCKED: ENDBRANCH  11  14
DOCKED: ENDBRANCH   1  11
DOCKED: BRANCH  10  21
DOCKED: ATOM     21  C   UNL     1     139.892  76.884 222.141 -0.36 -0.00    +0.005 A  
DOCKED: ATOM     22  C   UNL     1     139.455  75.579 222.358 -0.27 -0.02    +0.089 A  
DOCKED: ATOM     23  C   UNL     1     138.794  77.690 222.396 -0.29 -0.00    +0.005 A  
DOCKED: ATOM     24  N   UNL     1     138.153  75.568 222.722 -0.07 +0.11    -0.361 N  
DOCKED: ATOM     25  C   UNL     1     138.628  79.075 222.359 -0.24 -0.00    +0.011 A  
DOCKED: ATOM     26  C   UNL     1     137.762  76.853 222.743 -0.27 -0.01    +0.046 A  
DOCKED: ATOM     27  C   UNL     1     137.362  79.596 222.683 -0.19 -0.00    +0.001 A  
DOCKED: ATOM     28  C   UNL     1     136.498  77.342 223.069 -0.18 -0.00    +0.026 A  
DOCKED: ATOM     29  C   UNL     1     136.302  78.733 223.036 -0.17 -0.00    +0.002 A  
DOCKED: ATOM     30  H   UNL     1     137.575  74.728 222.945 -0.40 -0.08    +0.166 HD 
DOCKED: ENDBRANCH  10  21
DOCKED: TORSDOF 4
DOCKED: TER
DOCKED: ENDMDL
________________________________________________________________________________


    FINAL DOCKED STATE:
    ________________________


Run:   20 / 20
Time taken for this run:   0.028s

DOCKED: MODEL        20
DOCKED: USER    Run = 20
DOCKED: USER
DOCKED: USER    Estimated Free Energy of Binding    =  -8.27 kcal/mol  [=(1)+(2)+(3)-(4)]
DOCKED: USER
DOCKED: USER    (1) Final Intermolecular Energy     =  -9.46 kcal/mol
DOCKED: USER        vdW + Hbond + desolv Energy     =  -9.45 kcal/mol
DOCKED: USER        Electrostatic Energy            =  -0.01 kcal/mol
DOCKED: USER        Moving Ligand-Fixed Receptor    =  -9.46 kcal/mol
DOCKED: USER        Moving Ligand-Moving Receptor   =  +0.00 kcal/mol
DOCKED: USER    (2) Final Total Internal Energy     =  -1.59 kcal/mol
DOCKED: USER    (3) Torsional Free Energy           =  +1.19 kcal/mol
DOCKED: USER    (4) Unbound System's Energy         =  -1.59 kcal/mol
DOCKED: USER
DOCKED: USER
DOCKED: REMARK SMILES O=S(=O)(Cc1ccccc1)N1C=Cc2ccccc2[C@H]1c1c[nH]c2ccccc12
DOCKED: REMARK SMILES IDX 11 1 12 2 13 3 14 4 15 5 16 6 17 7 18 8 19 9 20 10 2 11 1 12
DOCKED: REMARK SMILES IDX 3 13 4 14 5 15 6 16 10 17 7 18 9 19 8 20 21 21 22 22 29 23
DOCKED: REMARK SMILES IDX 23 24 28 25 24 26 27 27 25 28 26 29
DOCKED: REMARK H PARENT 23 30
DOCKED: USER                              x       y       z     vdW  Elec       q    Type
DOCKED: USER                           _______ _______ _______ _____ _____    ______ ____
DOCKED: ROOT
DOCKED: ATOM      1  N   UNL     1     141.656  77.461 220.070 -0.14 +0.14    -0.265 N  
DOCKED: ATOM      2  C   UNL     1     141.694  78.603 219.198 -0.23 -0.06    +0.099 C  
DOCKED: ATOM      3  C   UNL     1     141.724  79.842 219.681 -0.29 -0.01    +0.027 C  
DOCKED: ATOM      4  C   UNL     1     141.704  80.085 221.130 -0.37 +0.01    -0.019 A  
DOCKED: ATOM      5  C   UNL     1     141.810  81.395 221.620 -0.42 -0.00    +0.008 A  
DOCKED: ATOM      6  C   UNL     1     141.811  81.632 222.996 -0.52 -0.00    +0.001 A  
DOCKED: ATOM      7  C   UNL     1     141.707  80.565 223.891 -0.55 -0.00    +0.000 A  
DOCKED: ATOM      8  C   UNL     1     141.599  79.258 223.411 -0.59 -0.00    +0.007 A  
DOCKED: ATOM      9  C   UNL     1     141.590  79.006 222.028 -0.44 +0.01    -0.013 A  
DOCKED: ATOM     10  C   UNL     1     141.459  77.582 221.526 -0.18 -0.09    +0.162 C  
DOCKED: ENDROOT
DOCKED: BRANCH   1  11
DOCKED: ATOM     11  S   UNL     1     142.067  75.907 219.404 -0.23 -0.11    +0.239 S  
DOCKED: ATOM     12  O   UNL     1     140.935  75.392 218.561 -0.04 +0.06    -0.206 OA 
DOCKED: ATOM     13  O   UNL     1     143.291  76.029 218.540 -0.24 +0.12    -0.206 OA 
DOCKED: BRANCH  11  14
DOCKED: ATOM     14  C   UNL     1     142.386  74.761 220.735 -0.18 -0.07    +0.195 C  
DOCKED: BRANCH  14  15
DOCKED: ATOM     15  C   UNL     1     143.629  73.967 220.446 -0.37 +0.01    -0.031 A  
DOCKED: ATOM     16  C   UNL     1     143.534  72.641 219.992 -0.27 -0.00    +0.005 A  
DOCKED: ATOM     17  C   UNL     1     144.895  74.513 220.716 -0.41 -0.00    +0.005 A  
DOCKED: ATOM     18  C   UNL     1     144.690  71.876 219.804 -0.33 +0.00    +0.000 A  
DOCKED: ATOM     19  C   UNL     1     146.048  73.746 220.524 -0.66 -0.00    +0.000 A  
DOCKED: ATOM     20  C   UNL     1     145.946  72.428 220.068 -0.47 +0.00    +0.000 A  
DOCKED: ENDBRANCH  14  15
DOCKED: ENDBRANCH  11  14
DOCKED: ENDBRANCH   1  11
DOCKED: BRANCH  10  21
DOCKED: ATOM     21  C   UNL     1     140.126  77.001 221.923 -0.35 -0.00    +0.005 A  
DOCKED: ATOM     22  C   UNL     1     139.869  75.654 222.168 -0.28 -0.01    +0.089 A  
DOCKED: ATOM     23  C   UNL     1     138.922  77.653 222.136 -0.27 -0.00    +0.005 A  
DOCKED: ATOM     24  N   UNL     1     138.574  75.471 222.509 -0.09 +0.10    -0.361 N  
DOCKED: ATOM     25  C   UNL     1     138.566  79.000 222.059 -0.20 -0.00    +0.011 A  
DOCKED: ATOM     26  C   UNL     1     138.008  76.689 222.488 -0.27 -0.01    +0.046 A  
DOCKED: ATOM     27  C   UNL     1     137.234  79.348 222.346 -0.16 -0.00    +0.001 A  
DOCKED: ATOM     28  C   UNL     1     136.682  77.006 222.778 -0.22 -0.00    +0.026 A  
DOCKED: ATOM     29  C   UNL     1     136.296  78.356 222.703 -0.17 -0.00    +0.002 A  
DOCKED: ATOM     30  H   UNL     1     138.112  74.565 222.745 -0.51 -0.08    +0.166 HD 
DOCKED: ENDBRANCH  10  21
DOCKED: TORSDOF 4
DOCKED: TER
DOCKED: ENDMDL
________________________________________________________________________________


    CLUSTERING HISTOGRAM
    ____________________


________________________________________________________________________________
     |           |     |           |     |
Clus | Lowest    | Run | Mean      | Num | Histogram
-ter | Binding   |     | Binding   | in  |
Rank | Energy    |     | Energy    | Clus|    5    10   15   20   25   30   35
_____|___________|_____|___________|_____|____:____|____:____|____:____|____:___
   1 |     -8.27 |  20 |     -7.89 |  15 |###############
   2 |     -7.12 |  12 |     -7.11 |   4 |####
   3 |     -6.84 |  16 |     -6.84 |   1 |#
_____|___________|_____|___________|_____|______________________________________


    RMSD TABLE
    __________


_______________________________________________________________________
     |      |      |           |         |                 |
Rank | Sub- | Run  | Binding   | Cluster | Reference       | Grep
     | Rank |      | Energy    | RMSD    | RMSD            | Pattern
_____|______|______|___________|_________|_________________|___________
   1      1     20       -8.27      0.00    272.21           RANKING
   1      2     13       -8.20      0.06    272.20           RANKING
   1      3     18       -8.18      0.34    272.22           RANKING
   1      4     19       -8.08      0.87    272.24           RANKING
   1      5      3       -7.85      1.02    272.10           RANKING
   1      6     11       -7.85      1.03    272.11           RANKING
   1      7     15       -7.83      1.04    272.10           RANKING
   1      8     14       -7.81      1.03    272.10           RANKING
   1      9      6       -7.80      1.20    272.06           RANKING
   1     10      4       -7.79      1.21    272.07           RANKING
   1     11      2       -7.79      1.20    272.04           RANKING
   1     12      9       -7.78      1.06    272.10           RANKING
   1     13     17       -7.78      1.21    272.06           RANKING
   1     14     10       -7.70      1.18    272.08           RANKING
   1     15      7       -7.62      1.35    272.07           RANKING
   2      1     12       -7.12      0.00    272.54           RANKING
   2      2      5       -7.12      0.04    272.53           RANKING
   2      3      1       -7.11      0.04    272.53           RANKING
   2      4      8       -7.09      0.09    272.54           RANKING
   3      1     16       -6.84      0.00    272.14           RANKING

Run time 0.538 sec
Idle time 0.000 sec
