REMARK SMILES O=C(CCCOc1ccc(Cl)cc1Cl)[N-]/N=C/c1cccnc1F
REMARK SMILES IDX 2 1 1 2 15 3 16 4 17 5 18 6 23 7 19 8 22 9 20 10 21 11 24 12
REMARK SMILES IDX 3 13 4 14 5 15 6 16 7 17 8 18 13 19 9 20 12 21 10 22 14 23
REMARK SMILES IDX 11 24
REMARK H PARENT
ROOT
ATOM      1  C   UNL     1      -0.285   2.087  -2.709  1.00  0.00     0.068 C 
ATOM      2  O   UNL     1       0.912   2.458  -2.835  1.00  0.00    -0.319 OA
ENDROOT
BRANCH   1   3
ATOM      3  N   UNL     1      -0.634   0.701  -2.813  1.00  0.00    -0.545 NA
BRANCH   3   4
ATOM      4  N   UNL     1       0.134  -0.368  -2.315  1.00  0.00    -0.372 NA
BRANCH   4   5
ATOM      5  C   UNL     1       1.093  -0.231  -1.447  1.00  0.00     0.099 C 
BRANCH   5   6
ATOM      6  C   UNL     1       1.794  -1.408  -0.894  1.00  0.00     0.046 A 
ATOM      7  C   UNL     1       2.783  -1.240   0.092  1.00  0.00     0.221 A 
ATOM      8  C   UNL     1       1.480  -2.714  -1.313  1.00  0.00     0.016 A 
ATOM      9  N   UNL     1       3.431  -2.323   0.601  1.00  0.00    -0.228 NA
ATOM     10  C   UNL     1       2.159  -3.806  -0.768  1.00  0.00     0.021 A 
ATOM     11  C   UNL     1       3.145  -3.589   0.195  1.00  0.00     0.114 A 
ATOM     12  F   UNL     1       3.111  -0.002   0.542  1.00  0.00    -0.184 F 
ENDBRANCH   5   6
ENDBRANCH   4   5
ENDBRANCH   3   4
ENDBRANCH   1   3
BRANCH   1  13
ATOM     13  C   UNL     1      -1.367   3.100  -2.459  1.00  0.00     0.060 C 
BRANCH  13  14
ATOM     14  C   UNL     1      -1.199   3.840  -1.114  1.00  0.00     0.048 C 
BRANCH  14  15
ATOM     15  C   UNL     1      -0.837   2.926   0.065  1.00  0.00     0.230 C 
BRANCH  15  16
ATOM     16  O   UNL     1      -1.671   1.769   0.072  1.00  0.00    -0.492 OA
BRANCH  16  17
ATOM     17  C   UNL     1      -1.362   0.573   0.740  1.00  0.00     0.137 A 
ATOM     18  C   UNL     1      -0.301   0.482   1.664  1.00  0.00     0.049 A 
ATOM     19  C   UNL     1      -2.113  -0.575   0.447  1.00  0.00     0.084 A 
ATOM     20  C   UNL     1       0.016  -0.744   2.254  1.00  0.00     0.024 A 
ATOM     21  C   UNL     1      -1.794  -1.801   1.043  1.00  0.00     0.045 A 
ATOM     22  C   UNL     1      -0.728  -1.886   1.941  1.00  0.00     0.042 A 
ATOM     23  Cl  UNL     1      -3.428  -0.507  -0.716  1.00  0.00    -0.080 Cl
ATOM     24  Cl  UNL     1      -0.297  -3.429   2.653  1.00  0.00    -0.084 Cl
ENDBRANCH  16  17
ENDBRANCH  15  16
ENDBRANCH  14  15
ENDBRANCH  13  14
ENDBRANCH   1  13
TORSDOF 9
