REMARK SMILES NC(=O)c1ccc2cc(C(=O)N3C[C@]4(CCN([C@H]5CCNC5)C4)c4ccccc43)[nH]c2c1
REMARK SMILES IDX 10 1 11 2 9 3 4 4 5 5 32 6 6 7 31 8 7 9 30 10 8 11 2 13 1 14
REMARK SMILES IDX 3 17 12 18 13 19 29 20 14 21 28 22 24 23 15 24 23 25 27 26
REMARK SMILES IDX 25 27 16 28 17 29 26 30 18 31 19 32 22 33 20 34 21 35
REMARK H PARENT 30 12 1 15 1 16 21 36
ROOT
ATOM      1  C   UNL     1       1.770   0.680   3.288  1.00  0.00     0.274 C 
ATOM      2  O   UNL     1       2.636   1.340   3.921  1.00  0.00    -0.267 OA
ENDROOT
BRANCH   1   3
ATOM      3  C   UNL     1       1.561  -0.742   3.616  1.00  0.00     0.106 A 
ATOM      4  C   UNL     1       1.472  -4.940   5.290  1.00  0.00     0.041 A 
ATOM      5  C   UNL     1       0.775  -5.177   4.073  1.00  0.00     0.014 A 
ATOM      6  C   UNL     1       1.936  -3.632   5.577  1.00  0.00     0.040 A 
ATOM      7  C   UNL     1       0.527  -4.129   3.168  1.00  0.00     0.011 A 
ATOM      8  C   UNL     1       1.673  -2.619   4.657  1.00  0.00     0.047 A 
ATOM      9  C   UNL     1       0.991  -2.861   3.496  1.00  0.00     0.000 A 
ATOM     10  N   UNL     1       2.033  -1.328   4.741  1.00  0.00    -0.350 N 
ATOM     11  C   UNL     1       0.910  -1.672   2.805  1.00  0.00     0.042 A 
ATOM     12  H   UNL     1       2.564  -0.874   5.518  1.00  0.00     0.167 HD
BRANCH   4  13
ATOM     13  C   UNL     1       1.750  -6.042   6.244  1.00  0.00     0.248 C 
ATOM     14  N   UNL     1       0.991  -7.255   6.234  1.00  0.00    -0.366 N 
ATOM     15  H   UNL     1       1.257  -8.038   6.870  1.00  0.00     0.159 HD
ATOM     16  H   UNL     1       0.123  -7.359   5.663  1.00  0.00     0.159 HD
ATOM     17  O   UNL     1       2.669  -5.909   7.097  1.00  0.00    -0.270 OA
ENDBRANCH   4  13
ENDBRANCH   1   3
BRANCH   1  18
ATOM     18  N   UNL     1       1.043   1.312   2.224  1.00  0.00    -0.306 N 
ATOM     19  C   UNL     1       1.659   2.161   1.208  1.00  0.00     0.139 C 
ATOM     20  C   UNL     1      -0.363   1.308   2.037  1.00  0.00     0.048 A 
ATOM     21  C   UNL     1       0.507   2.540   0.212  1.00  0.00     0.029 C 
ATOM     22  C   UNL     1      -1.327   0.749   2.885  1.00  0.00     0.026 A 
ATOM     23  C   UNL     1      -0.718   2.001   0.910  1.00  0.00    -0.015 A 
ATOM     24  C   UNL     1       0.413   4.047  -0.038  1.00  0.00     0.030 C 
ATOM     25  C   UNL     1       0.670   1.913  -1.192  1.00  0.00     0.098 C 
ATOM     26  C   UNL     1      -2.679   0.868   2.530  1.00  0.00     0.002 A 
ATOM     27  C   UNL     1      -2.062   2.122   0.535  1.00  0.00     0.006 A 
ATOM     28  C   UNL     1       0.072   4.166  -1.509  1.00  0.00     0.086 C 
ATOM     29  N   UNL     1       0.677   3.008  -2.179  1.00  0.00    -0.298 NA
ATOM     30  C   UNL     1      -3.045   1.547   1.354  1.00  0.00     0.000 A 
BRANCH  29  31
ATOM     31  C   UNL     1      -0.039   2.651  -3.427  1.00  0.00     0.071 C 
ATOM     32  C   UNL     1       0.024   3.761  -4.459  1.00  0.00     0.036 C 
ATOM     33  C   UNL     1       0.626   1.487  -4.154  1.00  0.00     0.100 C 
ATOM     34  C   UNL     1      -0.035   3.040  -5.795  1.00  0.00     0.082 C 
ATOM     35  N   UNL     1       0.359   1.644  -5.584  1.00  0.00    -0.315 NA
ATOM     36  H   UNL     1      -0.455   1.032  -5.832  1.00  0.00     0.122 HD
ENDBRANCH  29  31
ENDBRANCH   1  18
TORSDOF 4
