REMARK SMILES CCN[C@H]1CN(c2nc(N3CCc4ccccc4C3)nc(N3CCc4ccccc4C3)n2)CCO1
REMARK SMILES IDX 4 1 5 2 6 3 33 4 34 5 35 6 3 7 2 9 1 10 7 11 8 12 32 13 9 14
REMARK SMILES IDX 21 15 20 16 10 17 11 18 19 19 12 20 18 21 13 22 17 23 14 24
REMARK SMILES IDX 16 25 15 26 22 27 23 28 31 29 24 30 30 31 25 32 29 33 26 34
REMARK SMILES IDX 28 35 27 36
REMARK H PARENT 3 8
ROOT
ATOM      1  C   UNL     1      -1.865   2.549   2.612  1.00  0.00     0.205 C 
ATOM      2  C   UNL     1      -1.681   2.427   1.072  1.00  0.00     0.168 C 
ATOM      3  N   UNL     1      -2.125   1.109   0.597  1.00  0.00    -0.334 N 
ATOM      4  C   UNL     1      -3.395   0.570   1.097  1.00  0.00     0.148 C 
ATOM      5  C   UNL     1      -3.849   1.347   2.334  1.00  0.00     0.184 C 
ATOM      6  O   UNL     1      -2.737   1.573   3.175  1.00  0.00    -0.360 OA
ENDROOT
BRANCH   1   7
ATOM      7  N   UNL     1      -0.556   2.506   3.288  1.00  0.00    -0.291 NA
ATOM      8  H   UNL     1      -0.692   2.827   4.275  1.00  0.00     0.125 HD
BRANCH   7   9
ATOM      9  C   UNL     1       0.018   1.152   3.327  1.00  0.00     0.080 C 
ATOM     10  C   UNL     1       1.485   1.225   3.728  1.00  0.00     0.020 C 
ENDBRANCH   7   9
ENDBRANCH   1   7
BRANCH   3  11
ATOM     11  C   UNL     1      -1.365   0.368  -0.379  1.00  0.00     0.232 A 
ATOM     12  N   UNL     1      -1.896  -0.735  -0.968  1.00  0.00    -0.176 NA
ATOM     13  N   UNL     1      -0.093   0.733  -0.680  1.00  0.00    -0.176 NA
ATOM     14  C   UNL     1      -1.170  -1.465  -1.856  1.00  0.00     0.232 A 
ATOM     15  C   UNL     1       0.651   0.013  -1.558  1.00  0.00     0.232 A 
ATOM     16  N   UNL     1       0.104  -1.085  -2.142  1.00  0.00    -0.176 NA
BRANCH  14  17
ATOM     17  N   UNL     1      -1.735  -2.641  -2.470  1.00  0.00    -0.336 N 
ATOM     18  C   UNL     1      -0.976  -3.332  -3.530  1.00  0.00     0.125 C 
ATOM     19  C   UNL     1      -3.022  -3.160  -1.965  1.00  0.00     0.155 C 
ATOM     20  C   UNL     1      -1.888  -4.156  -4.438  1.00  0.00     0.057 C 
ATOM     21  C   UNL     1      -3.301  -4.574  -2.413  1.00  0.00    -0.025 A 
ATOM     22  C   UNL     1      -2.755  -5.058  -3.615  1.00  0.00    -0.041 A 
ATOM     23  C   UNL     1      -4.161  -5.394  -1.665  1.00  0.00     0.006 A 
ATOM     24  C   UNL     1      -3.067  -6.354  -4.055  1.00  0.00     0.004 A 
ATOM     25  C   UNL     1      -4.455  -6.690  -2.100  1.00  0.00     0.000 A 
ATOM     26  C   UNL     1      -3.909  -7.169  -3.293  1.00  0.00     0.000 A 
ENDBRANCH  14  17
BRANCH  15  27
ATOM     27  N   UNL     1       2.017   0.387  -1.839  1.00  0.00    -0.336 N 
ATOM     28  C   UNL     1       2.890  -0.494  -2.618  1.00  0.00     0.125 C 
ATOM     29  C   UNL     1       2.715   1.385  -1.020  1.00  0.00     0.155 C 
ATOM     30  C   UNL     1       3.693  -1.370  -1.653  1.00  0.00     0.057 C 
ATOM     31  C   UNL     1       3.743   0.704  -0.149  1.00  0.00    -0.025 A 
ATOM     32  C   UNL     1       4.251  -0.576  -0.488  1.00  0.00    -0.041 A 
ATOM     33  C   UNL     1       4.263   1.383   0.964  1.00  0.00     0.006 A 
ATOM     34  C   UNL     1       5.231  -1.164   0.327  1.00  0.00     0.004 A 
ATOM     35  C   UNL     1       5.244   0.788   1.759  1.00  0.00     0.000 A 
ATOM     36  C   UNL     1       5.726  -0.484   1.443  1.00  0.00     0.000 A 
ENDBRANCH  15  27
ENDBRANCH   3  11
TORSDOF 5
