REMARK SMILES [H]/N=c1\[n-]c2nc3ccccn3c(=O)c2cc1C(=O)N[C@@H](C)c1ccccc1
REMARK SMILES IDX 3 1 4 2 5 3 6 4 7 5 8 6 9 7 10 8 11 9 12 10 13 11 14 12
REMARK SMILES IDX 15 13 16 14 17 15 2 16 1 17 18 18 20 19 19 20 21 22 22 23
REMARK SMILES IDX 23 24 24 25 28 26 25 27 27 28 26 29
REMARK H PARENT 20 21
ROOT
ATOM      1  C   UNL     1       0.531  -0.810  -1.757  1.00  0.00     0.015 A 
ATOM      2  N   UNL     1       1.802  -1.197  -1.457  1.00  0.00    -0.357 NA
ATOM      3  C   UNL     1       2.506  -0.643  -0.438  1.00  0.00     0.025 A 
ATOM      4  N   UNL     1       3.766  -1.066  -0.182  1.00  0.00    -0.345 NA
ATOM      5  C   UNL     1       4.499  -0.537   0.831  1.00  0.00     0.069 A 
ATOM      6  C   UNL     1       5.796  -1.012   1.050  1.00  0.00     0.030 A 
ATOM      7  C   UNL     1       6.558  -0.478   2.086  1.00  0.00     0.004 A 
ATOM      8  C   UNL     1       6.023   0.521   2.892  1.00  0.00     0.019 A 
ATOM      9  C   UNL     1       4.725   0.979   2.653  1.00  0.00     0.095 A 
ATOM     10  N   UNL     1       3.970   0.455   1.632  1.00  0.00    -0.281 N 
ATOM     11  C   UNL     1       2.693   0.909   1.400  1.00  0.00     0.263 A 
ATOM     12  O   UNL     1       2.195   1.817   2.125  1.00  0.00    -0.268 OA
ATOM     13  C   UNL     1       1.932   0.364   0.350  1.00  0.00     0.054 A 
ATOM     14  C   UNL     1       0.623   0.783   0.065  1.00  0.00     0.029 A 
ATOM     15  C   UNL     1      -0.094   0.204  -0.996  1.00  0.00     0.052 A 
ENDROOT
BRANCH   1  16
ATOM     16  N   UNL     1      -0.082  -1.367  -2.753  1.00  0.00    -0.412 NA
ATOM     17  H   UNL     1       0.371  -2.112  -3.329  1.00  0.00     0.076 HD
ENDBRANCH   1  16
BRANCH  15  18
ATOM     18  C   UNL     1      -1.484   0.648  -1.274  1.00  0.00     0.252 C 
ATOM     19  N   UNL     1      -1.868   2.020  -1.067  1.00  0.00    -0.345 N 
ATOM     20  O   UNL     1      -2.331  -0.189  -1.689  1.00  0.00    -0.269 OA
ATOM     21  H   UNL     1      -1.122   2.724  -0.866  1.00  0.00     0.164 HD
BRANCH  19  22
ATOM     22  C   UNL     1      -3.252   2.505  -1.110  1.00  0.00     0.109 C 
ATOM     23  C   UNL     1      -3.794   2.490  -2.546  1.00  0.00     0.036 C 
BRANCH  22  24
ATOM     24  C   UNL     1      -4.110   1.771  -0.091  1.00  0.00    -0.026 A 
ATOM     25  C   UNL     1      -3.967   2.101   1.269  1.00  0.00     0.006 A 
ATOM     26  C   UNL     1      -4.997   0.732  -0.446  1.00  0.00     0.006 A 
ATOM     27  C   UNL     1      -4.707   1.430   2.247  1.00  0.00     0.000 A 
ATOM     28  C   UNL     1      -5.734   0.064   0.536  1.00  0.00     0.000 A 
ATOM     29  C   UNL     1      -5.592   0.414   1.880  1.00  0.00     0.000 A 
ENDBRANCH  22  24
ENDBRANCH  19  22
ENDBRANCH  15  18
TORSDOF 4
