REMARK SMILES [H]/N=c1/[n-]c2nc3ccccn3c(=O)c2cc1C(=O)N[C@@H](C)c1ccccc1
REMARK SMILES IDX 3 1 4 2 5 3 6 4 7 5 8 6 9 7 10 8 11 9 12 10 13 11 14 12
REMARK SMILES IDX 15 13 16 14 17 15 2 16 1 17 18 18 20 19 19 20 21 22 22 23
REMARK SMILES IDX 23 24 24 25 28 26 25 27 27 28 26 29
REMARK H PARENT 20 21
ROOT
ATOM      1  C   UNL     1       1.090  -1.883  -1.509  1.00  0.00     0.015 A 
ATOM      2  N   UNL     1       0.023  -2.693  -1.738  1.00  0.00    -0.357 NA
ATOM      3  C   UNL     1      -1.227  -2.396  -1.299  1.00  0.00     0.025 A 
ATOM      4  N   UNL     1      -2.250  -3.243  -1.559  1.00  0.00    -0.345 NA
ATOM      5  C   UNL     1      -3.514  -2.976  -1.140  1.00  0.00     0.069 A 
ATOM      6  C   UNL     1      -4.534  -3.886  -1.435  1.00  0.00     0.030 A 
ATOM      7  C   UNL     1      -5.834  -3.624  -1.012  1.00  0.00     0.004 A 
ATOM      8  C   UNL     1      -6.106  -2.460  -0.300  1.00  0.00     0.019 A 
ATOM      9  C   UNL     1      -5.071  -1.567  -0.017  1.00  0.00     0.095 A 
ATOM     10  N   UNL     1      -3.787  -1.822  -0.433  1.00  0.00    -0.281 N 
ATOM     11  C   UNL     1      -2.771  -0.939  -0.153  1.00  0.00     0.263 A 
ATOM     12  O   UNL     1      -3.004   0.122   0.493  1.00  0.00    -0.268 OA
ATOM     13  C   UNL     1      -1.461  -1.214  -0.586  1.00  0.00     0.054 A 
ATOM     14  C   UNL     1      -0.380  -0.357  -0.326  1.00  0.00     0.029 A 
ATOM     15  C   UNL     1       0.911  -0.683  -0.771  1.00  0.00     0.052 A 
ENDROOT
BRANCH   1  16
ATOM     16  N   UNL     1       2.237  -2.222  -2.013  1.00  0.00    -0.412 NA
ATOM     17  H   UNL     1       3.111  -1.660  -1.933  1.00  0.00     0.076 HD
ENDBRANCH   1  16
BRANCH  15  18
ATOM     18  C   UNL     1       2.029   0.222  -0.422  1.00  0.00     0.252 C 
ATOM     19  N   UNL     1       1.884   1.643  -0.578  1.00  0.00    -0.345 N 
ATOM     20  O   UNL     1       3.096  -0.256   0.052  1.00  0.00    -0.269 OA
ATOM     21  H   UNL     1       1.015   2.002  -1.035  1.00  0.00     0.164 HD
BRANCH  19  22
ATOM     22  C   UNL     1       2.952   2.584  -0.222  1.00  0.00     0.109 C 
ATOM     23  C   UNL     1       4.009   2.629  -1.330  1.00  0.00     0.036 C 
BRANCH  22  24
ATOM     24  C   UNL     1       2.380   3.963   0.045  1.00  0.00    -0.026 A 
ATOM     25  C   UNL     1       2.520   4.552   1.316  1.00  0.00     0.006 A 
ATOM     26  C   UNL     1       1.700   4.674  -0.963  1.00  0.00     0.006 A 
ATOM     27  C   UNL     1       1.994   5.822   1.570  1.00  0.00     0.000 A 
ATOM     28  C   UNL     1       1.176   5.944  -0.704  1.00  0.00     0.000 A 
ATOM     29  C   UNL     1       1.323   6.518   0.561  1.00  0.00     0.000 A 
ENDBRANCH  22  24
ENDBRANCH  19  22
ENDBRANCH  15  18
TORSDOF 4
