REMARK SMILES O/C(=C\CCOc1ccc(Cl)cc1Cl)[N-]/N=C/c1cccc(C(F)(F)F)c1
REMARK SMILES IDX 2 1 1 2 15 4 16 5 17 6 18 7 19 8 27 9 20 10 22 11 21 12
REMARK SMILES IDX 23 13 24 14 25 15 26 16 3 17 4 18 5 19 6 20 7 21 8 22 13 23
REMARK SMILES IDX 9 24 12 25 10 26 14 27 11 28
REMARK H PARENT 1 3
ROOT
ATOM      1  C   UNL     1      -3.971  -0.599   0.974  1.00  0.00     0.023 C 
ENDROOT
BRANCH   1   2
ATOM      2  O   UNL     1      -5.119  -1.062   1.621  1.00  0.00    -0.530 OA
ATOM      3  H   UNL     1      -5.488  -0.651   2.470  1.00  0.00     0.290 HD
ENDBRANCH   1   2
BRANCH   1   4
ATOM      4  N   UNL     1      -3.571  -1.267  -0.229  1.00  0.00    -0.546 NA
BRANCH   4   5
ATOM      5  N   UNL     1      -2.421  -0.907  -0.944  1.00  0.00    -0.372 NA
BRANCH   5   6
ATOM      6  C   UNL     1      -2.058  -1.564  -1.997  1.00  0.00     0.094 C 
BRANCH   6   7
ATOM      7  C   UNL     1      -0.837  -1.192  -2.742  1.00  0.00    -0.009 A 
ATOM      8  C   UNL     1      -0.052  -0.093  -2.351  1.00  0.00     0.009 A 
ATOM      9  C   UNL     1      -0.451  -1.949  -3.859  1.00  0.00     0.022 A 
ATOM     10  C   UNL     1       1.111   0.228  -3.054  1.00  0.00     0.001 A 
ATOM     11  C   UNL     1       0.707  -1.617  -4.586  1.00  0.00     0.056 A 
ATOM     12  C   UNL     1       1.496  -0.534  -4.159  1.00  0.00     0.013 A 
BRANCH  11  13
ATOM     13  C   UNL     1       1.130  -2.471  -5.755  1.00  0.00     0.416 C 
ATOM     14  F   UNL     1       1.995  -1.782  -6.588  1.00  0.00    -0.166 F 
ATOM     15  F   UNL     1       1.768  -3.605  -5.284  1.00  0.00    -0.166 F 
ATOM     16  F   UNL     1       0.024  -2.850  -6.497  1.00  0.00    -0.166 F 
ENDBRANCH  11  13
ENDBRANCH   6   7
ENDBRANCH   5   6
ENDBRANCH   4   5
ENDBRANCH   1   4
BRANCH   1  17
ATOM     17  C   UNL     1      -3.253   0.431   1.459  1.00  0.00    -0.001 C 
BRANCH  17  18
ATOM     18  C   UNL     1      -3.598   1.135   2.744  1.00  0.00     0.071 C 
BRANCH  18  19
ATOM     19  C   UNL     1      -2.563   2.199   3.126  1.00  0.00     0.234 C 
BRANCH  19  20
ATOM     20  O   UNL     1      -1.338   1.588   3.542  1.00  0.00    -0.492 OA
BRANCH  20  21
ATOM     21  C   UNL     1      -0.271   1.229   2.703  1.00  0.00     0.137 A 
ATOM     22  C   UNL     1       0.038   1.945   1.529  1.00  0.00     0.049 A 
ATOM     23  C   UNL     1       0.530   0.133   3.064  1.00  0.00     0.084 A 
ATOM     24  C   UNL     1       1.112   1.552   0.725  1.00  0.00     0.024 A 
ATOM     25  C   UNL     1       1.597  -0.262   2.250  1.00  0.00     0.045 A 
ATOM     26  C   UNL     1       1.885   0.443   1.077  1.00  0.00     0.042 A 
ATOM     27  Cl  UNL     1       0.182  -0.780   4.524  1.00  0.00    -0.080 Cl
ATOM     28  Cl  UNL     1       3.219  -0.059   0.053  1.00  0.00    -0.084 Cl
ENDBRANCH  20  21
ENDBRANCH  19  20
ENDBRANCH  18  19
ENDBRANCH  17  18
ENDBRANCH   1  17
TORSDOF 11
