REMARK SMILES O/C(=C\CCOc1ccc(Cl)cc1Cl)[N-]/N=C\c1cccc(C(F)(F)F)c1
REMARK SMILES IDX 2 1 1 2 15 4 16 5 17 6 18 7 19 8 27 9 20 10 22 11 21 12
REMARK SMILES IDX 23 13 24 14 25 15 26 16 3 17 4 18 5 19 6 20 7 21 8 22 13 23
REMARK SMILES IDX 9 24 12 25 10 26 14 27 11 28
REMARK H PARENT 1 3
ROOT
ATOM      1  C   UNL     1       0.932  -0.838  -2.483  1.00  0.00     0.023 C 
ENDROOT
BRANCH   1   2
ATOM      2  O   UNL     1       0.495  -2.015  -3.083  1.00  0.00    -0.530 OA
ATOM      3  H   UNL     1      -0.468  -2.318  -2.991  1.00  0.00     0.290 HD
ENDBRANCH   1   2
BRANCH   1   4
ATOM      4  N   UNL     1      -0.003  -0.061  -1.724  1.00  0.00    -0.546 NA
BRANCH   4   5
ATOM      5  N   UNL     1       0.381   1.076  -0.996  1.00  0.00    -0.372 NA
BRANCH   5   6
ATOM      6  C   UNL     1      -0.419   1.712  -0.195  1.00  0.00     0.094 C 
BRANCH   6   7
ATOM      7  C   UNL     1      -1.810   1.290   0.087  1.00  0.00    -0.009 A 
ATOM      8  C   UNL     1      -2.147  -0.060   0.291  1.00  0.00     0.009 A 
ATOM      9  C   UNL     1      -2.799   2.273   0.243  1.00  0.00     0.022 A 
ATOM     10  C   UNL     1      -3.458  -0.418   0.608  1.00  0.00     0.001 A 
ATOM     11  C   UNL     1      -4.129   1.917   0.535  1.00  0.00     0.056 A 
ATOM     12  C   UNL     1      -4.444   0.562   0.734  1.00  0.00     0.013 A 
BRANCH  11  13
ATOM     13  C   UNL     1      -5.177   2.982   0.735  1.00  0.00     0.416 C 
ATOM     14  F   UNL     1      -6.433   2.500   0.410  1.00  0.00    -0.166 F 
ATOM     15  F   UNL     1      -5.176   3.379   2.059  1.00  0.00    -0.166 F 
ATOM     16  F   UNL     1      -4.916   4.081  -0.065  1.00  0.00    -0.166 F 
ENDBRANCH  11  13
ENDBRANCH   6   7
ENDBRANCH   5   6
ENDBRANCH   4   5
ENDBRANCH   1   4
BRANCH   1  17
ATOM     17  C   UNL     1       2.214  -0.464  -2.592  1.00  0.00    -0.001 C 
BRANCH  17  18
ATOM     18  C   UNL     1       3.260  -1.327  -3.241  1.00  0.00     0.071 C 
BRANCH  18  19
ATOM     19  C   UNL     1       3.635  -2.536  -2.371  1.00  0.00     0.234 C 
BRANCH  19  20
ATOM     20  O   UNL     1       4.101  -2.118  -1.083  1.00  0.00    -0.492 OA
BRANCH  20  21
ATOM     21  C   UNL     1       3.270  -1.741  -0.015  1.00  0.00     0.137 A 
ATOM     22  C   UNL     1       2.032  -2.368   0.223  1.00  0.00     0.049 A 
ATOM     23  C   UNL     1       3.685  -0.702   0.834  1.00  0.00     0.084 A 
ATOM     24  C   UNL     1       1.206  -1.927   1.260  1.00  0.00     0.024 A 
ATOM     25  C   UNL     1       2.850  -0.259   1.866  1.00  0.00     0.045 A 
ATOM     26  C   UNL     1       1.606  -0.863   2.072  1.00  0.00     0.042 A 
ATOM     27  Cl  UNL     1       5.229   0.095   0.576  1.00  0.00    -0.080 Cl
ATOM     28  Cl  UNL     1       0.548  -0.287   3.347  1.00  0.00    -0.084 Cl
ENDBRANCH  20  21
ENDBRANCH  19  20
ENDBRANCH  18  19
ENDBRANCH  17  18
ENDBRANCH   1  17
TORSDOF 11
