REMARK SMILES COc1ccc([C@H](C)[N-]C(=O)[C@@H]2C[C@@H](O)CN2C(=O)CNC(=O)c2ccc3cc(F)ccc3n2)c(Cl)c1
REMARK SMILES IDX 12 1 13 2 14 3 16 4 17 5 10 6 11 7 9 8 7 9 8 10 6 11 3 12
REMARK SMILES IDX 4 13 37 14 5 15 35 16 36 17 2 18 1 19 18 20 19 21 20 22
REMARK SMILES IDX 21 23 22 24 23 26 24 27 25 28 34 29 26 30 33 31 27 32 32 33
REMARK SMILES IDX 28 34 31 35 29 36 30 37 15 38
REMARK H PARENT 21 25 15 39
ROOT
ATOM      1  C   UNL     1       2.476  -0.322   0.441  1.00  0.00     0.136 C 
ATOM      2  C   UNL     1       3.374   0.915   0.361  1.00  0.00     0.065 C 
ATOM      3  C   UNL     1       3.859   0.993  -1.091  1.00  0.00     0.136 C 
ATOM      4  C   UNL     1       2.858   0.172  -1.901  1.00  0.00     0.152 C 
ATOM      5  N   UNL     1       2.182  -0.684  -0.940  1.00  0.00    -0.330 N 
ENDROOT
BRANCH   1   6
ATOM      6  C   UNL     1       1.210  -0.031   1.202  1.00  0.00     0.075 C 
ATOM      7  O   UNL     1       0.299   0.656   0.662  1.00  0.00    -0.318 OA
BRANCH   6   8
ATOM      8  N   UNL     1       1.082  -0.503   2.550  1.00  0.00    -0.645 NA
BRANCH   8   9
ATOM      9  C   UNL     1      -0.094  -0.449   3.426  1.00  0.00    -0.077 C 
ATOM     10  C   UNL     1      -0.842   0.888   3.344  1.00  0.00    -0.008 C 
BRANCH   9  11
ATOM     11  C   UNL     1      -1.022  -1.633   3.172  1.00  0.00    -0.044 A 
ATOM     12  C   UNL     1      -2.780  -3.788   2.652  1.00  0.00     0.120 A 
ATOM     13  C   UNL     1      -2.489  -2.856   1.652  1.00  0.00     0.047 A 
ATOM     14  C   UNL     1      -2.197  -3.641   3.919  1.00  0.00     0.067 A 
ATOM     15  C   UNL     1      -1.632  -1.788   1.904  1.00  0.00     0.008 A 
ATOM     16  C   UNL     1      -1.320  -2.581   4.186  1.00  0.00     0.046 A 
ATOM     17  Cl  UNL     1      -0.636  -2.489   5.807  1.00  0.00    -0.084 Cl
BRANCH  12  18
ATOM     18  O   UNL     1      -3.652  -4.840   2.347  1.00  0.00    -0.497 OA
ATOM     19  C   UNL     1      -4.044  -5.860   3.264  1.00  0.00     0.278 C 
ENDBRANCH  12  18
ENDBRANCH   9  11
ENDBRANCH   8   9
ENDBRANCH   6   8
ENDBRANCH   1   6
BRANCH   5  20
ATOM     20  C   UNL     1       1.404  -1.842  -1.299  1.00  0.00     0.242 C 
ATOM     21  O   UNL     1       1.135  -2.708  -0.426  1.00  0.00    -0.273 OA
BRANCH  20  22
ATOM     22  C   UNL     1       0.860  -2.014  -2.688  1.00  0.00     0.216 C 
BRANCH  22  23
ATOM     23  N   UNL     1       0.006  -0.884  -3.029  1.00  0.00    -0.342 N 
ATOM     24  C   UNL     1      -1.202  -0.592  -2.309  1.00  0.00     0.270 C 
ATOM     25  H   UNL     1       0.321  -0.240  -3.781  1.00  0.00     0.164 HD
ATOM     26  O   UNL     1      -1.760  -1.500  -1.634  1.00  0.00    -0.268 OA
BRANCH  24  27
ATOM     27  C   UNL     1      -1.776   0.769  -2.336  1.00  0.00     0.128 A 
ATOM     28  C   UNL     1      -2.977   1.068  -1.670  1.00  0.00     0.035 A 
ATOM     29  N   UNL     1      -1.106   1.760  -2.986  1.00  0.00    -0.243 NA
ATOM     30  C   UNL     1      -3.471   2.375  -1.691  1.00  0.00     0.013 A 
ATOM     31  C   UNL     1      -1.561   3.039  -3.023  1.00  0.00     0.071 A 
ATOM     32  C   UNL     1      -2.768   3.376  -2.374  1.00  0.00     0.003 A 
ATOM     33  C   UNL     1      -0.831   4.022  -3.699  1.00  0.00     0.032 A 
ATOM     34  C   UNL     1      -3.236   4.698  -2.422  1.00  0.00     0.049 A 
ATOM     35  C   UNL     1      -1.301   5.337  -3.740  1.00  0.00     0.041 A 
ATOM     36  C   UNL     1      -2.503   5.674  -3.107  1.00  0.00     0.123 A 
ATOM     37  F   UNL     1      -2.950   6.952  -3.145  1.00  0.00    -0.207 F 
ENDBRANCH  24  27
ENDBRANCH  22  23
ENDBRANCH  20  22
ENDBRANCH   5  20
BRANCH   3  38
ATOM     38  O   UNL     1       5.137   0.420  -1.191  1.00  0.00    -0.391 OA
ATOM     39  H   UNL     1       5.585   0.851  -1.966  1.00  0.00     0.211 HD
ENDBRANCH   3  38
TORSDOF 10
