REMARK SMILES COc1ccc([C@H](C)[N-]C(=O)[C@@H]2C[C@@H](O)CN2C(=O)C/N=C(/O)c2ccc3cc(F)ccc3n2)c(Cl)c1
REMARK SMILES IDX 17 1 16 2 14 3 13 4 12 5 18 6 19 7 20 8 21 9 22 10 23 11
REMARK SMILES IDX 24 13 34 14 25 15 33 16 26 17 32 18 27 19 31 20 28 21 29 22
REMARK SMILES IDX 30 23 10 24 11 25 9 26 7 27 8 28 6 29 5 30 35 31 4 32 37 33
REMARK SMILES IDX 3 34 36 35 2 36 1 37 15 38
REMARK H PARENT 23 12 15 39
ROOT
ATOM      1  N   UNL     1       1.484   0.997  -1.380  1.00  0.00    -0.330 N 
ATOM      2  C   UNL     1       2.874   0.568  -1.404  1.00  0.00     0.152 C 
ATOM      3  C   UNL     1       3.508   1.296  -2.589  1.00  0.00     0.136 C 
ATOM      4  C   UNL     1       2.564   2.454  -2.911  1.00  0.00     0.065 C 
ATOM      5  C   UNL     1       1.199   2.037  -2.360  1.00  0.00     0.136 C 
ENDROOT
BRANCH   1   6
ATOM      6  C   UNL     1       0.508   0.528  -0.429  1.00  0.00     0.245 C 
ATOM      7  O   UNL     1      -0.652   1.021  -0.428  1.00  0.00    -0.273 OA
BRANCH   6   8
ATOM      8  C   UNL     1       0.851  -0.516   0.590  1.00  0.00     0.246 C 
BRANCH   8   9
ATOM      9  N   UNL     1       1.671   0.086   1.637  1.00  0.00    -0.240 NA
BRANCH   9  10
ATOM     10  C   UNL     1       2.290  -0.526   2.610  1.00  0.00     0.233 C 
BRANCH  10  11
ATOM     11  O   UNL     1       3.055   0.238   3.488  1.00  0.00    -0.492 OA
ATOM     12  H   UNL     1       3.131   1.243   3.382  1.00  0.00     0.295 HD
ENDBRANCH  10  11
BRANCH  10  13
ATOM     13  C   UNL     1       2.236  -1.997   2.822  1.00  0.00     0.125 A 
ATOM     14  N   UNL     1       1.189  -2.734   2.358  1.00  0.00    -0.243 NA
ATOM     15  C   UNL     1       3.255  -2.637   3.548  1.00  0.00     0.035 A 
ATOM     16  C   UNL     1       1.100  -4.076   2.554  1.00  0.00     0.071 A 
ATOM     17  C   UNL     1       3.193  -4.015   3.765  1.00  0.00     0.013 A 
ATOM     18  C   UNL     1       0.006  -4.789   2.050  1.00  0.00     0.032 A 
ATOM     19  C   UNL     1       2.113  -4.752   3.267  1.00  0.00     0.003 A 
ATOM     20  C   UNL     1      -0.082  -6.170   2.253  1.00  0.00     0.041 A 
ATOM     21  C   UNL     1       2.018  -6.137   3.466  1.00  0.00     0.049 A 
ATOM     22  C   UNL     1       0.922  -6.843   2.958  1.00  0.00     0.123 A 
ATOM     23  F   UNL     1       0.832  -8.182   3.149  1.00  0.00    -0.207 F 
ENDBRANCH  10  13
ENDBRANCH   9  10
ENDBRANCH   8   9
ENDBRANCH   6   8
ENDBRANCH   1   6
BRANCH   5  24
ATOM     24  C   UNL     1       0.311   1.497  -3.459  1.00  0.00     0.075 C 
ATOM     25  O   UNL     1       0.480   0.316  -3.864  1.00  0.00    -0.318 OA
BRANCH  24  26
ATOM     26  N   UNL     1      -0.678   2.307  -4.109  1.00  0.00    -0.645 NA
BRANCH  26  27
ATOM     27  C   UNL     1      -1.038   3.676  -3.745  1.00  0.00    -0.077 C 
ATOM     28  C   UNL     1      -1.870   4.306  -4.862  1.00  0.00    -0.008 C 
BRANCH  27  29
ATOM     29  C   UNL     1      -1.790   3.719  -2.424  1.00  0.00    -0.044 A 
ATOM     30  C   UNL     1      -1.412   4.683  -1.471  1.00  0.00     0.008 A 
ATOM     31  C   UNL     1      -2.873   2.855  -2.122  1.00  0.00     0.046 A 
ATOM     32  C   UNL     1      -2.061   4.766  -0.238  1.00  0.00     0.047 A 
ATOM     33  C   UNL     1      -3.519   2.950  -0.883  1.00  0.00     0.067 A 
ATOM     34  C   UNL     1      -3.119   3.895   0.066  1.00  0.00     0.120 A 
ATOM     35  Cl  UNL     1      -3.462   1.635  -3.249  1.00  0.00    -0.084 Cl
BRANCH  34  36
ATOM     36  O   UNL     1      -3.799   3.935   1.292  1.00  0.00    -0.497 OA
ATOM     37  C   UNL     1      -3.499   4.843   2.348  1.00  0.00     0.278 C 
ENDBRANCH  34  36
ENDBRANCH  27  29
ENDBRANCH  26  27
ENDBRANCH  24  26
ENDBRANCH   5  24
BRANCH   3  38
ATOM     38  O   UNL     1       4.787   1.776  -2.268  1.00  0.00    -0.391 OA
ATOM     39  H   UNL     1       5.397   0.992  -2.295  1.00  0.00     0.211 HD
ENDBRANCH   3  38
TORSDOF 12
