REMARK SMILES C/C=C(/O)N(c1ccccc1)[C@H]1CC[N@H+](C(=O)[C@@H](N)C2Cc3ccccc3C2)CC1
REMARK SMILES IDX 12 1 13 2 14 3 15 4 29 6 30 7 5 8 3 9 4 10 2 12 1 13 6 14
REMARK SMILES IDX 7 15 11 16 8 17 10 18 9 19 16 20 17 21 18 22 19 23 20 26
REMARK SMILES IDX 21 27 28 28 22 29 27 30 23 31 26 32 24 33 25 34
REMARK H PARENT 15 5 4 11 19 24 19 25
ROOT
ATOM      1  C   UNL     1       1.191  -0.088   1.365  1.00  0.00     0.102 C 
ATOM      2  C   UNL     1       0.509  -1.172   0.517  1.00  0.00     0.087 C 
ATOM      3  C   UNL     1      -0.336  -0.518  -0.588  1.00  0.00     0.272 C 
ATOM      4  N   UNL     1       0.375   0.558  -1.346  1.00  0.00    -0.270 N 
ATOM      5  H   UNL     1       0.369   0.264  -2.349  1.00  0.00     0.356 HD
ATOM      6  C   UNL     1       1.808   0.717  -0.995  1.00  0.00     0.272 C 
ATOM      7  C   UNL     1       2.056   0.872   0.519  1.00  0.00     0.087 C 
ENDROOT
BRANCH   1   8
ATOM      8  N   UNL     1       1.949  -0.653   2.503  1.00  0.00    -0.310 N 
BRANCH   8   9
ATOM      9  C   UNL     1       1.991   0.113   3.719  1.00  0.00     0.187 C 
BRANCH   9  10
ATOM     10  O   UNL     1       3.144   0.844   4.006  1.00  0.00    -0.495 OA
ATOM     11  H   UNL     1       3.234   1.396   4.851  1.00  0.00     0.295 HD
ENDBRANCH   9  10
BRANCH   9  12
ATOM     12  C   UNL     1       0.961   0.118   4.580  1.00  0.00     0.036 C 
ATOM     13  C   UNL     1      -0.281  -0.699   4.380  1.00  0.00     0.041 C 
ENDBRANCH   9  12
ENDBRANCH   8   9
BRANCH   8  14
ATOM     14  C   UNL     1       2.801  -1.823   2.412  1.00  0.00     0.044 A 
ATOM     15  C   UNL     1       2.898  -2.703   3.508  1.00  0.00     0.026 A 
ATOM     16  C   UNL     1       3.574  -2.095   1.264  1.00  0.00     0.026 A 
ATOM     17  C   UNL     1       3.728  -3.825   3.454  1.00  0.00     0.002 A 
ATOM     18  C   UNL     1       4.403  -3.220   1.215  1.00  0.00     0.002 A 
ATOM     19  C   UNL     1       4.480  -4.084   2.308  1.00  0.00     0.000 A 
ENDBRANCH   8  14
ENDBRANCH   1   8
BRANCH   4  20
ATOM     20  C   UNL     1      -0.323   1.833  -1.239  1.00  0.00     0.329 C 
ATOM     21  O   UNL     1      -0.518   2.323  -0.134  1.00  0.00    -0.229 OA
BRANCH  20  22
ATOM     22  C   UNL     1      -0.821   2.599  -2.463  1.00  0.00     0.186 C 
BRANCH  22  23
ATOM     23  N   UNL     1       0.005   2.316  -3.640  1.00  0.00    -0.316 NA
ATOM     24  H   UNL     1      -0.314   2.929  -4.426  1.00  0.00     0.119 HD
ATOM     25  H   UNL     1       0.987   2.610  -3.431  1.00  0.00     0.119 HD
ENDBRANCH  22  23
BRANCH  22  26
ATOM     26  C   UNL     1      -2.324   2.340  -2.780  1.00  0.00     0.028 C 
ATOM     27  C   UNL     1      -2.639   0.856  -3.106  1.00  0.00     0.042 C 
ATOM     28  C   UNL     1      -3.260   2.737  -1.609  1.00  0.00     0.042 C 
ATOM     29  C   UNL     1      -3.417   0.397  -1.933  1.00  0.00    -0.044 A 
ATOM     30  C   UNL     1      -3.751   1.436  -1.098  1.00  0.00    -0.044 A 
ATOM     31  C   UNL     1      -3.798  -0.915  -1.641  1.00  0.00     0.004 A 
ATOM     32  C   UNL     1      -4.483   1.216   0.071  1.00  0.00     0.004 A 
ATOM     33  C   UNL     1      -4.527  -1.160  -0.467  1.00  0.00     0.000 A 
ATOM     34  C   UNL     1      -4.869  -0.096   0.388  1.00  0.00     0.000 A 
ENDBRANCH  22  26
ENDBRANCH  20  22
ENDBRANCH   4  20
TORSDOF 9
