REMARK SMILES C/C=C(\O)N(c1ccccc1)[C@H]1CC[N@@H+](C(=O)[C@@H](N)C2Cc3ccccc3C2)CC1
REMARK SMILES IDX 12 1 13 2 14 3 15 4 29 6 30 7 5 8 3 9 4 10 2 12 1 13 6 14
REMARK SMILES IDX 7 15 11 16 8 17 10 18 9 19 16 20 17 21 18 22 19 23 20 26
REMARK SMILES IDX 21 27 28 28 22 29 27 30 23 31 26 32 24 33 25 34
REMARK H PARENT 15 5 4 11 19 24 19 25
ROOT
ATOM      1  C   UNL     1       2.050   1.992  -1.529  1.00  0.00     0.102 C 
ATOM      2  C   UNL     1       2.430   1.581  -0.085  1.00  0.00     0.087 C 
ATOM      3  C   UNL     1       1.236   0.952   0.650  1.00  0.00     0.272 C 
ATOM      4  N   UNL     1       0.085   1.882   0.691  1.00  0.00    -0.270 N 
ATOM      5  H   UNL     1       0.400   2.753   1.184  1.00  0.00     0.356 HD
ATOM      6  C   UNL     1      -0.335   2.247  -0.680  1.00  0.00     0.272 C 
ATOM      7  C   UNL     1       0.815   2.920  -1.450  1.00  0.00     0.087 C 
ENDROOT
BRANCH   1   8
ATOM      8  N   UNL     1       1.806   0.820  -2.413  1.00  0.00    -0.310 N 
BRANCH   8   9
ATOM      9  C   UNL     1       1.118   0.969  -3.669  1.00  0.00     0.187 C 
BRANCH   9  10
ATOM     10  O   UNL     1       0.011   0.152  -3.919  1.00  0.00    -0.495 OA
ATOM     11  H   UNL     1      -0.507   0.166  -4.789  1.00  0.00     0.295 HD
ENDBRANCH   9  10
BRANCH   9  12
ATOM     12  C   UNL     1       1.566   1.853  -4.578  1.00  0.00     0.036 C 
ATOM     13  C   UNL     1       0.906   2.070  -5.905  1.00  0.00     0.041 C 
ENDBRANCH   9  12
ENDBRANCH   8   9
BRANCH   8  14
ATOM     14  C   UNL     1       2.576  -0.388  -2.275  1.00  0.00     0.044 A 
ATOM     15  C   UNL     1       3.976  -0.355  -2.388  1.00  0.00     0.026 A 
ATOM     16  C   UNL     1       1.928  -1.616  -2.063  1.00  0.00     0.026 A 
ATOM     17  C   UNL     1       4.718  -1.534  -2.267  1.00  0.00     0.002 A 
ATOM     18  C   UNL     1       2.673  -2.792  -1.949  1.00  0.00     0.002 A 
ATOM     19  C   UNL     1       4.066  -2.751  -2.049  1.00  0.00     0.000 A 
ENDBRANCH   8  14
ENDBRANCH   1   8
BRANCH   4  20
ATOM     20  C   UNL     1      -1.071   1.388   1.436  1.00  0.00     0.329 C 
ATOM     21  O   UNL     1      -1.966   2.180   1.702  1.00  0.00    -0.229 OA
BRANCH  20  22
ATOM     22  C   UNL     1      -1.257  -0.062   1.889  1.00  0.00     0.186 C 
BRANCH  22  23
ATOM     23  N   UNL     1      -1.736  -0.090   3.278  1.00  0.00    -0.316 NA
ATOM     24  H   UNL     1      -1.696  -1.073   3.631  1.00  0.00     0.119 HD
ATOM     25  H   UNL     1      -1.066   0.452   3.868  1.00  0.00     0.119 HD
ENDBRANCH  22  23
BRANCH  22  26
ATOM     26  C   UNL     1      -2.242  -0.799   0.938  1.00  0.00     0.028 C 
ATOM     27  C   UNL     1      -2.227  -2.340   1.138  1.00  0.00     0.042 C 
ATOM     28  C   UNL     1      -3.719  -0.340   1.103  1.00  0.00     0.042 C 
ATOM     29  C   UNL     1      -3.618  -2.668   1.530  1.00  0.00    -0.044 A 
ATOM     30  C   UNL     1      -4.438  -1.567   1.511  1.00  0.00    -0.044 A 
ATOM     31  C   UNL     1      -4.114  -3.930   1.869  1.00  0.00     0.004 A 
ATOM     32  C   UNL     1      -5.790  -1.667   1.851  1.00  0.00     0.004 A 
ATOM     33  C   UNL     1      -5.469  -4.053   2.212  1.00  0.00     0.000 A 
ATOM     34  C   UNL     1      -6.306  -2.923   2.204  1.00  0.00     0.000 A 
ENDBRANCH  22  26
ENDBRANCH  20  22
ENDBRANCH   4  20
TORSDOF 9
