REMARK SMILES [H]/N=c1/[nH]c2nc3ccccn3c(=O)c2cc1C(=O)N[C@@H](C)c1ccccc1
REMARK SMILES IDX 3 1 17 2 16 3 15 4 13 5 14 6 12 7 11 8 10 9 9 10 8 11 7 12
REMARK SMILES IDX 6 13 5 14 4 15 2 17 1 18 18 19 20 20 19 21 21 23 22 24 23 25
REMARK SMILES IDX 24 26 28 27 25 28 27 29 26 30
REMARK H PARENT 4 16 20 22
ROOT
ATOM      1  C   UNL     1       1.754  -0.293  -2.276  1.00  0.00     0.136 A 
ATOM      2  C   UNL     1       1.039  -0.071  -1.070  1.00  0.00     0.082 A 
ATOM      3  C   UNL     1       0.216  -1.095  -0.578  1.00  0.00     0.035 A 
ATOM      4  C   UNL     1       0.123  -2.320  -1.254  1.00  0.00     0.084 A 
ATOM      5  C   UNL     1      -0.683  -3.379  -0.796  1.00  0.00     0.267 A 
ATOM      6  O   UNL     1      -1.360  -3.234   0.261  1.00  0.00    -0.268 OA
ATOM      7  N   UNL     1      -0.730  -4.561  -1.497  1.00  0.00    -0.267 N 
ATOM      8  C   UNL     1      -1.512  -5.602  -1.062  1.00  0.00     0.096 A 
ATOM      9  C   UNL     1      -1.563  -6.804  -1.771  1.00  0.00     0.019 A 
ATOM     10  C   UNL     1      -0.811  -6.948  -2.934  1.00  0.00     0.005 A 
ATOM     11  C   UNL     1      -0.017  -5.895  -3.377  1.00  0.00     0.048 A 
ATOM     12  C   UNL     1       0.017  -4.701  -2.649  1.00  0.00     0.142 A 
ATOM     13  N   UNL     1       0.795  -3.681  -3.092  1.00  0.00    -0.212 NA
ATOM     14  C   UNL     1       0.867  -2.502  -2.428  1.00  0.00     0.146 A 
ATOM     15  N   UNL     1       1.655  -1.500  -2.904  1.00  0.00    -0.324 N 
ATOM     16  H   UNL     1       2.188  -1.659  -3.790  1.00  0.00     0.170 HD
ENDROOT
BRANCH   1  17
ATOM     17  N   UNL     1       2.478   0.635  -2.827  1.00  0.00    -0.284 NA
ATOM     18  H   UNL     1       2.593   1.602  -2.453  1.00  0.00     0.189 HD
ENDBRANCH   1  17
BRANCH   2  19
ATOM     19  C   UNL     1       1.147   1.183  -0.289  1.00  0.00     0.255 C 
ATOM     20  N   UNL     1      -0.035   1.818   0.223  1.00  0.00    -0.345 N 
ATOM     21  O   UNL     1       2.284   1.668  -0.041  1.00  0.00    -0.269 OA
ATOM     22  H   UNL     1      -0.964   1.427  -0.052  1.00  0.00     0.164 HD
BRANCH  20  23
ATOM     23  C   UNL     1       0.020   3.047   1.023  1.00  0.00     0.109 C 
ATOM     24  C   UNL     1       0.212   4.264   0.112  1.00  0.00     0.036 C 
BRANCH  23  25
ATOM     25  C   UNL     1      -1.232   3.190   1.868  1.00  0.00    -0.026 A 
ATOM     26  C   UNL     1      -2.503   3.297   1.270  1.00  0.00     0.006 A 
ATOM     27  C   UNL     1      -1.137   3.214   3.272  1.00  0.00     0.006 A 
ATOM     28  C   UNL     1      -3.649   3.427   2.060  1.00  0.00     0.000 A 
ATOM     29  C   UNL     1      -2.286   3.344   4.057  1.00  0.00     0.000 A 
ATOM     30  C   UNL     1      -3.541   3.450   3.453  1.00  0.00     0.000 A 
ENDBRANCH  23  25
ENDBRANCH  20  23
ENDBRANCH   2  19
TORSDOF 4
