REMARK SMILES [H]/N=c1/[nH]c2nc3ccccn3c(=O)c2cc1/C(O)=N\[C@@H](C)c1ccccc1
REMARK SMILES IDX 18 1 17 2 3 3 4 4 16 5 5 6 15 7 6 8 13 9 7 10 12 11 8 12
REMARK SMILES IDX 11 13 9 14 10 15 14 17 2 18 1 19 20 20 21 21 22 22 23 23
REMARK SMILES IDX 24 24 28 25 25 26 27 27 26 28 19 29
REMARK H PARENT 4 16 19 30
ROOT
ATOM      1  C   UNL     1       1.440  -0.838  -2.855  1.00  0.00     0.218 C 
ENDROOT
BRANCH   1   2
ATOM      2  C   UNL     1       1.605  -0.429  -1.445  1.00  0.00     0.079 A 
ATOM      3  C   UNL     1       2.184   0.807  -1.074  1.00  0.00     0.136 A 
ATOM      4  N   UNL     1       2.215   1.168   0.241  1.00  0.00    -0.324 N 
ATOM      5  C   UNL     1       1.109  -1.274  -0.445  1.00  0.00     0.035 A 
ATOM      6  C   UNL     1       1.698   0.373   1.218  1.00  0.00     0.146 A 
ATOM      7  C   UNL     1       1.134  -0.871   0.896  1.00  0.00     0.084 A 
ATOM      8  N   UNL     1       1.717   0.787   2.508  1.00  0.00    -0.212 NA
ATOM      9  C   UNL     1       0.595  -1.654   1.932  1.00  0.00     0.267 A 
ATOM     10  C   UNL     1       1.197   0.028   3.506  1.00  0.00     0.142 A 
ATOM     11  N   UNL     1       0.629  -1.198   3.228  1.00  0.00    -0.267 N 
ATOM     12  C   UNL     1       1.242   0.510   4.819  1.00  0.00     0.048 A 
ATOM     13  C   UNL     1       0.101  -1.951   4.249  1.00  0.00     0.096 A 
ATOM     14  C   UNL     1       0.707  -0.256   5.851  1.00  0.00     0.005 A 
ATOM     15  C   UNL     1       0.134  -1.492   5.568  1.00  0.00     0.019 A 
ATOM     16  H   UNL     1       2.637   2.087   0.509  1.00  0.00     0.170 HD
ATOM     17  O   UNL     1       0.077  -2.775   1.660  1.00  0.00    -0.268 OA
BRANCH   3  18
ATOM     18  N   UNL     1       2.691   1.613  -1.959  1.00  0.00    -0.284 NA
ATOM     19  H   UNL     1       2.712   1.413  -2.984  1.00  0.00     0.189 HD
ENDBRANCH   3  18
ENDBRANCH   1   2
BRANCH   1  20
ATOM     20  N   UNL     1       0.488  -0.357  -3.606  1.00  0.00    -0.243 NA
BRANCH  20  21
ATOM     21  C   UNL     1      -0.517   0.631  -3.197  1.00  0.00     0.136 C 
ATOM     22  C   UNL     1      -1.375   1.009  -4.404  1.00  0.00     0.038 C 
BRANCH  21  23
ATOM     23  C   UNL     1      -1.388   0.094  -2.078  1.00  0.00    -0.024 A 
ATOM     24  C   UNL     1      -1.995  -1.172  -2.182  1.00  0.00     0.006 A 
ATOM     25  C   UNL     1      -1.569   0.845  -0.903  1.00  0.00     0.006 A 
ATOM     26  C   UNL     1      -2.748  -1.683  -1.120  1.00  0.00     0.000 A 
ATOM     27  C   UNL     1      -2.320   0.328   0.157  1.00  0.00     0.000 A 
ATOM     28  C   UNL     1      -2.906  -0.935   0.050  1.00  0.00     0.000 A 
ENDBRANCH  21  23
ENDBRANCH  20  21
ENDBRANCH   1  20
BRANCH   1  29
ATOM     29  O   UNL     1       2.312  -1.787  -3.378  1.00  0.00    -0.493 OA
ATOM     30  H   UNL     1       2.228  -2.102  -4.337  1.00  0.00     0.295 HD
ENDBRANCH   1  29
TORSDOF 6
