REMARK SMILES O/C(=C/CCOc1ccc(Cl)cc1Cl)[N-]/N=C/c1cccnc1F
REMARK SMILES IDX 2 1 1 2 15 4 16 5 17 6 18 7 23 8 19 9 22 10 20 11 21 12
REMARK SMILES IDX 24 13 3 14 4 15 5 16 6 17 7 18 8 19 13 20 9 21 12 22 10 23
REMARK SMILES IDX 14 24 11 25
REMARK H PARENT 1 3
ROOT
ATOM      1  C   UNL     1      -1.367  -0.627   1.677  1.00  0.00     0.023 C 
ENDROOT
BRANCH   1   2
ATOM      2  O   UNL     1      -2.369  -0.906   2.608  1.00  0.00    -0.530 OA
ATOM      3  H   UNL     1      -2.512  -0.332   3.431  1.00  0.00     0.290 HD
ENDBRANCH   1   2
BRANCH   1   4
ATOM      4  N   UNL     1      -1.219  -1.474   0.537  1.00  0.00    -0.546 NA
BRANCH   4   5
ATOM      5  N   UNL     1      -2.059  -2.578   0.349  1.00  0.00    -0.372 NA
BRANCH   5   6
ATOM      6  C   UNL     1      -1.920  -3.345  -0.684  1.00  0.00     0.099 C 
BRANCH   6   7
ATOM      7  C   UNL     1      -2.806  -4.510  -0.905  1.00  0.00     0.046 A 
ATOM      8  C   UNL     1      -3.813  -4.884   0.009  1.00  0.00     0.221 A 
ATOM      9  C   UNL     1      -2.646  -5.275  -2.070  1.00  0.00     0.016 A 
ATOM     10  N   UNL     1      -4.603  -5.960  -0.251  1.00  0.00    -0.228 NA
ATOM     11  C   UNL     1      -3.472  -6.374  -2.308  1.00  0.00     0.021 A 
ATOM     12  C   UNL     1      -4.456  -6.704  -1.378  1.00  0.00     0.114 A 
ATOM     13  F   UNL     1      -4.014  -4.190   1.158  1.00  0.00    -0.184 F 
ENDBRANCH   6   7
ENDBRANCH   5   6
ENDBRANCH   4   5
ENDBRANCH   1   4
BRANCH   1  14
ATOM     14  C   UNL     1      -0.560   0.428   1.852  1.00  0.00    -0.001 C 
BRANCH  14  15
ATOM     15  C   UNL     1       0.536   0.795   0.891  1.00  0.00     0.071 C 
BRANCH  15  16
ATOM     16  C   UNL     1       1.749  -0.128   1.054  1.00  0.00     0.234 C 
BRANCH  16  17
ATOM     17  O   UNL     1       2.787   0.241   0.146  1.00  0.00    -0.492 OA
BRANCH  17  18
ATOM     18  C   UNL     1       3.648   1.343   0.287  1.00  0.00     0.137 A 
ATOM     19  C   UNL     1       3.648   2.162   1.434  1.00  0.00     0.049 A 
ATOM     20  C   UNL     1       4.547   1.628  -0.755  1.00  0.00     0.084 A 
ATOM     21  C   UNL     1       4.529   3.244   1.529  1.00  0.00     0.024 A 
ATOM     22  C   UNL     1       5.425   2.713  -0.653  1.00  0.00     0.045 A 
ATOM     23  C   UNL     1       5.417   3.521   0.487  1.00  0.00     0.042 A 
ATOM     24  Cl  UNL     1       4.583   0.629  -2.200  1.00  0.00    -0.080 Cl
ATOM     25  Cl  UNL     1       6.522   4.877   0.611  1.00  0.00    -0.084 Cl
ENDBRANCH  17  18
ENDBRANCH  16  17
ENDBRANCH  15  16
ENDBRANCH  14  15
ENDBRANCH   1  14
TORSDOF 10
