REMARK SMILES O/C(=C\CCOc1ccc(Cl)cc1Cl)[N-]/N=C\c1cccnc1F
REMARK SMILES IDX 2 1 1 2 15 4 16 5 17 6 18 7 23 8 19 9 22 10 20 11 21 12
REMARK SMILES IDX 24 13 3 14 4 15 5 16 6 17 7 18 8 19 13 20 9 21 12 22 10 23
REMARK SMILES IDX 14 24 11 25
REMARK H PARENT 1 3
ROOT
ATOM      1  C   UNL     1       1.937  -1.033  -0.023  1.00  0.00     0.023 C 
ENDROOT
BRANCH   1   2
ATOM      2  O   UNL     1       2.985  -0.859  -0.929  1.00  0.00    -0.530 OA
ATOM      3  H   UNL     1       2.915  -1.170  -1.890  1.00  0.00     0.290 HD
ENDBRANCH   1   2
BRANCH   1   4
ATOM      4  N   UNL     1       0.714  -1.645  -0.433  1.00  0.00    -0.546 NA
BRANCH   4   5
ATOM      5  N   UNL     1       0.523  -2.118  -1.738  1.00  0.00    -0.372 NA
BRANCH   5   6
ATOM      6  C   UNL     1      -0.642  -2.480  -2.183  1.00  0.00     0.099 C 
BRANCH   6   7
ATOM      7  C   UNL     1      -1.878  -2.372  -1.379  1.00  0.00     0.046 A 
ATOM      8  C   UNL     1      -1.986  -2.938  -0.095  1.00  0.00     0.221 A 
ATOM      9  C   UNL     1      -2.993  -1.721  -1.923  1.00  0.00     0.016 A 
ATOM     10  N   UNL     1      -3.144  -2.812   0.608  1.00  0.00    -0.228 NA
ATOM     11  C   UNL     1      -4.167  -1.604  -1.178  1.00  0.00     0.021 A 
ATOM     12  C   UNL     1      -4.222  -2.155   0.103  1.00  0.00     0.114 A 
ATOM     13  F   UNL     1      -0.964  -3.650   0.441  1.00  0.00    -0.184 F 
ENDBRANCH   6   7
ENDBRANCH   5   6
ENDBRANCH   4   5
ENDBRANCH   1   4
BRANCH   1  14
ATOM     14  C   UNL     1       2.047  -0.590   1.231  1.00  0.00    -0.001 C 
BRANCH  14  15
ATOM     15  C   UNL     1       3.222   0.214   1.709  1.00  0.00     0.071 C 
BRANCH  15  16
ATOM     16  C   UNL     1       3.180   1.659   1.191  1.00  0.00     0.234 C 
BRANCH  16  17
ATOM     17  O   UNL     1       2.036   2.355   1.695  1.00  0.00    -0.492 OA
BRANCH  17  18
ATOM     18  C   UNL     1       0.725   2.257   1.194  1.00  0.00     0.137 A 
ATOM     19  C   UNL     1       0.450   1.876  -0.135  1.00  0.00     0.049 A 
ATOM     20  C   UNL     1      -0.346   2.552   2.053  1.00  0.00     0.084 A 
ATOM     21  C   UNL     1      -0.870   1.745  -0.575  1.00  0.00     0.024 A 
ATOM     22  C   UNL     1      -1.667   2.426   1.605  1.00  0.00     0.045 A 
ATOM     23  C   UNL     1      -1.929   2.015   0.295  1.00  0.00     0.042 A 
ATOM     24  Cl  UNL     1      -0.047   3.047   3.712  1.00  0.00    -0.080 Cl
ATOM     25  Cl  UNL     1      -3.585   1.846  -0.258  1.00  0.00    -0.084 Cl
ENDBRANCH  17  18
ENDBRANCH  16  17
ENDBRANCH  15  16
ENDBRANCH  14  15
ENDBRANCH   1  14
TORSDOF 10
