REMARK SMILES O/C(=C/CCOc1ccc(Cl)cc1Cl)[N-]/N=C\c1cccnc1F
REMARK SMILES IDX 2 1 1 2 15 4 16 5 17 6 18 7 23 8 19 9 22 10 20 11 21 12
REMARK SMILES IDX 24 13 3 14 4 15 5 16 6 17 7 18 8 19 13 20 9 21 12 22 10 23
REMARK SMILES IDX 14 24 11 25
REMARK H PARENT 1 3
ROOT
ATOM      1  C   UNL     1       2.196   2.347  -0.566  1.00  0.00     0.023 C 
ENDROOT
BRANCH   1   2
ATOM      2  O   UNL     1       2.776   3.582  -0.858  1.00  0.00    -0.530 OA
ATOM      3  H   UNL     1       3.025   4.248  -0.136  1.00  0.00     0.290 HD
ENDBRANCH   1   2
BRANCH   1   4
ATOM      4  N   UNL     1       1.885   1.491  -1.678  1.00  0.00    -0.546 NA
BRANCH   4   5
ATOM      5  N   UNL     1       1.397   0.182  -1.571  1.00  0.00    -0.372 NA
BRANCH   5   6
ATOM      6  C   UNL     1       1.103  -0.552  -2.603  1.00  0.00     0.099 C 
BRANCH   6   7
ATOM      7  C   UNL     1       1.218  -0.081  -4.002  1.00  0.00     0.046 A 
ATOM      8  C   UNL     1       1.719  -0.945  -4.990  1.00  0.00     0.221 A 
ATOM      9  C   UNL     1       0.767   1.192  -4.391  1.00  0.00     0.016 A 
ATOM     10  N   UNL     1       1.802  -0.531  -6.284  1.00  0.00    -0.228 NA
ATOM     11  C   UNL     1       0.862   1.590  -5.726  1.00  0.00     0.021 A 
ATOM     12  C   UNL     1       1.392   0.707  -6.667  1.00  0.00     0.114 A 
ATOM     13  F   UNL     1       2.145  -2.192  -4.666  1.00  0.00    -0.184 F 
ENDBRANCH   6   7
ENDBRANCH   5   6
ENDBRANCH   4   5
ENDBRANCH   1   4
BRANCH   1  14
ATOM     14  C   UNL     1       1.956   2.029   0.723  1.00  0.00    -0.001 C 
BRANCH  14  15
ATOM     15  C   UNL     1       1.312   0.754   1.198  1.00  0.00     0.071 C 
BRANCH  15  16
ATOM     16  C   UNL     1       1.141   0.749   2.721  1.00  0.00     0.234 C 
BRANCH  16  17
ATOM     17  O   UNL     1       0.549  -0.475   3.155  1.00  0.00    -0.492 OA
BRANCH  17  18
ATOM     18  C   UNL     1      -0.804  -0.829   3.010  1.00  0.00     0.137 A 
ATOM     19  C   UNL     1      -1.776   0.075   2.534  1.00  0.00     0.049 A 
ATOM     20  C   UNL     1      -1.199  -2.131   3.362  1.00  0.00     0.084 A 
ATOM     21  C   UNL     1      -3.110  -0.324   2.408  1.00  0.00     0.024 A 
ATOM     22  C   UNL     1      -2.536  -2.524   3.233  1.00  0.00     0.045 A 
ATOM     23  C   UNL     1      -3.490  -1.622   2.755  1.00  0.00     0.042 A 
ATOM     24  Cl  UNL     1      -0.019  -3.287   3.962  1.00  0.00    -0.080 Cl
ATOM     25  Cl  UNL     1      -5.165  -2.119   2.594  1.00  0.00    -0.084 Cl
ENDBRANCH  17  18
ENDBRANCH  16  17
ENDBRANCH  15  16
ENDBRANCH  14  15
ENDBRANCH   1  14
TORSDOF 10
