REMARK SMILES CN1CCN(C(=O)c2cccc(C3=Nc4ccc(C#Cc5ccccc5)cc4N=C(O)C3)c2)CC1
REMARK SMILES IDX 15 1 16 2 17 3 18 4 27 5 28 6 14 7 13 8 12 9 8 10 9 11 33 12
REMARK SMILES IDX 10 13 11 14 6 15 2 16 3 17 35 18 4 19 34 20 5 21 1 22 7 23
REMARK SMILES IDX 32 24 29 26 30 27 31 29 19 31 20 32 21 33 22 34 26 35 23 36
REMARK SMILES IDX 25 37 24 38
REMARK H PARENT 31 30
REMARK Flexibility Score:  140.900
ROOT
ATOM      1  C   UNL     1       0.344   0.842   2.099  1.00  0.00     0.089 A 
ATOM      2  C   UNL     1       0.118   1.623   3.241  1.00  0.00     0.032 A 
ATOM      3  C   UNL     1      -0.042   1.031   4.494  1.00  0.00     0.019 A 
ATOM      4  C   UNL     1       0.052  -0.356   4.628  1.00  0.00     0.027 A 
ATOM      5  C   UNL     1       0.301  -1.150   3.503  1.00  0.00     0.048 A 
ATOM      6  C   UNL     1       0.434  -0.572   2.233  1.00  0.00     0.094 A 
ENDROOT
BRANCH   1   7
ATOM      7  N   UNL     1       0.587   1.535   0.863  1.00  0.00    -0.250 NA
BRANCH   7   8
ATOM      8  C   UNL     1       0.296   1.126  -0.337  1.00  0.00     0.058 C 
BRANCH   8   9
ATOM      9  C   UNL     1       0.692   1.964  -1.495  1.00  0.00    -0.003 A 
ATOM     10  C   UNL     1       1.439   2.171  -3.813  1.00  0.00     0.040 A 
ATOM     11  C   UNL     1       1.467   3.567  -3.671  1.00  0.00     0.014 A 
ATOM     12  C   UNL     1       1.073   1.376  -2.715  1.00  0.00     0.023 A 
ATOM     13  C   UNL     1       1.110   4.158  -2.457  1.00  0.00     0.002 A 
ATOM     14  C   UNL     1       0.723   3.365  -1.375  1.00  0.00     0.010 A 
BRANCH  10  15
ATOM     15  C   UNL     1       1.831   1.547  -5.097  1.00  0.00     0.253 C 
ATOM     16  N   UNL     1      -0.205  -0.434  -7.820  1.00  0.00    -0.303 NA
ATOM     17  C   UNL     1      -0.825  -0.738  -6.512  1.00  0.00     0.105 C 
ATOM     18  C   UNL     1       1.267  -0.640  -7.836  1.00  0.00     0.105 C 
ATOM     19  C   UNL     1      -0.248   0.140  -5.388  1.00  0.00     0.135 C 
ATOM     20  C   UNL     1       1.921  -0.587  -6.442  1.00  0.00     0.135 C 
ATOM     21  N   UNL     1       1.195   0.344  -5.575  1.00  0.00    -0.336 N 
ATOM     22  C   UNL     1      -0.577   0.908  -8.303  1.00  0.00     0.105 C 
ATOM     23  O   UNL     1       2.727   2.095  -5.795  1.00  0.00    -0.269 OA
ENDBRANCH  10  15
ENDBRANCH   8   9
BRANCH   8  24
ATOM     24  C   UNL     1      -0.459  -0.157  -0.538  1.00  0.00     0.153 CG0
ATOM     25  G   UNL     1       0.397  -1.299  -0.105  1.00  0.00     0.000 G0
ENDBRANCH   8  24
ENDBRANCH   7   8
ENDBRANCH   1   7
BRANCH   6  26
ATOM     26  N   UNL     1       0.746  -1.452   1.137  1.00  0.00    -0.216 NA
BRANCH  26  27
ATOM     27  C   UNL     1       0.397  -1.299  -0.105  1.00  0.00     0.192 CG0
ATOM     28  G   UNL     1      -0.459  -0.157  -0.538  1.00  0.00     0.000 G0
BRANCH  27  29
ATOM     29  O   UNL     1       0.815  -2.226  -1.054  1.00  0.00    -0.496 OA
ATOM     30  H   UNL     1       1.394  -3.017  -0.795  1.00  0.00     0.294 HD
ENDBRANCH  27  29
ENDBRANCH  26  27
ENDBRANCH   6  26
BRANCH   4  31
ATOM     31  C   UNL     1      -0.089  -0.966   5.924  1.00  0.00    -0.062 C 
BRANCH  31  32
ATOM     32  C   UNL     1      -0.204  -1.477   7.010  1.00  0.00    -0.062 C 
BRANCH  32  33
ATOM     33  C   UNL     1      -0.336  -2.088   8.306  1.00  0.00     0.025 A 
ATOM     34  C   UNL     1       0.805  -2.363   9.073  1.00  0.00     0.017 A 
ATOM     35  C   UNL     1      -1.606  -2.412   8.805  1.00  0.00     0.017 A 
ATOM     36  C   UNL     1       0.675  -2.959  10.332  1.00  0.00     0.001 A 
ATOM     37  C   UNL     1      -1.732  -3.007  10.065  1.00  0.00     0.001 A 
ATOM     38  C   UNL     1      -0.592  -3.281  10.827  1.00  0.00     0.000 A 
ENDBRANCH  32  33
ENDBRANCH  31  32
ENDBRANCH   4  31
TORSDOF 6
