REMARK SMILES O=C(CCCOc1ccc(Cl)cc1Cl)[N-]/N=C/c1cccc(C(F)(F)F)c1
REMARK SMILES IDX 2 1 1 2 15 3 16 4 17 5 18 6 19 7 27 8 20 9 22 10 21 11 23 12
REMARK SMILES IDX 24 13 25 14 26 15 3 16 4 17 5 18 6 19 7 20 8 21 13 22 9 23
REMARK SMILES IDX 12 24 10 25 14 26 11 27
REMARK H PARENT
ROOT
ATOM      1  C   UNL     1      -0.999   2.915  -1.271  1.00  0.00     0.068 C 
ATOM      2  O   UNL     1      -1.316   4.130  -1.367  1.00  0.00    -0.319 OA
ENDROOT
BRANCH   1   3
ATOM      3  N   UNL     1      -2.036   1.934  -1.207  1.00  0.00    -0.545 NA
BRANCH   3   4
ATOM      4  N   UNL     1      -1.749   0.566  -1.127  1.00  0.00    -0.372 NA
BRANCH   4   5
ATOM      5  C   UNL     1      -2.695  -0.313  -1.048  1.00  0.00     0.094 C 
BRANCH   5   6
ATOM      6  C   UNL     1      -2.383  -1.749  -0.913  1.00  0.00    -0.009 A 
ATOM      7  C   UNL     1      -3.430  -2.672  -0.781  1.00  0.00     0.009 A 
ATOM      8  C   UNL     1      -1.052  -2.209  -0.889  1.00  0.00     0.022 A 
ATOM      9  C   UNL     1      -3.156  -4.032  -0.629  1.00  0.00     0.001 A 
ATOM     10  C   UNL     1      -0.770  -3.575  -0.704  1.00  0.00     0.056 A 
ATOM     11  C   UNL     1      -1.835  -4.484  -0.597  1.00  0.00     0.013 A 
BRANCH  10  12
ATOM     12  C   UNL     1       0.653  -4.077  -0.705  1.00  0.00     0.416 C 
ATOM     13  F   UNL     1       0.794  -5.118   0.196  1.00  0.00    -0.166 F 
ATOM     14  F   UNL     1       1.537  -3.074  -0.350  1.00  0.00    -0.166 F 
ATOM     15  F   UNL     1       0.974  -4.530  -1.971  1.00  0.00    -0.166 F 
ENDBRANCH  10  12
ENDBRANCH   5   6
ENDBRANCH   4   5
ENDBRANCH   3   4
ENDBRANCH   1   3
BRANCH   1  16
ATOM     16  C   UNL     1       0.456   2.517  -1.305  1.00  0.00     0.060 C 
BRANCH  16  17
ATOM     17  C   UNL     1       1.347   3.431  -0.452  1.00  0.00     0.048 C 
BRANCH  17  18
ATOM     18  C   UNL     1       1.060   3.338   1.051  1.00  0.00     0.230 C 
BRANCH  18  19
ATOM     19  O   UNL     1       1.390   2.039   1.551  1.00  0.00    -0.492 OA
BRANCH  19  20
ATOM     20  C   UNL     1       0.501   0.982   1.818  1.00  0.00     0.137 A 
ATOM     21  C   UNL     1      -0.891   1.165   1.960  1.00  0.00     0.049 A 
ATOM     22  C   UNL     1       1.035  -0.309   1.974  1.00  0.00     0.084 A 
ATOM     23  C   UNL     1      -1.719   0.078   2.255  1.00  0.00     0.024 A 
ATOM     24  C   UNL     1       0.199  -1.392   2.266  1.00  0.00     0.045 A 
ATOM     25  C   UNL     1      -1.176  -1.200   2.409  1.00  0.00     0.042 A 
ATOM     26  Cl  UNL     1       2.761  -0.585   1.796  1.00  0.00    -0.080 Cl
ATOM     27  Cl  UNL     1      -2.221  -2.561   2.773  1.00  0.00    -0.084 Cl
ENDBRANCH  19  20
ENDBRANCH  18  19
ENDBRANCH  17  18
ENDBRANCH  16  17
ENDBRANCH   1  16
TORSDOF 10
