REMARK SMILES O=C(CCCOc1ccc(Cl)cc1Cl)[N-]/N=C\c1cccc(C(F)(F)F)c1
REMARK SMILES IDX 2 1 1 2 15 3 16 4 17 5 18 6 19 7 27 8 20 9 22 10 21 11 23 12
REMARK SMILES IDX 24 13 25 14 26 15 3 16 4 17 5 18 6 19 7 20 8 21 13 22 9 23
REMARK SMILES IDX 12 24 10 25 14 26 11 27
REMARK H PARENT
ROOT
ATOM      1  C   UNL     1      -1.363   0.002  -3.829  1.00  0.00     0.068 C 
ATOM      2  O   UNL     1      -1.341   0.802  -4.802  1.00  0.00    -0.319 OA
ENDROOT
BRANCH   1   3
ATOM      3  N   UNL     1      -1.376   0.532  -2.502  1.00  0.00    -0.545 NA
BRANCH   3   4
ATOM      4  N   UNL     1      -1.546  -0.289  -1.377  1.00  0.00    -0.372 NA
BRANCH   4   5
ATOM      5  C   UNL     1      -1.473   0.152  -0.157  1.00  0.00     0.094 C 
BRANCH   5   6
ATOM      6  C   UNL     1      -1.180   1.561   0.192  1.00  0.00    -0.009 A 
ATOM      7  C   UNL     1      -1.775   2.635  -0.492  1.00  0.00     0.009 A 
ATOM      8  C   UNL     1      -0.338   1.827   1.283  1.00  0.00     0.022 A 
ATOM      9  C   UNL     1      -1.499   3.951  -0.114  1.00  0.00     0.001 A 
ATOM     10  C   UNL     1      -0.028   3.148   1.648  1.00  0.00     0.056 A 
ATOM     11  C   UNL     1      -0.632   4.209   0.950  1.00  0.00     0.013 A 
BRANCH  10  12
ATOM     12  C   UNL     1       0.868   3.412   2.832  1.00  0.00     0.416 C 
ATOM     13  F   UNL     1       0.129   3.300   3.995  1.00  0.00    -0.166 F 
ATOM     14  F   UNL     1       1.903   2.492   2.863  1.00  0.00    -0.166 F 
ATOM     15  F   UNL     1       1.418   4.681   2.768  1.00  0.00    -0.166 F 
ENDBRANCH  10  12
ENDBRANCH   5   6
ENDBRANCH   4   5
ENDBRANCH   3   4
ENDBRANCH   1   3
BRANCH   1  16
ATOM     16  C   UNL     1      -1.441  -1.482  -4.076  1.00  0.00     0.060 C 
BRANCH  16  17
ATOM     17  C   UNL     1      -0.609  -1.937  -5.286  1.00  0.00     0.048 C 
BRANCH  17  18
ATOM     18  C   UNL     1       0.900  -1.707  -5.127  1.00  0.00     0.230 C 
BRANCH  18  19
ATOM     19  O   UNL     1       1.427  -2.480  -4.044  1.00  0.00    -0.492 OA
BRANCH  19  20
ATOM     20  C   UNL     1       1.640  -2.045  -2.723  1.00  0.00     0.137 A 
ATOM     21  C   UNL     1       1.691  -0.683  -2.361  1.00  0.00     0.049 A 
ATOM     22  C   UNL     1       1.834  -3.019  -1.729  1.00  0.00     0.084 A 
ATOM     23  C   UNL     1       1.925  -0.312  -1.034  1.00  0.00     0.024 A 
ATOM     24  C   UNL     1       2.068  -2.641  -0.402  1.00  0.00     0.045 A 
ATOM     25  C   UNL     1       2.115  -1.290  -0.054  1.00  0.00     0.042 A 
ATOM     26  Cl  UNL     1       1.777  -4.728  -2.135  1.00  0.00    -0.080 Cl
ATOM     27  Cl  UNL     1       2.422  -0.821   1.607  1.00  0.00    -0.084 Cl
ENDBRANCH  19  20
ENDBRANCH  18  19
ENDBRANCH  17  18
ENDBRANCH  16  17
ENDBRANCH   1  16
TORSDOF 10
