REMARK SMILES O=S(=O)(Cc1ccccc1)N1Cc2ccccc2[C@H]1c1c[nH]c2ccccc12
REMARK SMILES IDX 11 1 12 2 13 3 14 4 15 5 16 6 17 7 18 8 19 9 2 10 1 11 3 12
REMARK SMILES IDX 4 13 5 14 6 15 10 16 7 17 9 18 8 19 20 20 21 21 28 22 22 23
REMARK SMILES IDX 27 24 23 25 26 26 24 27 25 28
REMARK H PARENT 22 29
ROOT
ATOM      1  N   UNL     1       0.941  -0.405  -0.689  1.00  0.00    -0.185 NA
ATOM      2  C   UNL     1      -0.153  -1.385  -0.887  1.00  0.00     0.139 C 
ATOM      3  C   UNL     1      -1.316  -0.594  -1.339  1.00  0.00    -0.028 A 
ATOM      4  C   UNL     1      -2.622  -1.034  -1.564  1.00  0.00     0.005 A 
ATOM      5  C   UNL     1      -3.574  -0.103  -2.010  1.00  0.00     0.000 A 
ATOM      6  C   UNL     1      -3.204   1.238  -2.230  1.00  0.00     0.000 A 
ATOM      7  C   UNL     1      -1.881   1.650  -2.000  1.00  0.00     0.006 A 
ATOM      8  C   UNL     1      -0.959   0.706  -1.540  1.00  0.00    -0.021 A 
ATOM      9  C   UNL     1       0.486   0.885  -1.262  1.00  0.00     0.136 C 
ENDROOT
BRANCH   1  10
ATOM     10  S   UNL     1       2.442  -0.927  -1.422  1.00  0.00     0.219 S 
ATOM     11  O   UNL     1       3.395   0.235  -1.477  1.00  0.00    -0.212 OA
ATOM     12  O   UNL     1       2.199  -1.418  -2.823  1.00  0.00    -0.212 OA
BRANCH  10  13
ATOM     13  C   UNL     1       3.216  -2.213  -0.448  1.00  0.00     0.189 C 
BRANCH  13  14
ATOM     14  C   UNL     1       2.333  -3.423  -0.320  1.00  0.00    -0.032 A 
ATOM     15  C   UNL     1       2.197  -4.317  -1.396  1.00  0.00     0.005 A 
ATOM     16  C   UNL     1       1.618  -3.660   0.866  1.00  0.00     0.005 A 
ATOM     17  C   UNL     1       1.354  -5.426  -1.287  1.00  0.00     0.000 A 
ATOM     18  C   UNL     1       0.776  -4.771   0.970  1.00  0.00     0.000 A 
ATOM     19  C   UNL     1       0.643  -5.653  -0.106  1.00  0.00     0.000 A 
ENDBRANCH  13  14
ENDBRANCH  10  13
ENDBRANCH   1  10
BRANCH   9  20
ATOM     20  C   UNL     1       0.724   1.998  -0.279  1.00  0.00     0.000 A 
ATOM     21  C   UNL     1       1.457   3.157  -0.519  1.00  0.00     0.089 A 
ATOM     22  C   UNL     1       0.283   2.100   1.029  1.00  0.00     0.005 A 
ATOM     23  N   UNL     1       1.473   3.943   0.581  1.00  0.00    -0.361 N 
ATOM     24  C   UNL     1      -0.493   1.246   1.816  1.00  0.00     0.011 A 
ATOM     25  C   UNL     1       0.758   3.292   1.514  1.00  0.00     0.046 A 
ATOM     26  C   UNL     1      -0.776   1.644   3.135  1.00  0.00     0.001 A 
ATOM     27  C   UNL     1       0.493   3.711   2.817  1.00  0.00     0.026 A 
ATOM     28  C   UNL     1      -0.285   2.871   3.633  1.00  0.00     0.002 A 
ATOM     29  H   UNL     1       1.948   4.868   0.681  1.00  0.00     0.166 HD
ENDBRANCH   9  20
TORSDOF 4
