REMARK SMILES O=S(=O)(Cc1ccccc1)N1Cc2ccccc2[C@@H]1c1c[nH]c2ccccc12
REMARK SMILES IDX 11 1 12 2 13 3 14 4 15 5 16 6 17 7 18 8 19 9 2 10 1 11 3 12
REMARK SMILES IDX 4 13 5 14 6 15 10 16 7 17 9 18 8 19 20 20 21 21 28 22 22 23
REMARK SMILES IDX 27 24 23 25 26 26 24 27 25 28
REMARK H PARENT 22 29
ROOT
ATOM      1  N   UNL     1       0.676  -0.250  -0.075  1.00  0.00    -0.185 NA
ATOM      2  C   UNL     1       1.829  -0.732   0.719  1.00  0.00     0.139 C 
ATOM      3  C   UNL     1       1.536  -0.338   2.112  1.00  0.00    -0.028 A 
ATOM      4  C   UNL     1       2.254  -0.655   3.267  1.00  0.00     0.005 A 
ATOM      5  C   UNL     1       1.804  -0.147   4.496  1.00  0.00     0.000 A 
ATOM      6  C   UNL     1       0.658   0.669   4.547  1.00  0.00     0.000 A 
ATOM      7  C   UNL     1      -0.041   0.978   3.368  1.00  0.00     0.006 A 
ATOM      8  C   UNL     1       0.421   0.446   2.161  1.00  0.00    -0.021 A 
ATOM      9  C   UNL     1      -0.118   0.648   0.795  1.00  0.00     0.136 C 
ENDROOT
BRANCH   1  10
ATOM     10  S   UNL     1       1.193   0.566  -1.529  1.00  0.00     0.219 S 
ATOM     11  O   UNL     1       2.104   1.712  -1.185  1.00  0.00    -0.212 OA
ATOM     12  O   UNL     1      -0.012   1.094  -2.257  1.00  0.00    -0.212 OA
BRANCH  10  13
ATOM     13  C   UNL     1       2.053  -0.591  -2.584  1.00  0.00     0.189 C 
BRANCH  13  14
ATOM     14  C   UNL     1       2.467   0.076  -3.865  1.00  0.00    -0.032 A 
ATOM     15  C   UNL     1       1.603   0.082  -4.973  1.00  0.00     0.005 A 
ATOM     16  C   UNL     1       3.700   0.744  -3.949  1.00  0.00     0.005 A 
ATOM     17  C   UNL     1       1.977   0.731  -6.154  1.00  0.00     0.000 A 
ATOM     18  C   UNL     1       4.070   1.392  -5.132  1.00  0.00     0.000 A 
ATOM     19  C   UNL     1       3.211   1.384  -6.234  1.00  0.00     0.000 A 
ENDBRANCH  13  14
ENDBRANCH  10  13
ENDBRANCH   1  10
BRANCH   9  20
ATOM     20  C   UNL     1      -1.575   0.286   0.717  1.00  0.00     0.000 A 
ATOM     21  C   UNL     1      -2.612   1.141   0.356  1.00  0.00     0.089 A 
ATOM     22  C   UNL     1      -2.173  -0.937   0.973  1.00  0.00     0.005 A 
ATOM     23  N   UNL     1      -3.796   0.489   0.386  1.00  0.00    -0.361 N 
ATOM     24  C   UNL     1      -1.640  -2.164   1.372  1.00  0.00     0.011 A 
ATOM     25  C   UNL     1      -3.518  -0.771   0.762  1.00  0.00     0.046 A 
ATOM     26  C   UNL     1      -2.529  -3.239   1.554  1.00  0.00     0.001 A 
ATOM     27  C   UNL     1      -4.422  -1.819   0.934  1.00  0.00     0.026 A 
ATOM     28  C   UNL     1      -3.913  -3.067   1.335  1.00  0.00     0.002 A 
ATOM     29  H   UNL     1      -4.735   0.888   0.162  1.00  0.00     0.166 HD
ENDBRANCH   9  20
TORSDOF 4
