REMARK SMILES O=S(=O)(Cc1ccccc1)N1C=Cc2ccccc2[C@H]1c1c[nH]c2ccccc12
REMARK SMILES IDX 11 1 12 2 13 3 14 4 15 5 16 6 17 7 18 8 19 9 20 10 2 11 1 12
REMARK SMILES IDX 3 13 4 14 5 15 6 16 10 17 7 18 9 19 8 20 21 21 22 22 29 23
REMARK SMILES IDX 23 24 28 25 24 26 27 27 25 28 26 29
REMARK H PARENT 23 30
ROOT
ATOM      1  N   UNL     1       0.075   0.596  -1.214  1.00  0.00    -0.265 N 
ATOM      2  C   UNL     1      -1.010   0.738  -2.144  1.00  0.00     0.099 C 
ATOM      3  C   UNL     1      -2.136   1.359  -1.804  1.00  0.00     0.027 C 
ATOM      4  C   UNL     1      -2.310   1.921  -0.458  1.00  0.00    -0.019 A 
ATOM      5  C   UNL     1      -3.488   2.611  -0.136  1.00  0.00     0.008 A 
ATOM      6  C   UNL     1      -3.656   3.162   1.137  1.00  0.00     0.001 A 
ATOM      7  C   UNL     1      -2.648   3.031   2.094  1.00  0.00     0.000 A 
ATOM      8  C   UNL     1      -1.472   2.343   1.783  1.00  0.00     0.007 A 
ATOM      9  C   UNL     1      -1.295   1.774   0.509  1.00  0.00    -0.013 A 
ATOM     10  C   UNL     1      -0.019   1.018   0.196  1.00  0.00     0.162 C 
ENDROOT
BRANCH   1  11
ATOM     11  S   UNL     1       1.539  -0.146  -1.786  1.00  0.00     0.239 S 
ATOM     12  O   UNL     1       1.913   0.440  -3.119  1.00  0.00    -0.206 OA
ATOM     13  O   UNL     1       2.657   0.119  -0.815  1.00  0.00    -0.206 OA
BRANCH  11  14
ATOM     14  C   UNL     1       1.273  -1.905  -1.954  1.00  0.00     0.195 C 
BRANCH  14  15
ATOM     15  C   UNL     1       2.569  -2.653  -1.825  1.00  0.00    -0.031 A 
ATOM     16  C   UNL     1       2.986  -3.134  -0.572  1.00  0.00     0.005 A 
ATOM     17  C   UNL     1       3.402  -2.828  -2.943  1.00  0.00     0.005 A 
ATOM     18  C   UNL     1       4.209  -3.799  -0.446  1.00  0.00     0.000 A 
ATOM     19  C   UNL     1       4.624  -3.494  -2.812  1.00  0.00     0.000 A 
ATOM     20  C   UNL     1       5.027  -3.981  -1.565  1.00  0.00     0.000 A 
ENDBRANCH  14  15
ENDBRANCH  11  14
ENDBRANCH   1  11
BRANCH  10  21
ATOM     21  C   UNL     1       0.119  -0.179   1.105  1.00  0.00     0.005 A 
ATOM     22  C   UNL     1       1.156  -0.405   2.005  1.00  0.00     0.089 A 
ATOM     23  C   UNL     1      -0.697  -1.294   1.193  1.00  0.00     0.005 A 
ATOM     24  N   UNL     1       0.999  -1.597   2.623  1.00  0.00    -0.361 N 
ATOM     25  C   UNL     1      -1.870  -1.642   0.520  1.00  0.00     0.011 A 
ATOM     26  C   UNL     1      -0.127  -2.129   2.121  1.00  0.00     0.046 A 
ATOM     27  C   UNL     1      -2.459  -2.883   0.822  1.00  0.00     0.001 A 
ATOM     28  C   UNL     1      -0.688  -3.366   2.438  1.00  0.00     0.026 A 
ATOM     29  C   UNL     1      -1.870  -3.741   1.777  1.00  0.00     0.002 A 
ATOM     30  H   UNL     1       1.635  -2.020   3.335  1.00  0.00     0.166 HD
ENDBRANCH  10  21
TORSDOF 4
