REMARK SMILES O=S(=O)(Cc1ccccc1)N1C=Cc2ccccc2[C@@H]1c1c[nH]c2ccccc12
REMARK SMILES IDX 11 1 12 2 13 3 14 4 15 5 16 6 17 7 18 8 19 9 20 10 2 11 1 12
REMARK SMILES IDX 3 13 4 14 5 15 6 16 10 17 7 18 9 19 8 20 21 21 22 22 29 23
REMARK SMILES IDX 23 24 28 25 24 26 27 27 25 28 26 29
REMARK H PARENT 23 30
ROOT
ATOM      1  N   UNL     1       1.214   0.440   1.380  1.00  0.00    -0.265 N 
ATOM      2  C   UNL     1       1.523   1.616   2.146  1.00  0.00     0.099 C 
ATOM      3  C   UNL     1       2.538   2.408   1.806  1.00  0.00     0.027 C 
ATOM      4  C   UNL     1       3.378   2.089   0.641  1.00  0.00    -0.019 A 
ATOM      5  C   UNL     1       4.530   2.843   0.376  1.00  0.00     0.008 A 
ATOM      6  C   UNL     1       5.340   2.528  -0.718  1.00  0.00     0.001 A 
ATOM      7  C   UNL     1       5.004   1.460  -1.554  1.00  0.00     0.000 A 
ATOM      8  C   UNL     1       3.855   0.707  -1.300  1.00  0.00     0.007 A 
ATOM      9  C   UNL     1       3.035   1.012  -0.200  1.00  0.00    -0.013 A 
ATOM     10  C   UNL     1       1.756   0.234   0.026  1.00  0.00     0.162 C 
ENDROOT
BRANCH   1  11
ATOM     11  S   UNL     1      -0.026  -0.622   1.975  1.00  0.00     0.239 S 
ATOM     12  O   UNL     1       0.176  -0.854   3.446  1.00  0.00    -0.206 OA
ATOM     13  O   UNL     1       0.055  -1.945   1.265  1.00  0.00    -0.206 OA
BRANCH  11  14
ATOM     14  C   UNL     1      -1.625   0.127   1.699  1.00  0.00     0.195 C 
BRANCH  14  15
ATOM     15  C   UNL     1      -2.700  -0.921   1.654  1.00  0.00    -0.031 A 
ATOM     16  C   UNL     1      -3.124  -1.449   0.423  1.00  0.00     0.005 A 
ATOM     17  C   UNL     1      -3.251  -1.423   2.845  1.00  0.00     0.005 A 
ATOM     18  C   UNL     1      -4.097  -2.452   0.384  1.00  0.00     0.000 A 
ATOM     19  C   UNL     1      -4.225  -2.425   2.802  1.00  0.00     0.000 A 
ATOM     20  C   UNL     1      -4.648  -2.939   1.573  1.00  0.00     0.000 A 
ENDBRANCH  14  15
ENDBRANCH  11  14
ENDBRANCH   1  11
BRANCH  10  21
ATOM     21  C   UNL     1       0.724   0.640  -0.994  1.00  0.00     0.005 A 
ATOM     22  C   UNL     1       0.245   1.930  -1.219  1.00  0.00     0.089 A 
ATOM     23  C   UNL     1      -0.036  -0.184  -1.805  1.00  0.00     0.005 A 
ATOM     24  N   UNL     1      -0.752   1.913  -2.131  1.00  0.00    -0.361 N 
ATOM     25  C   UNL     1      -0.034  -1.569  -1.982  1.00  0.00     0.011 A 
ATOM     26  C   UNL     1      -0.917   0.625  -2.478  1.00  0.00     0.046 A 
ATOM     27  C   UNL     1      -0.970  -2.119  -2.875  1.00  0.00     0.001 A 
ATOM     28  C   UNL     1      -1.857   0.106  -3.368  1.00  0.00     0.026 A 
ATOM     29  C   UNL     1      -1.877  -1.286  -3.565  1.00  0.00     0.002 A 
ATOM     30  H   UNL     1      -1.298   2.734  -2.475  1.00  0.00     0.166 HD
ENDBRANCH  10  21
TORSDOF 4
