REMARK SMILES O=C(CCCOc1ccc(Cl)cc1Cl)[N-]/N=C\c1cccnc1F
REMARK SMILES IDX 2 1 1 2 15 3 16 4 17 5 18 6 23 7 19 8 22 9 20 10 21 11 24 12
REMARK SMILES IDX 3 13 4 14 5 15 6 16 7 17 8 18 13 19 9 20 12 21 10 22 14 23
REMARK SMILES IDX 11 24
REMARK H PARENT
ROOT
ATOM      1  C   UNL     1       0.239   0.016   1.267  1.00  0.00     0.068 C 
ATOM      2  O   UNL     1       0.282  -1.035   1.962  1.00  0.00    -0.319 OA
ENDROOT
BRANCH   1   3
ATOM      3  N   UNL     1       0.056   1.284   1.893  1.00  0.00    -0.545 NA
BRANCH   3   4
ATOM      4  N   UNL     1      -0.049   1.398   3.286  1.00  0.00    -0.372 NA
BRANCH   4   5
ATOM      5  C   UNL     1      -0.215   2.537   3.887  1.00  0.00     0.099 C 
BRANCH   5   6
ATOM      6  C   UNL     1      -0.300   3.826   3.168  1.00  0.00     0.046 A 
ATOM      7  C   UNL     1       0.670   4.225   2.229  1.00  0.00     0.221 A 
ATOM      8  C   UNL     1      -1.341   4.713   3.473  1.00  0.00     0.016 A 
ATOM      9  N   UNL     1       0.562   5.430   1.608  1.00  0.00    -0.228 NA
ATOM     10  C   UNL     1      -1.431   5.941   2.816  1.00  0.00     0.021 A 
ATOM     11  C   UNL     1      -0.463   6.283   1.871  1.00  0.00     0.114 A 
ATOM     12  F   UNL     1       1.749   3.445   1.967  1.00  0.00    -0.184 F 
ENDBRANCH   5   6
ENDBRANCH   4   5
ENDBRANCH   3   4
ENDBRANCH   1   3
BRANCH   1  13
ATOM     13  C   UNL     1       0.333  -0.069  -0.224  1.00  0.00     0.060 C 
BRANCH  13  14
ATOM     14  C   UNL     1      -1.064  -0.183  -0.841  1.00  0.00     0.048 C 
BRANCH  14  15
ATOM     15  C   UNL     1      -1.042  -0.164  -2.374  1.00  0.00     0.230 C 
BRANCH  15  16
ATOM     16  O   UNL     1      -0.479  -1.368  -2.901  1.00  0.00    -0.492 OA
BRANCH  16  17
ATOM     17  C   UNL     1       0.875  -1.600  -3.206  1.00  0.00     0.137 A 
ATOM     18  C   UNL     1       1.850  -0.581  -3.187  1.00  0.00     0.049 A 
ATOM     19  C   UNL     1       1.263  -2.905  -3.553  1.00  0.00     0.084 A 
ATOM     20  C   UNL     1       3.182  -0.871  -3.498  1.00  0.00     0.024 A 
ATOM     21  C   UNL     1       2.598  -3.189  -3.865  1.00  0.00     0.045 A 
ATOM     22  C   UNL     1       3.557  -2.173  -3.836  1.00  0.00     0.042 A 
ATOM     23  Cl  UNL     1       0.081  -4.205  -3.594  1.00  0.00    -0.080 Cl
ATOM     24  Cl  UNL     1       5.229  -2.533  -4.226  1.00  0.00    -0.084 Cl
ENDBRANCH  16  17
ENDBRANCH  15  16
ENDBRANCH  14  15
ENDBRANCH  13  14
ENDBRANCH   1  13
TORSDOF 9
