REMARK SMILES O=C(CCCOc1ccc(Cl)cc1Cl)[N-]/N=C/c1cccnc1F
REMARK SMILES IDX 2 1 1 2 15 3 16 4 17 5 18 6 23 7 19 8 22 9 20 10 21 11 24 12
REMARK SMILES IDX 3 13 4 14 5 15 6 16 7 17 8 18 13 19 9 20 12 21 10 22 14 23
REMARK SMILES IDX 11 24
REMARK H PARENT
ROOT
ATOM      1  C   UNL     1       0.290   2.484  -0.830  1.00  0.00     0.068 C 
ATOM      2  O   UNL     1       0.664   3.292  -1.722  1.00  0.00    -0.319 OA
ENDROOT
BRANCH   1   3
ATOM      3  N   UNL     1      -0.144   1.172  -1.185  1.00  0.00    -0.545 NA
BRANCH   3   4
ATOM      4  N   UNL     1      -0.158   0.753  -2.521  1.00  0.00    -0.372 NA
BRANCH   4   5
ATOM      5  C   UNL     1      -0.534  -0.446  -2.833  1.00  0.00     0.099 C 
BRANCH   5   6
ATOM      6  C   UNL     1      -0.549  -0.911  -4.237  1.00  0.00     0.046 A 
ATOM      7  C   UNL     1      -0.191  -0.079  -5.319  1.00  0.00     0.221 A 
ATOM      8  C   UNL     1      -0.933  -2.233  -4.511  1.00  0.00     0.016 A 
ATOM      9  N   UNL     1      -0.222  -0.564  -6.590  1.00  0.00    -0.228 NA
ATOM     10  C   UNL     1      -0.954  -2.701  -5.826  1.00  0.00     0.021 A 
ATOM     11  C   UNL     1      -0.591  -1.843  -6.863  1.00  0.00     0.114 A 
ATOM     12  F   UNL     1       0.188   1.208  -5.122  1.00  0.00    -0.184 F 
ENDBRANCH   5   6
ENDBRANCH   4   5
ENDBRANCH   3   4
ENDBRANCH   1   3
BRANCH   1  13
ATOM     13  C   UNL     1       0.340   2.887   0.612  1.00  0.00     0.060 C 
BRANCH  13  14
ATOM     14  C   UNL     1       1.760   2.776   1.188  1.00  0.00     0.048 C 
BRANCH  14  15
ATOM     15  C   UNL     1       2.288   1.332   1.229  1.00  0.00     0.230 C 
BRANCH  15  16
ATOM     16  O   UNL     1       1.441   0.467   1.991  1.00  0.00    -0.492 OA
BRANCH  16  17
ATOM     17  C   UNL     1       0.981   0.693   3.300  1.00  0.00     0.137 A 
ATOM     18  C   UNL     1      -0.363   0.392   3.561  1.00  0.00     0.049 A 
ATOM     19  C   UNL     1       1.793   1.184   4.353  1.00  0.00     0.084 A 
ATOM     20  C   UNL     1      -0.914   0.615   4.824  1.00  0.00     0.024 A 
ATOM     21  C   UNL     1       1.228   1.405   5.617  1.00  0.00     0.045 A 
ATOM     22  C   UNL     1      -0.121   1.130   5.851  1.00  0.00     0.042 A 
ATOM     23  Cl  UNL     1       3.524   1.440   4.197  1.00  0.00    -0.080 Cl
ATOM     24  Cl  UNL     1      -0.813   1.408   7.439  1.00  0.00    -0.084 Cl
ENDBRANCH  16  17
ENDBRANCH  15  16
ENDBRANCH  14  15
ENDBRANCH  13  14
ENDBRANCH   1  13
TORSDOF 9
