REMARK SMILES NC(=O)c1ccc2cc(C(=O)N3C[C@]4(CCN([C@@H]5CCNC5)C4)c4ccccc43)[nH]c2c1
REMARK SMILES IDX 10 1 11 2 9 3 4 4 5 5 32 6 6 7 31 8 7 9 30 10 8 11 2 13 1 14
REMARK SMILES IDX 3 17 12 18 13 19 29 20 14 21 28 22 24 23 15 24 23 25 27 26
REMARK SMILES IDX 25 27 16 28 17 29 26 30 18 31 19 32 22 33 20 34 21 35
REMARK H PARENT 30 12 1 15 1 16 21 36
ROOT
ATOM      1  C   UNL     1      -3.386  -1.194  -0.886  1.00  0.00     0.274 C 
ATOM      2  O   UNL     1      -4.536  -0.701  -0.748  1.00  0.00    -0.267 OA
ENDROOT
BRANCH   1   3
ATOM      3  C   UNL     1      -3.134  -2.580  -0.453  1.00  0.00     0.106 A 
ATOM      4  C   UNL     1      -1.544  -6.521   1.081  1.00  0.00     0.041 A 
ATOM      5  C   UNL     1      -2.934  -6.826   1.091  1.00  0.00     0.014 A 
ATOM      6  C   UNL     1      -1.124  -5.243   0.645  1.00  0.00     0.040 A 
ATOM      7  C   UNL     1      -3.887  -5.881   0.668  1.00  0.00     0.011 A 
ATOM      8  C   UNL     1      -2.095  -4.336   0.222  1.00  0.00     0.047 A 
ATOM      9  C   UNL     1      -3.428  -4.644   0.235  1.00  0.00     0.000 A 
ATOM     10  N   UNL     1      -1.900  -3.076  -0.194  1.00  0.00    -0.350 N 
ATOM     11  C   UNL     1      -4.118  -3.530  -0.189  1.00  0.00     0.042 A 
ATOM     12  H   UNL     1      -0.986  -2.575  -0.259  1.00  0.00     0.167 HD
BRANCH   4  13
ATOM     13  C   UNL     1      -0.566  -7.531   1.558  1.00  0.00     0.248 C 
ATOM     14  N   UNL     1       0.828  -7.435   1.245  1.00  0.00    -0.366 N 
ATOM     15  H   UNL     1       1.497  -8.126   1.648  1.00  0.00     0.159 HD
ATOM     16  H   UNL     1       1.200  -6.738   0.562  1.00  0.00     0.159 HD
ATOM     17  O   UNL     1      -0.967  -8.508   2.249  1.00  0.00    -0.270 OA
ENDBRANCH   4  13
ENDBRANCH   1   3
BRANCH   1  18
ATOM     18  N   UNL     1      -2.332  -0.381  -1.410  1.00  0.00    -0.306 N 
ATOM     19  C   UNL     1      -1.987   0.938  -0.885  1.00  0.00     0.139 C 
ATOM     20  C   UNL     1      -1.368  -0.766  -2.377  1.00  0.00     0.048 A 
ATOM     21  C   UNL     1      -0.596   1.293  -1.520  1.00  0.00     0.029 C 
ATOM     22  C   UNL     1      -1.394  -1.909  -3.184  1.00  0.00     0.026 A 
ATOM     23  C   UNL     1      -0.368   0.163  -2.487  1.00  0.00    -0.015 A 
ATOM     24  C   UNL     1      -0.597   2.663  -2.177  1.00  0.00     0.030 C 
ATOM     25  C   UNL     1       0.519   1.399  -0.466  1.00  0.00     0.098 C 
ATOM     26  C   UNL     1      -0.343  -2.111  -4.091  1.00  0.00     0.002 A 
ATOM     27  C   UNL     1       0.693  -0.024  -3.379  1.00  0.00     0.006 A 
ATOM     28  C   UNL     1      -0.192   3.583  -1.041  1.00  0.00     0.086 C 
ATOM     29  N   UNL     1       0.745   2.833  -0.186  1.00  0.00    -0.298 NA
ATOM     30  C   UNL     1       0.700  -1.173  -4.185  1.00  0.00     0.000 A 
BRANCH  29  31
ATOM     31  C   UNL     1       0.590   3.161   1.249  1.00  0.00     0.071 C 
ATOM     32  C   UNL     1       0.813   4.637   1.527  1.00  0.00     0.036 C 
ATOM     33  C   UNL     1       1.670   2.499   2.099  1.00  0.00     0.100 C 
ATOM     34  C   UNL     1       1.358   4.675   2.942  1.00  0.00     0.082 C 
ATOM     35  N   UNL     1       1.918   3.359   3.253  1.00  0.00    -0.315 NA
ATOM     36  H   UNL     1       2.951   3.450   3.393  1.00  0.00     0.122 HD
ENDBRANCH  29  31
ENDBRANCH   1  18
TORSDOF 4
