REMARK SMILES [H]/N=c1/nc2nc3ccccn3c(O)c-2cc1C(=O)[N-][C@@H](C)c1ccccc1
REMARK SMILES IDX 18 1 19 2 17 3 3 4 4 5 5 6 16 7 6 8 15 9 7 10 13 11 8 12
REMARK SMILES IDX 12 13 9 14 11 15 10 16 2 17 1 18 14 19 20 21 21 22 22 23
REMARK SMILES IDX 23 24 24 25 28 26 25 27 27 28 26 29
REMARK H PARENT 14 20
ROOT
ATOM      1  C   UNL     1       1.407   0.817   2.298  1.00  0.00     0.086 C 
ATOM      2  O   UNL     1       1.237   1.334   3.435  1.00  0.00    -0.315 OA
ENDROOT
BRANCH   1   3
ATOM      3  C   UNL     1       0.645  -0.389   1.903  1.00  0.00     0.044 A 
ATOM      4  C   UNL     1       0.433  -1.490   2.779  1.00  0.00     0.156 A 
ATOM      5  N   UNL     1      -0.343  -2.533   2.383  1.00  0.00    -0.209 NA
ATOM      6  C   UNL     1      -0.919  -2.587   1.160  1.00  0.00     0.169 A 
ATOM      7  C   UNL     1       0.085  -0.418   0.612  1.00  0.00     0.031 A 
ATOM      8  N   UNL     1      -1.686  -3.641   0.816  1.00  0.00    -0.210 NA
ATOM      9  C   UNL     1      -0.703  -1.500   0.196  1.00  0.00     0.081 A 
ATOM     10  C   UNL     1      -2.268  -3.723  -0.407  1.00  0.00     0.141 A 
ATOM     11  C   UNL     1      -1.316  -1.621  -1.070  1.00  0.00     0.208 A 
ATOM     12  C   UNL     1      -3.054  -4.844  -0.697  1.00  0.00     0.048 A 
ATOM     13  N   UNL     1      -2.090  -2.726  -1.349  1.00  0.00    -0.272 N 
ATOM     14  C   UNL     1      -3.661  -4.956  -1.943  1.00  0.00     0.005 A 
ATOM     15  C   UNL     1      -2.693  -2.844  -2.578  1.00  0.00     0.096 A 
ATOM     16  C   UNL     1      -3.481  -3.954  -2.889  1.00  0.00     0.019 A 
BRANCH   4  17
ATOM     17  N   UNL     1       0.993  -1.561   3.948  1.00  0.00    -0.282 NA
ATOM     18  H   UNL     1       1.641  -0.848   4.346  1.00  0.00     0.189 HD
ENDBRANCH   4  17
BRANCH  11  19
ATOM     19  O   UNL     1      -1.152  -0.637  -2.055  1.00  0.00    -0.494 OA
ATOM     20  H   UNL     1      -0.583   0.191  -1.954  1.00  0.00     0.295 HD
ENDBRANCH  11  19
ENDBRANCH   1   3
BRANCH   1  21
ATOM     21  N   UNL     1       2.292   1.434   1.356  1.00  0.00    -0.643 NA
BRANCH  21  22
ATOM     22  C   UNL     1       2.985   2.695   1.607  1.00  0.00    -0.079 C 
ATOM     23  C   UNL     1       4.019   2.934   0.508  1.00  0.00    -0.008 C 
BRANCH  22  24
ATOM     24  C   UNL     1       1.998   3.841   1.661  1.00  0.00    -0.063 A 
ATOM     25  C   UNL     1       1.008   3.987   0.671  1.00  0.00     0.002 A 
ATOM     26  C   UNL     1       2.083   4.797   2.689  1.00  0.00     0.002 A 
ATOM     27  C   UNL     1       0.111   5.057   0.722  1.00  0.00     0.000 A 
ATOM     28  C   UNL     1       1.183   5.867   2.734  1.00  0.00     0.000 A 
ATOM     29  C   UNL     1       0.197   5.995   1.753  1.00  0.00     0.000 A 
ENDBRANCH  22  24
ENDBRANCH  21  22
ENDBRANCH   1  21
TORSDOF 6
