REMARK SMILES [H]/N=c1\nc2nc3ccccn3c(O)c-2cc1C(=O)[N-][C@@H](C)c1ccccc1
REMARK SMILES IDX 18 1 19 2 17 3 3 4 4 5 5 6 16 7 6 8 15 9 7 10 13 11 8 12
REMARK SMILES IDX 12 13 9 14 11 15 10 16 2 17 1 18 14 19 20 21 21 22 22 23
REMARK SMILES IDX 23 24 24 25 28 26 25 27 27 28 26 29
REMARK H PARENT 14 20
ROOT
ATOM      1  C   UNL     1       2.179   2.080  -1.297  1.00  0.00     0.086 C 
ATOM      2  O   UNL     1       2.004   3.076  -2.046  1.00  0.00    -0.315 OA
ENDROOT
BRANCH   1   3
ATOM      3  C   UNL     1       1.110   1.704  -0.355  1.00  0.00     0.044 A 
ATOM      4  C   UNL     1       0.857   2.463   0.810  1.00  0.00     0.156 A 
ATOM      5  N   UNL     1      -0.126   2.088   1.675  1.00  0.00    -0.209 NA
ATOM      6  C   UNL     1      -0.904   1.002   1.444  1.00  0.00     0.169 A 
ATOM      7  C   UNL     1       0.298   0.601  -0.657  1.00  0.00     0.031 A 
ATOM      8  N   UNL     1      -1.849   0.631   2.329  1.00  0.00    -0.210 NA
ATOM      9  C   UNL     1      -0.714   0.213   0.226  1.00  0.00     0.081 A 
ATOM     10  C   UNL     1      -2.638  -0.453   2.110  1.00  0.00     0.141 A 
ATOM     11  C   UNL     1      -1.528  -0.910   0.032  1.00  0.00     0.208 A 
ATOM     12  C   UNL     1      -3.603  -0.768   3.073  1.00  0.00     0.048 A 
ATOM     13  N   UNL     1      -2.505  -1.221   0.961  1.00  0.00    -0.272 N 
ATOM     14  C   UNL     1      -4.451  -1.850   2.874  1.00  0.00     0.005 A 
ATOM     15  C   UNL     1      -3.369  -2.273   0.763  1.00  0.00     0.096 A 
ATOM     16  C   UNL     1      -4.340  -2.602   1.712  1.00  0.00     0.019 A 
BRANCH   4  17
ATOM     17  N   UNL     1       1.565   3.516   1.070  1.00  0.00    -0.282 NA
ATOM     18  H   UNL     1       1.400   4.090   1.927  1.00  0.00     0.189 HD
ENDBRANCH   4  17
BRANCH  11  19
ATOM     19  O   UNL     1      -1.291  -1.691  -1.109  1.00  0.00    -0.494 OA
ATOM     20  H   UNL     1      -1.650  -2.620  -1.267  1.00  0.00     0.295 HD
ENDBRANCH  11  19
ENDBRANCH   1   3
BRANCH   1  21
ATOM     21  N   UNL     1       3.395   1.326  -1.418  1.00  0.00    -0.643 NA
BRANCH  21  22
ATOM     22  C   UNL     1       3.991   0.419  -0.431  1.00  0.00    -0.079 C 
ATOM     23  C   UNL     1       4.441   1.201   0.809  1.00  0.00    -0.008 C 
BRANCH  22  24
ATOM     24  C   UNL     1       3.099  -0.782  -0.156  1.00  0.00    -0.063 A 
ATOM     25  C   UNL     1       2.860  -1.693  -1.202  1.00  0.00     0.002 A 
ATOM     26  C   UNL     1       2.493  -1.018   1.098  1.00  0.00     0.002 A 
ATOM     27  C   UNL     1       2.034  -2.803  -1.005  1.00  0.00     0.000 A 
ATOM     28  C   UNL     1       1.669  -2.132   1.288  1.00  0.00     0.000 A 
ATOM     29  C   UNL     1       1.440  -3.023   0.238  1.00  0.00     0.000 A 
ENDBRANCH  22  24
ENDBRANCH  21  22
ENDBRANCH   1  21
TORSDOF 6
