REMARK SMILES [H]/N=c1/[nH]c2nc3ccccn3c(=O)c2cc1C(=O)[N-][C@@H](C)c1ccccc1
REMARK SMILES IDX 18 1 19 2 17 3 3 4 4 5 16 6 5 7 15 8 6 9 13 10 7 11 12 12
REMARK SMILES IDX 8 13 11 14 9 15 10 16 14 18 2 19 1 20 20 21 21 22 22 23
REMARK SMILES IDX 23 24 24 25 28 26 25 27 27 28 26 29
REMARK H PARENT 4 17
ROOT
ATOM      1  C   UNL     1      -0.279  -0.837  -2.458  1.00  0.00     0.086 C 
ATOM      2  O   UNL     1       0.517  -1.114  -3.393  1.00  0.00    -0.315 OA
ENDROOT
BRANCH   1   3
ATOM      3  C   UNL     1       0.256  -0.202  -1.240  1.00  0.00     0.042 A 
ATOM      4  C   UNL     1       0.362   1.204  -1.115  1.00  0.00     0.133 A 
ATOM      5  N   UNL     1       0.840   1.742   0.044  1.00  0.00    -0.324 N 
ATOM      6  C   UNL     1       0.703  -1.012  -0.191  1.00  0.00     0.031 A 
ATOM      7  C   UNL     1       1.236   0.965   1.089  1.00  0.00     0.146 A 
ATOM      8  C   UNL     1       1.182  -0.434   0.993  1.00  0.00     0.084 A 
ATOM      9  N   UNL     1       1.688   1.543   2.228  1.00  0.00    -0.212 NA
ATOM     10  C   UNL     1       1.605  -1.200   2.093  1.00  0.00     0.267 A 
ATOM     11  C   UNL     1       2.094   0.800   3.289  1.00  0.00     0.142 A 
ATOM     12  N   UNL     1       2.057  -0.578   3.233  1.00  0.00    -0.267 N 
ATOM     13  C   UNL     1       2.549   1.452   4.440  1.00  0.00     0.048 A 
ATOM     14  C   UNL     1       2.471  -1.315   4.316  1.00  0.00     0.096 A 
ATOM     15  C   UNL     1       2.968   0.703   5.535  1.00  0.00     0.005 A 
ATOM     16  C   UNL     1       2.930  -0.687   5.476  1.00  0.00     0.019 A 
ATOM     17  H   UNL     1       0.900   2.782   0.138  1.00  0.00     0.170 HD
ATOM     18  O   UNL     1       1.563  -2.462   2.026  1.00  0.00    -0.268 OA
BRANCH   4  19
ATOM     19  N   UNL     1       0.005   2.002  -2.076  1.00  0.00    -0.284 NA
ATOM     20  H   UNL     1      -0.375   1.678  -2.993  1.00  0.00     0.189 HD
ENDBRANCH   4  19
ENDBRANCH   1   3
BRANCH   1  21
ATOM     21  N   UNL     1      -1.679  -1.104  -2.637  1.00  0.00    -0.643 NA
BRANCH  21  22
ATOM     22  C   UNL     1      -2.745  -1.090  -1.630  1.00  0.00    -0.079 C 
ATOM     23  C   UNL     1      -2.657  -2.335  -0.738  1.00  0.00    -0.008 C 
BRANCH  22  24
ATOM     24  C   UNL     1      -2.809   0.237  -0.889  1.00  0.00    -0.063 A 
ATOM     25  C   UNL     1      -3.210   1.383  -1.600  1.00  0.00     0.002 A 
ATOM     26  C   UNL     1      -2.458   0.374   0.472  1.00  0.00     0.002 A 
ATOM     27  C   UNL     1      -3.255   2.631  -0.973  1.00  0.00     0.000 A 
ATOM     28  C   UNL     1      -2.502   1.625   1.093  1.00  0.00     0.000 A 
ATOM     29  C   UNL     1      -2.899   2.753   0.372  1.00  0.00     0.000 A 
ENDBRANCH  22  24
ENDBRANCH  21  22
ENDBRANCH   1  21
TORSDOF 5
