REMARK SMILES O/C(=C\CCOc1ccc(Cl)cc1Cl)[N-]/N=C\c1cccc(C(F)(F)F)c1
REMARK SMILES IDX 2 1 1 2 15 4 16 5 17 6 18 7 19 8 27 9 20 10 22 11 21 12
REMARK SMILES IDX 23 13 24 14 25 15 26 16 3 17 4 18 5 19 6 20 7 21 8 22 13 23
REMARK SMILES IDX 9 24 12 25 10 26 14 27 11 28
REMARK H PARENT 1 3
ROOT
ATOM      1  C   UNL     1      -0.794  -1.828  -0.822  1.00  0.00     0.023 C 
ENDROOT
BRANCH   1   2
ATOM      2  O   UNL     1      -1.653  -2.917  -0.945  1.00  0.00    -0.530 OA
ATOM      3  H   UNL     1      -2.658  -2.787  -0.935  1.00  0.00     0.290 HD
ENDBRANCH   1   2
BRANCH   1   4
ATOM      4  N   UNL     1      -1.356  -0.520  -0.653  1.00  0.00    -0.546 NA
BRANCH   4   5
ATOM      5  N   UNL     1      -0.564   0.619  -0.442  1.00  0.00    -0.372 NA
BRANCH   5   6
ATOM      6  C   UNL     1      -1.056   1.806  -0.244  1.00  0.00     0.094 C 
BRANCH   6   7
ATOM      7  C   UNL     1      -2.506   2.105  -0.181  1.00  0.00    -0.009 A 
ATOM      8  C   UNL     1      -2.966   3.321  -0.707  1.00  0.00     0.009 A 
ATOM      9  C   UNL     1      -3.419   1.250   0.467  1.00  0.00     0.022 A 
ATOM     10  C   UNL     1      -4.316   3.665  -0.620  1.00  0.00     0.001 A 
ATOM     11  C   UNL     1      -4.786   1.575   0.530  1.00  0.00     0.056 A 
ATOM     12  C   UNL     1      -5.222   2.802  -0.001  1.00  0.00     0.013 A 
BRANCH  11  13
ATOM     13  C   UNL     1      -5.744   0.660   1.252  1.00  0.00     0.416 C 
ATOM     14  F   UNL     1      -5.647   0.882   2.613  1.00  0.00    -0.166 F 
ATOM     15  F   UNL     1      -7.049   0.887   0.851  1.00  0.00    -0.166 F 
ATOM     16  F   UNL     1      -5.434  -0.663   0.986  1.00  0.00    -0.166 F 
ENDBRANCH  11  13
ENDBRANCH   6   7
ENDBRANCH   5   6
ENDBRANCH   4   5
ENDBRANCH   1   4
BRANCH   1  17
ATOM     17  C   UNL     1       0.534  -2.015  -0.859  1.00  0.00    -0.001 C 
BRANCH  17  18
ATOM     18  C   UNL     1       1.133  -3.387  -0.999  1.00  0.00     0.071 C 
BRANCH  18  19
ATOM     19  C   UNL     1       2.651  -3.361  -1.211  1.00  0.00     0.234 C 
BRANCH  19  20
ATOM     20  O   UNL     1       3.329  -2.872  -0.049  1.00  0.00    -0.492 OA
BRANCH  20  21
ATOM     21  C   UNL     1       3.821  -1.568   0.157  1.00  0.00     0.137 A 
ATOM     22  C   UNL     1       3.810  -0.572  -0.844  1.00  0.00     0.049 A 
ATOM     23  C   UNL     1       4.358  -1.253   1.418  1.00  0.00     0.084 A 
ATOM     24  C   UNL     1       4.314   0.705  -0.578  1.00  0.00     0.024 A 
ATOM     25  C   UNL     1       4.861   0.026   1.677  1.00  0.00     0.045 A 
ATOM     26  C   UNL     1       4.839   1.006   0.681  1.00  0.00     0.042 A 
ATOM     27  Cl  UNL     1       4.398  -2.462   2.694  1.00  0.00    -0.080 Cl
ATOM     28  Cl  UNL     1       5.469   2.610   1.010  1.00  0.00    -0.084 Cl
ENDBRANCH  20  21
ENDBRANCH  19  20
ENDBRANCH  18  19
ENDBRANCH  17  18
ENDBRANCH   1  17
TORSDOF 11
