REMARK SMILES O/C(=C\CCOc1ccc(Cl)cc1Cl)[N-]/N=C/c1cccc(C(F)(F)F)c1
REMARK SMILES IDX 2 1 1 2 15 4 16 5 17 6 18 7 19 8 27 9 20 10 22 11 21 12
REMARK SMILES IDX 23 13 24 14 25 15 26 16 3 17 4 18 5 19 6 20 7 21 8 22 13 23
REMARK SMILES IDX 9 24 12 25 10 26 14 27 11 28
REMARK H PARENT 1 3
ROOT
ATOM      1  C   UNL     1      -1.373   0.213  -1.986  1.00  0.00     0.023 C 
ENDROOT
BRANCH   1   2
ATOM      2  O   UNL     1      -1.319  -0.005  -3.360  1.00  0.00    -0.530 OA
ATOM      3  H   UNL     1      -2.141  -0.299  -3.872  1.00  0.00     0.290 HD
ENDBRANCH   1   2
BRANCH   1   4
ATOM      4  N   UNL     1      -2.619   0.018  -1.306  1.00  0.00    -0.546 NA
BRANCH   4   5
ATOM      5  N   UNL     1      -2.756   0.188   0.079  1.00  0.00    -0.372 NA
BRANCH   5   6
ATOM      6  C   UNL     1      -3.896  -0.000   0.661  1.00  0.00     0.094 C 
BRANCH   6   7
ATOM      7  C   UNL     1      -4.044   0.174   2.121  1.00  0.00    -0.009 A 
ATOM      8  C   UNL     1      -5.296  -0.043   2.715  1.00  0.00     0.009 A 
ATOM      9  C   UNL     1      -2.957   0.559   2.928  1.00  0.00     0.022 A 
ATOM     10  C   UNL     1      -5.463   0.129   4.090  1.00  0.00     0.001 A 
ATOM     11  C   UNL     1      -3.113   0.708   4.318  1.00  0.00     0.056 A 
ATOM     12  C   UNL     1      -4.383   0.512   4.888  1.00  0.00     0.013 A 
BRANCH  11  13
ATOM     13  C   UNL     1      -1.955   1.168   5.168  1.00  0.00     0.416 C 
ATOM     14  F   UNL     1      -1.909   2.549   5.165  1.00  0.00    -0.166 F 
ATOM     15  F   UNL     1      -2.096   0.725   6.472  1.00  0.00    -0.166 F 
ATOM     16  F   UNL     1      -0.761   0.675   4.672  1.00  0.00    -0.166 F 
ENDBRANCH  11  13
ENDBRANCH   6   7
ENDBRANCH   5   6
ENDBRANCH   4   5
ENDBRANCH   1   4
BRANCH   1  17
ATOM     17  C   UNL     1      -0.273   0.602  -1.324  1.00  0.00    -0.001 C 
BRANCH  17  18
ATOM     18  C   UNL     1       1.054   0.805  -2.004  1.00  0.00     0.071 C 
BRANCH  18  19
ATOM     19  C   UNL     1       1.725  -0.526  -2.341  1.00  0.00     0.234 C 
BRANCH  19  20
ATOM     20  O   UNL     1       1.944  -1.267  -1.144  1.00  0.00    -0.492 OA
BRANCH  20  21
ATOM     21  C   UNL     1       2.405  -2.592  -1.029  1.00  0.00     0.137 A 
ATOM     22  C   UNL     1       2.351  -3.149   0.257  1.00  0.00     0.049 A 
ATOM     23  C   UNL     1       2.911  -3.386  -2.097  1.00  0.00     0.084 A 
ATOM     24  C   UNL     1       2.767  -4.460   0.494  1.00  0.00     0.024 A 
ATOM     25  C   UNL     1       3.325  -4.701  -1.843  1.00  0.00     0.045 A 
ATOM     26  C   UNL     1       3.253  -5.237  -0.556  1.00  0.00     0.042 A 
ATOM     27  Cl  UNL     1       3.098  -2.826  -3.755  1.00  0.00    -0.080 Cl
ATOM     28  Cl  UNL     1       3.778  -6.885  -0.259  1.00  0.00    -0.084 Cl
ENDBRANCH  20  21
ENDBRANCH  19  20
ENDBRANCH  18  19
ENDBRANCH  17  18
ENDBRANCH   1  17
TORSDOF 11
