REMARK SMILES COc1ccc([C@H](C)NC(=O)[C@@H]2C[C@@H](O)C/[N+]2=C(\O)C[N-]C(=O)c2ccc3cc(F)ccc3n2)c(Cl)c1
REMARK SMILES IDX 17 1 16 2 14 3 13 4 12 5 18 6 19 7 20 9 21 10 22 11 23 12
REMARK SMILES IDX 24 13 34 14 25 15 33 16 26 17 32 18 27 19 31 20 28 21 29 22
REMARK SMILES IDX 30 23 10 24 9 25 11 26 7 28 8 29 6 30 5 31 35 32 4 33 37 34
REMARK SMILES IDX 3 35 36 36 2 37 1 38 15 39
REMARK H PARENT 19 8 9 27 15 40
ROOT
ATOM      1  N   UNL     1      -3.011  -1.048  -0.164  1.00  0.00    -0.189 N 
ATOM      2  C   UNL     1      -3.545  -2.180   0.586  1.00  0.00     0.386 C 
ATOM      3  C   UNL     1      -4.256  -1.595   1.805  1.00  0.00     0.186 C 
ATOM      4  C   UNL     1      -3.720  -0.172   1.959  1.00  0.00     0.125 C 
ATOM      5  C   UNL     1      -3.128   0.205   0.595  1.00  0.00     0.355 C 
ENDROOT
BRANCH   1   6
ATOM      6  C   UNL     1      -2.595  -1.153  -1.410  1.00  0.00     0.316 C 
BRANCH   6   7
ATOM      7  O   UNL     1      -2.517  -2.397  -2.045  1.00  0.00    -0.465 OA
ATOM      8  H   UNL     1      -2.697  -3.279  -1.583  1.00  0.00     0.299 HD
ENDBRANCH   6   7
BRANCH   6   9
ATOM      9  C   UNL     1      -2.121   0.029  -2.215  1.00  0.00     0.039 C 
BRANCH   9  10
ATOM     10  N   UNL     1      -0.670   0.096  -2.142  1.00  0.00    -0.637 NA
BRANCH  10  11
ATOM     11  C   UNL     1       0.161  -0.734  -2.955  1.00  0.00     0.101 C 
ATOM     12  O   UNL     1       0.124  -0.617  -4.210  1.00  0.00    -0.313 OA
BRANCH  11  13
ATOM     13  C   UNL     1       1.022  -1.744  -2.323  1.00  0.00     0.088 A 
ATOM     14  N   UNL     1       0.715  -2.190  -1.074  1.00  0.00    -0.246 NA
ATOM     15  C   UNL     1       2.142  -2.265  -2.990  1.00  0.00     0.031 A 
ATOM     16  C   UNL     1       1.470  -3.121  -0.433  1.00  0.00     0.071 A 
ATOM     17  C   UNL     1       2.942  -3.217  -2.354  1.00  0.00     0.013 A 
ATOM     18  C   UNL     1       1.117  -3.552   0.849  1.00  0.00     0.032 A 
ATOM     19  C   UNL     1       2.615  -3.655  -1.065  1.00  0.00     0.003 A 
ATOM     20  C   UNL     1       1.902  -4.502   1.509  1.00  0.00     0.041 A 
ATOM     21  C   UNL     1       3.398  -4.610  -0.398  1.00  0.00     0.049 A 
ATOM     22  C   UNL     1       3.040  -5.030   0.887  1.00  0.00     0.123 A 
ATOM     23  F   UNL     1       3.794  -5.954   1.532  1.00  0.00    -0.207 F 
ENDBRANCH  11  13
ENDBRANCH  10  11
ENDBRANCH   9  10
ENDBRANCH   6   9
ENDBRANCH   1   6
BRANCH   5  24
ATOM     24  C   UNL     1      -1.800   0.901   0.781  1.00  0.00     0.289 C 
ATOM     25  N   UNL     1      -0.654   0.185   1.266  1.00  0.00    -0.344 N 
ATOM     26  O   UNL     1      -1.726   2.142   0.571  1.00  0.00    -0.267 OA
ATOM     27  H   UNL     1      -0.691  -0.859   1.270  1.00  0.00     0.164 HD
BRANCH  25  28
ATOM     28  C   UNL     1       0.438   0.874   1.964  1.00  0.00     0.111 C 
ATOM     29  C   UNL     1       1.320  -0.131   2.716  1.00  0.00     0.036 C 
BRANCH  28  30
ATOM     30  C   UNL     1       1.266   1.694   0.986  1.00  0.00    -0.007 A 
ATOM     31  C   UNL     1       1.912   1.045  -0.081  1.00  0.00     0.011 A 
ATOM     32  C   UNL     1       1.405   3.098   1.108  1.00  0.00     0.049 A 
ATOM     33  C   UNL     1       2.665   1.763  -1.009  1.00  0.00     0.047 A 
ATOM     34  C   UNL     1       2.166   3.811   0.172  1.00  0.00     0.067 A 
ATOM     35  C   UNL     1       2.798   3.148  -0.894  1.00  0.00     0.120 A 
ATOM     36  Cl  UNL     1       0.650   4.016   2.409  1.00  0.00    -0.084 Cl
BRANCH  35  37
ATOM     37  O   UNL     1       3.563   3.825  -1.854  1.00  0.00    -0.497 OA
ATOM     38  C   UNL     1       3.778   5.234  -1.863  1.00  0.00     0.278 C 
ENDBRANCH  35  37
ENDBRANCH  28  30
ENDBRANCH  25  28
ENDBRANCH   5  24
BRANCH   3  39
ATOM     39  O   UNL     1      -5.652  -1.591   1.625  1.00  0.00    -0.386 OA
ATOM     40  H   UNL     1      -5.856  -1.039   0.826  1.00  0.00     0.211 HD
ENDBRANCH   3  39
TORSDOF 11
