REMARK SMILES COc1ccc([C@H](C)NC(=O)[C@@H]2C[C@@H](O)C/[N+]2=C(/O)C[N-]C(=O)c2ccc3cc(F)ccc3n2)c(Cl)c1
REMARK SMILES IDX 17 1 16 2 14 3 13 4 12 5 18 6 19 7 20 9 21 10 22 11 23 12
REMARK SMILES IDX 24 13 34 14 25 15 33 16 26 17 32 18 27 19 31 20 28 21 29 22
REMARK SMILES IDX 30 23 10 24 9 25 11 26 7 28 8 29 6 30 5 31 35 32 4 33 37 34
REMARK SMILES IDX 3 35 36 36 2 37 1 38 15 39
REMARK H PARENT 19 8 9 27 15 40
ROOT
ATOM      1  N   UNL     1       0.316  -2.873   0.538  1.00  0.00    -0.189 N 
ATOM      2  C   UNL     1       0.724  -3.000  -0.860  1.00  0.00     0.386 C 
ATOM      3  C   UNL     1       2.021  -2.204  -0.993  1.00  0.00     0.186 C 
ATOM      4  C   UNL     1       2.562  -2.066   0.428  1.00  0.00     0.125 C 
ATOM      5  C   UNL     1       1.332  -2.175   1.332  1.00  0.00     0.355 C 
ENDROOT
BRANCH   1   6
ATOM      6  C   UNL     1      -0.804  -3.360   1.033  1.00  0.00     0.316 C 
BRANCH   6   7
ATOM      7  O   UNL     1      -1.110  -3.236   2.393  1.00  0.00    -0.465 OA
ATOM      8  H   UNL     1      -0.517  -2.771   3.067  1.00  0.00     0.299 HD
ENDBRANCH   6   7
BRANCH   6   9
ATOM      9  C   UNL     1      -1.827  -4.086   0.188  1.00  0.00     0.039 C 
BRANCH   9  10
ATOM     10  N   UNL     1      -3.138  -3.463   0.352  1.00  0.00    -0.637 NA
BRANCH  10  11
ATOM     11  C   UNL     1      -3.486  -2.159  -0.131  1.00  0.00     0.101 C 
ATOM     12  O   UNL     1      -4.451  -1.548   0.399  1.00  0.00    -0.313 OA
BRANCH  11  13
ATOM     13  C   UNL     1      -2.734  -1.508  -1.212  1.00  0.00     0.088 A 
ATOM     14  N   UNL     1      -2.184  -0.282  -0.998  1.00  0.00    -0.246 NA
ATOM     15  C   UNL     1      -2.586  -2.132  -2.458  1.00  0.00     0.031 A 
ATOM     16  C   UNL     1      -1.447   0.350  -1.950  1.00  0.00     0.071 A 
ATOM     17  C   UNL     1      -1.843  -1.503  -3.460  1.00  0.00     0.013 A 
ATOM     18  C   UNL     1      -0.866   1.593  -1.678  1.00  0.00     0.032 A 
ATOM     19  C   UNL     1      -1.252  -0.258  -3.210  1.00  0.00     0.003 A 
ATOM     20  C   UNL     1      -0.090   2.230  -2.650  1.00  0.00     0.041 A 
ATOM     21  C   UNL     1      -0.475   0.390  -4.182  1.00  0.00     0.049 A 
ATOM     22  C   UNL     1       0.105   1.631  -3.899  1.00  0.00     0.123 A 
ATOM     23  F   UNL     1       0.857   2.256  -4.839  1.00  0.00    -0.207 F 
ENDBRANCH  11  13
ENDBRANCH  10  11
ENDBRANCH   9  10
ENDBRANCH   6   9
ENDBRANCH   1   6
BRANCH   5  24
ATOM     24  C   UNL     1       0.856  -0.804   1.750  1.00  0.00     0.289 C 
ATOM     25  N   UNL     1       1.536  -0.103   2.802  1.00  0.00    -0.344 N 
ATOM     26  O   UNL     1      -0.112  -0.261   1.152  1.00  0.00    -0.267 OA
ATOM     27  H   UNL     1       2.354  -0.568   3.257  1.00  0.00     0.164 HD
BRANCH  25  28
ATOM     28  C   UNL     1       1.070   1.196   3.300  1.00  0.00     0.111 C 
ATOM     29  C   UNL     1       1.849   1.620   4.550  1.00  0.00     0.036 C 
BRANCH  28  30
ATOM     30  C   UNL     1       1.151   2.269   2.223  1.00  0.00    -0.007 A 
ATOM     31  C   UNL     1       0.026   3.085   2.007  1.00  0.00     0.011 A 
ATOM     32  C   UNL     1       2.316   2.499   1.450  1.00  0.00     0.049 A 
ATOM     33  C   UNL     1       0.043   4.088   1.036  1.00  0.00     0.047 A 
ATOM     34  C   UNL     1       2.319   3.503   0.474  1.00  0.00     0.067 A 
ATOM     35  C   UNL     1       1.191   4.299   0.256  1.00  0.00     0.120 A 
ATOM     36  Cl  UNL     1       3.798   1.573   1.662  1.00  0.00    -0.084 Cl
BRANCH  35  37
ATOM     37  O   UNL     1       1.253   5.284  -0.742  1.00  0.00    -0.497 OA
ATOM     38  C   UNL     1       0.170   6.137  -1.097  1.00  0.00     0.278 C 
ENDBRANCH  35  37
ENDBRANCH  28  30
ENDBRANCH  25  28
ENDBRANCH   5  24
BRANCH   3  39
ATOM     39  O   UNL     1       2.943  -2.815  -1.861  1.00  0.00    -0.386 OA
ATOM     40  H   UNL     1       3.144  -3.721  -1.507  1.00  0.00     0.211 HD
ENDBRANCH   3  39
TORSDOF 11
