REMARK SMILES CC/C(O)=[N+](\c1ccccc1)C1CCN(C(=O)[C@@H]([NH3+])C2Cc3ccccc3C2)CC1
REMARK SMILES IDX 12 1 13 2 14 3 15 4 16 5 17 6 29 7 30 8 5 9 3 10 4 11 2 13
REMARK SMILES IDX 1 14 6 15 7 16 11 17 8 18 10 19 9 20 18 21 20 22 21 23 28 24
REMARK SMILES IDX 22 25 27 26 23 27 26 28 24 29 25 30 19 31
REMARK H PARENT 4 12 19 32 19 33 19 34
ROOT
ATOM      1  C   UNL     1      -1.813   0.041  -0.599  1.00  0.00     0.274 C 
ATOM      2  C   UNL     1      -0.646  -0.888  -1.033  1.00  0.00     0.098 C 
ATOM      3  C   UNL     1       0.216  -0.310  -2.169  1.00  0.00     0.126 C 
ATOM      4  N   UNL     1       0.392   1.144  -2.000  1.00  0.00    -0.337 N 
ATOM      5  C   UNL     1       1.684   1.805  -2.011  1.00  0.00     0.281 C 
ATOM      6  O   UNL     1       1.721   3.067  -1.948  1.00  0.00    -0.268 OA
ATOM      7  C   UNL     1      -0.813   1.982  -1.864  1.00  0.00     0.126 C 
ATOM      8  C   UNL     1      -2.080   1.141  -1.653  1.00  0.00     0.098 C 
ENDROOT
BRANCH   1   9
ATOM      9  N   UNL     1      -3.028  -0.753  -0.273  1.00  0.00    -0.162 N 
BRANCH   9  10
ATOM     10  C   UNL     1      -3.189  -1.342   0.900  1.00  0.00     0.339 C 
BRANCH  10  11
ATOM     11  O   UNL     1      -2.200  -1.299   1.894  1.00  0.00    -0.463 OA
ATOM     12  H   UNL     1      -1.275  -0.911   1.783  1.00  0.00     0.299 HD
ENDBRANCH  10  11
BRANCH  10  13
ATOM     13  C   UNL     1      -4.454  -2.122   1.222  1.00  0.00     0.150 C 
ATOM     14  C   UNL     1      -4.512  -2.596   2.674  1.00  0.00     0.019 C 
ENDBRANCH  10  13
ENDBRANCH   9  10
BRANCH   9  15
ATOM     15  C   UNL     1      -4.009  -0.969  -1.312  1.00  0.00     0.208 A 
ATOM     16  C   UNL     1      -3.907  -2.081  -2.162  1.00  0.00     0.079 A 
ATOM     17  C   UNL     1      -5.093  -0.088  -1.453  1.00  0.00     0.079 A 
ATOM     18  C   UNL     1      -4.881  -2.308  -3.140  1.00  0.00     0.007 A 
ATOM     19  C   UNL     1      -6.055  -0.309  -2.444  1.00  0.00     0.007 A 
ATOM     20  C   UNL     1      -5.951  -1.422  -3.283  1.00  0.00     0.000 A 
ENDBRANCH   9  15
ENDBRANCH   1   9
BRANCH   5  21
ATOM     21  C   UNL     1       3.004   1.048  -2.004  1.00  0.00     0.274 C 
BRANCH  21  22
ATOM     22  C   UNL     1       3.261   0.440  -0.589  1.00  0.00     0.066 C 
ATOM     23  C   UNL     1       4.517  -0.465  -0.491  1.00  0.00     0.046 C 
ATOM     24  C   UNL     1       3.346   1.475   0.567  1.00  0.00     0.046 C 
ATOM     25  C   UNL     1       5.145  -0.055   0.787  1.00  0.00    -0.044 A 
ATOM     26  C   UNL     1       4.500   1.009   1.369  1.00  0.00    -0.044 A 
ATOM     27  C   UNL     1       6.267  -0.633   1.387  1.00  0.00     0.004 A 
ATOM     28  C   UNL     1       4.937   1.541   2.586  1.00  0.00     0.004 A 
ATOM     29  C   UNL     1       6.724  -0.112   2.608  1.00  0.00     0.000 A 
ATOM     30  C   UNL     1       6.058   0.972   3.208  1.00  0.00     0.000 A 
ENDBRANCH  21  22
BRANCH  21  31
ATOM     31  N   UNL     1       4.104   1.911  -2.475  1.00  0.00    -0.347 N 
ATOM     32  H   UNL     1       4.321   2.678  -1.801  1.00  0.00     0.345 HD
ATOM     33  H   UNL     1       4.971   1.357  -2.648  1.00  0.00     0.345 HD
ATOM     34  H   UNL     1       3.841   2.342  -3.392  1.00  0.00     0.345 HD
ENDBRANCH  21  31
ENDBRANCH   5  21
TORSDOF 8
