REMARK SMILES CCC(=O)N(c1ccccc1)C1CC[N+](=C(O)[C@@H]([NH3+])C2Cc3ccccc3C2)CC1
REMARK SMILES IDX 12 1 13 2 14 3 15 4 29 5 30 6 5 7 3 8 4 9 2 10 1 11 6 12
REMARK SMILES IDX 7 13 11 14 8 15 10 16 9 17 16 18 17 19 18 21 19 22 20 26
REMARK SMILES IDX 21 27 28 28 22 29 27 30 23 31 26 32 24 33 25 34
REMARK H PARENT 17 20 19 23 19 24 19 25
ROOT
ATOM      1  C   UNL     1      -0.987  -0.214  -1.685  1.00  0.00     0.103 C 
ATOM      2  C   UNL     1      -0.575  -1.697  -1.712  1.00  0.00     0.098 C 
ATOM      3  C   UNL     1       0.687  -1.891  -0.853  1.00  0.00     0.356 C 
ATOM      4  N   UNL     1       1.661  -0.788  -1.033  1.00  0.00    -0.197 N 
ATOM      5  C   UNL     1       1.506   0.032  -2.255  1.00  0.00     0.356 C 
ATOM      6  C   UNL     1       0.114   0.688  -2.310  1.00  0.00     0.098 C 
ENDROOT
BRANCH   1   7
ATOM      7  N   UNL     1      -2.328  -0.018  -2.286  1.00  0.00    -0.309 N 
BRANCH   7   8
ATOM      8  C   UNL     1      -3.529  -0.208  -1.501  1.00  0.00     0.226 C 
ATOM      9  O   UNL     1      -4.592  -0.576  -2.078  1.00  0.00    -0.275 OA
BRANCH   8  10
ATOM     10  C   UNL     1      -3.530  -0.004  -0.004  1.00  0.00     0.097 C 
ATOM     11  C   UNL     1      -4.937   0.130   0.578  1.00  0.00     0.014 C 
ENDBRANCH   8  10
ENDBRANCH   7   8
BRANCH   7  12
ATOM     12  C   UNL     1      -2.496   0.255  -3.690  1.00  0.00     0.044 A 
ATOM     13  C   UNL     1      -2.957   1.517  -4.097  1.00  0.00     0.026 A 
ATOM     14  C   UNL     1      -2.221  -0.726  -4.657  1.00  0.00     0.026 A 
ATOM     15  C   UNL     1      -3.123   1.801  -5.456  1.00  0.00     0.002 A 
ATOM     16  C   UNL     1      -2.390  -0.438  -6.016  1.00  0.00     0.002 A 
ATOM     17  C   UNL     1      -2.836   0.826  -6.415  1.00  0.00     0.000 A 
ENDBRANCH   7  12
ENDBRANCH   1   7
BRANCH   4  18
ATOM     18  C   UNL     1       2.651  -0.588  -0.178  1.00  0.00     0.394 C 
BRANCH  18  19
ATOM     19  O   UNL     1       3.428   0.577  -0.219  1.00  0.00    -0.459 OA
ATOM     20  H   UNL     1       3.098   1.459  -0.584  1.00  0.00     0.299 HD
ENDBRANCH  18  19
BRANCH  18  21
ATOM     21  C   UNL     1       3.042  -1.597   0.900  1.00  0.00     0.322 C 
BRANCH  21  22
ATOM     22  N   UNL     1       4.350  -2.176   0.559  1.00  0.00    -0.343 N 
ATOM     23  H   UNL     1       4.305  -2.607  -0.394  1.00  0.00     0.345 HD
ATOM     24  H   UNL     1       4.605  -2.929   1.237  1.00  0.00     0.345 HD
ATOM     25  H   UNL     1       5.094  -1.442   0.567  1.00  0.00     0.345 HD
ENDBRANCH  21  22
BRANCH  21  26
ATOM     26  C   UNL     1       3.092  -0.907   2.293  1.00  0.00     0.071 C 
ATOM     27  C   UNL     1       3.406  -1.888   3.451  1.00  0.00     0.046 C 
ATOM     28  C   UNL     1       1.762  -0.206   2.674  1.00  0.00     0.046 C 
ATOM     29  C   UNL     1       2.538  -1.412   4.554  1.00  0.00    -0.044 A 
ATOM     30  C   UNL     1       1.625  -0.482   4.122  1.00  0.00    -0.044 A 
ATOM     31  C   UNL     1       2.560  -1.839   5.884  1.00  0.00     0.004 A 
ATOM     32  C   UNL     1       0.681   0.064   4.995  1.00  0.00     0.004 A 
ATOM     33  C   UNL     1       1.628  -1.293   6.782  1.00  0.00     0.000 A 
ATOM     34  C   UNL     1       0.689  -0.345   6.338  1.00  0.00     0.000 A 
ENDBRANCH  21  26
ENDBRANCH  18  21
ENDBRANCH   4  18
TORSDOF 9
