REMARK SMILES CC/C(O)=[N+](/c1ccccc1)C1CCN(C(=O)[C@@H]([NH3+])C2Cc3ccccc3C2)CC1
REMARK SMILES IDX 12 1 13 2 14 3 15 4 16 5 17 6 29 7 30 8 5 9 3 10 4 11 2 13
REMARK SMILES IDX 1 14 6 15 7 16 11 17 8 18 10 19 9 20 18 21 20 22 21 23 28 24
REMARK SMILES IDX 22 25 27 26 23 27 26 28 24 29 25 30 19 31
REMARK H PARENT 4 12 19 32 19 33 19 34
ROOT
ATOM      1  C   UNL     1       0.241   0.260   1.825  1.00  0.00     0.274 C 
ATOM      2  C   UNL     1      -1.177  -0.270   2.158  1.00  0.00     0.098 C 
ATOM      3  C   UNL     1      -1.442  -1.694   1.616  1.00  0.00     0.126 C 
ATOM      4  N   UNL     1      -0.500  -2.089   0.553  1.00  0.00    -0.337 N 
ATOM      5  C   UNL     1      -0.975  -2.921  -0.529  1.00  0.00     0.281 C 
ATOM      6  O   UNL     1      -2.023  -3.605  -0.370  1.00  0.00    -0.268 OA
ATOM      7  C   UNL     1       0.949  -1.866   0.723  1.00  0.00     0.126 C 
ATOM      8  C   UNL     1       1.248  -0.896   1.871  1.00  0.00     0.098 C 
ENDROOT
BRANCH   1   9
ATOM      9  N   UNL     1       0.677   1.385   2.700  1.00  0.00    -0.162 N 
BRANCH   9  10
ATOM     10  C   UNL     1       1.411   2.388   2.247  1.00  0.00     0.339 C 
BRANCH  10  11
ATOM     11  O   UNL     1       1.826   3.424   3.100  1.00  0.00    -0.463 OA
ATOM     12  H   UNL     1       1.603   3.479   4.086  1.00  0.00     0.299 HD
ENDBRANCH  10  11
BRANCH  10  13
ATOM     13  C   UNL     1       1.831   2.490   0.791  1.00  0.00     0.150 C 
ATOM     14  C   UNL     1       2.860   3.593   0.545  1.00  0.00     0.019 C 
ENDBRANCH  10  13
ENDBRANCH   9  10
BRANCH   9  15
ATOM     15  C   UNL     1       0.386   1.311   4.110  1.00  0.00     0.208 A 
ATOM     16  C   UNL     1       1.222   0.582   4.971  1.00  0.00     0.079 A 
ATOM     17  C   UNL     1      -0.728   1.987   4.633  1.00  0.00     0.079 A 
ATOM     18  C   UNL     1       0.936   0.518   6.338  1.00  0.00     0.007 A 
ATOM     19  C   UNL     1      -1.009   1.923   6.002  1.00  0.00     0.007 A 
ATOM     20  C   UNL     1      -0.179   1.187   6.853  1.00  0.00     0.000 A 
ENDBRANCH   9  15
ENDBRANCH   1   9
BRANCH   5  21
ATOM     21  C   UNL     1      -0.279  -2.932  -1.880  1.00  0.00     0.274 C 
BRANCH  21  22
ATOM     22  C   UNL     1      -0.485  -1.563  -2.601  1.00  0.00     0.066 C 
ATOM     23  C   UNL     1      -1.960  -1.284  -3.000  1.00  0.00     0.046 C 
ATOM     24  C   UNL     1       0.351  -1.445  -3.902  1.00  0.00     0.046 C 
ATOM     25  C   UNL     1      -1.945  -1.372  -4.478  1.00  0.00    -0.044 A 
ATOM     26  C   UNL     1      -0.669  -1.463  -4.977  1.00  0.00    -0.044 A 
ATOM     27  C   UNL     1      -3.052  -1.336  -5.328  1.00  0.00     0.004 A 
ATOM     28  C   UNL     1      -0.435  -1.526  -6.352  1.00  0.00     0.004 A 
ATOM     29  C   UNL     1      -2.841  -1.405  -6.714  1.00  0.00     0.000 A 
ATOM     30  C   UNL     1      -1.534  -1.500  -7.225  1.00  0.00     0.000 A 
ENDBRANCH  21  22
BRANCH  21  31
ATOM     31  N   UNL     1      -0.717  -4.079  -2.698  1.00  0.00    -0.347 N 
ATOM     32  H   UNL     1      -0.532  -4.968  -2.178  1.00  0.00     0.345 HD
ATOM     33  H   UNL     1      -0.178  -4.122  -3.592  1.00  0.00     0.345 HD
ATOM     34  H   UNL     1      -1.736  -4.030  -2.922  1.00  0.00     0.345 HD
ENDBRANCH  21  31
ENDBRANCH   5  21
TORSDOF 8
