REMARK SMILES [H]/N=c1\[nH]c2nc3ccccn3c(=O)c2cc1/C(O)=N/[C@@H](C)c1ccccc1
REMARK SMILES IDX 18 1 17 2 3 3 4 4 16 5 5 6 15 7 6 8 13 9 7 10 12 11 8 12
REMARK SMILES IDX 11 13 9 14 10 15 14 17 2 18 1 19 20 20 21 21 22 22 23 23
REMARK SMILES IDX 24 24 28 25 25 26 27 27 26 28 19 29
REMARK H PARENT 4 16 19 30
ROOT
ATOM      1  C   UNL     1      -0.352   0.655  -1.980  1.00  0.00     0.218 C 
ENDROOT
BRANCH   1   2
ATOM      2  C   UNL     1       0.486   0.849  -0.763  1.00  0.00     0.079 A 
ATOM      3  C   UNL     1       1.828   1.299  -0.834  1.00  0.00     0.136 A 
ATOM      4  N   UNL     1       2.560   1.444   0.311  1.00  0.00    -0.324 N 
ATOM      5  C   UNL     1      -0.057   0.573   0.505  1.00  0.00     0.035 A 
ATOM      6  C   UNL     1       2.040   1.175   1.539  1.00  0.00     0.146 A 
ATOM      7  C   UNL     1       0.716   0.734   1.664  1.00  0.00     0.084 A 
ATOM      8  N   UNL     1       2.803   1.335   2.647  1.00  0.00    -0.212 NA
ATOM      9  C   UNL     1       0.215   0.466   2.952  1.00  0.00     0.267 A 
ATOM     10  C   UNL     1       2.318   1.076   3.888  1.00  0.00     0.142 A 
ATOM     11  N   UNL     1       1.020   0.640   4.053  1.00  0.00    -0.267 N 
ATOM     12  C   UNL     1       3.153   1.259   4.995  1.00  0.00     0.048 A 
ATOM     13  C   UNL     1       0.544   0.383   5.316  1.00  0.00     0.096 A 
ATOM     14  C   UNL     1       2.668   0.998   6.273  1.00  0.00     0.005 A 
ATOM     15  C   UNL     1       1.358   0.558   6.437  1.00  0.00     0.019 A 
ATOM     16  H   UNL     1       3.550   1.776   0.252  1.00  0.00     0.170 HD
ATOM     17  O   UNL     1      -0.976   0.066   3.087  1.00  0.00    -0.268 OA
BRANCH   3  18
ATOM     18  N   UNL     1       2.365   1.592  -1.978  1.00  0.00    -0.284 NA
ATOM     19  H   UNL     1       3.349   1.933  -2.064  1.00  0.00     0.189 HD
ENDBRANCH   3  18
ENDBRANCH   1   2
BRANCH   1  20
ATOM     20  N   UNL     1      -1.652   0.606  -1.853  1.00  0.00    -0.243 NA
BRANCH  20  21
ATOM     21  C   UNL     1      -2.673   0.429  -2.893  1.00  0.00     0.136 C 
ATOM     22  C   UNL     1      -2.780   1.690  -3.765  1.00  0.00     0.038 C 
BRANCH  21  23
ATOM     23  C   UNL     1      -2.493  -0.890  -3.634  1.00  0.00    -0.024 A 
ATOM     24  C   UNL     1      -2.400  -2.076  -2.882  1.00  0.00     0.006 A 
ATOM     25  C   UNL     1      -2.455  -0.980  -5.043  1.00  0.00     0.006 A 
ATOM     26  C   UNL     1      -2.249  -3.313  -3.515  1.00  0.00     0.000 A 
ATOM     27  C   UNL     1      -2.303  -2.220  -5.670  1.00  0.00     0.000 A 
ATOM     28  C   UNL     1      -2.199  -3.385  -4.908  1.00  0.00     0.000 A 
ENDBRANCH  21  23
ENDBRANCH  20  21
ENDBRANCH   1  20
BRANCH   1  29
ATOM     29  O   UNL     1       0.272   0.514  -3.224  1.00  0.00    -0.493 OA
ATOM     30  H   UNL     1      -0.219   0.347  -4.089  1.00  0.00     0.295 HD
ENDBRANCH   1  29
TORSDOF 6
