REMARK SMILES O/C(=C/CCOc1ccc(Cl)cc1Cl)[N-]/N=C\c1cccnc1F
REMARK SMILES IDX 2 1 1 2 15 4 16 5 17 6 18 7 23 8 19 9 22 10 20 11 21 12
REMARK SMILES IDX 24 13 3 14 4 15 5 16 6 17 7 18 8 19 13 20 9 21 12 22 10 23
REMARK SMILES IDX 14 24 11 25
REMARK H PARENT 1 3
ROOT
ATOM      1  C   UNL     1       1.000   2.594   0.842  1.00  0.00     0.023 C 
ENDROOT
BRANCH   1   2
ATOM      2  O   UNL     1       2.125   3.228   1.370  1.00  0.00    -0.530 OA
ATOM      3  H   UNL     1       2.272   3.329   2.368  1.00  0.00     0.290 HD
ENDBRANCH   1   2
BRANCH   1   4
ATOM      4  N   UNL     1       0.909   2.511  -0.589  1.00  0.00    -0.546 NA
BRANCH   4   5
ATOM      5  N   UNL     1      -0.187   1.996  -1.296  1.00  0.00    -0.372 NA
BRANCH   5   6
ATOM      6  C   UNL     1      -0.224   1.921  -2.593  1.00  0.00     0.099 C 
BRANCH   6   7
ATOM      7  C   UNL     1       0.891   2.344  -3.471  1.00  0.00     0.046 A 
ATOM      8  C   UNL     1       0.615   3.023  -4.669  1.00  0.00     0.221 A 
ATOM      9  C   UNL     1       2.227   2.017  -3.179  1.00  0.00     0.016 A 
ATOM     10  N   UNL     1       1.630   3.389  -5.498  1.00  0.00    -0.228 NA
ATOM     11  C   UNL     1       3.248   2.405  -4.048  1.00  0.00     0.021 A 
ATOM     12  C   UNL     1       2.927   3.102  -5.213  1.00  0.00     0.114 A 
ATOM     13  F   UNL     1      -0.661   3.337  -5.006  1.00  0.00    -0.184 F 
ENDBRANCH   6   7
ENDBRANCH   5   6
ENDBRANCH   4   5
ENDBRANCH   1   4
BRANCH   1  14
ATOM     14  C   UNL     1       0.076   2.096   1.689  1.00  0.00    -0.001 C 
BRANCH  14  15
ATOM     15  C   UNL     1      -1.174   1.361   1.280  1.00  0.00     0.071 C 
BRANCH  15  16
ATOM     16  C   UNL     1      -1.972   0.878   2.497  1.00  0.00     0.234 C 
BRANCH  16  17
ATOM     17  O   UNL     1      -1.201  -0.020   3.298  1.00  0.00    -0.492 OA
BRANCH  17  18
ATOM     18  C   UNL     1      -0.884  -1.349   2.966  1.00  0.00     0.137 A 
ATOM     19  C   UNL     1      -1.453  -2.009   1.858  1.00  0.00     0.049 A 
ATOM     20  C   UNL     1       0.029  -2.043   3.778  1.00  0.00     0.084 A 
ATOM     21  C   UNL     1      -1.105  -3.332   1.569  1.00  0.00     0.024 A 
ATOM     22  C   UNL     1       0.373  -3.367   3.484  1.00  0.00     0.045 A 
ATOM     23  C   UNL     1      -0.192  -4.011   2.380  1.00  0.00     0.042 A 
ATOM     24  Cl  UNL     1       0.759  -1.256   5.169  1.00  0.00    -0.080 Cl
ATOM     25  Cl  UNL     1       0.242  -5.671   2.014  1.00  0.00    -0.084 Cl
ENDBRANCH  17  18
ENDBRANCH  16  17
ENDBRANCH  15  16
ENDBRANCH  14  15
ENDBRANCH   1  14
TORSDOF 10
