REMARK SMILES O/C(=C\CCOc1ccc(Cl)cc1Cl)[N-]/N=C\c1cccnc1F
REMARK SMILES IDX 2 1 1 2 15 4 16 5 17 6 18 7 23 8 19 9 22 10 20 11 21 12
REMARK SMILES IDX 24 13 3 14 4 15 5 16 6 17 7 18 8 19 13 20 9 21 12 22 10 23
REMARK SMILES IDX 14 24 11 25
REMARK H PARENT 1 3
ROOT
ATOM      1  C   UNL     1      -2.349  -0.052   0.254  1.00  0.00     0.023 C 
ENDROOT
BRANCH   1   2
ATOM      2  O   UNL     1      -3.551   0.636   0.065  1.00  0.00    -0.530 OA
ATOM      3  H   UNL     1      -4.027   1.135   0.807  1.00  0.00     0.290 HD
ENDBRANCH   1   2
BRANCH   1   4
ATOM      4  N   UNL     1      -1.776  -0.765  -0.839  1.00  0.00    -0.546 NA
BRANCH   4   5
ATOM      5  N   UNL     1      -2.373  -0.768  -2.106  1.00  0.00    -0.372 NA
BRANCH   5   6
ATOM      6  C   UNL     1      -1.822  -1.334  -3.138  1.00  0.00     0.099 C 
BRANCH   6   7
ATOM      7  C   UNL     1      -0.494  -1.991  -3.099  1.00  0.00     0.046 A 
ATOM      8  C   UNL     1      -0.288  -3.188  -3.805  1.00  0.00     0.221 A 
ATOM      9  C   UNL     1       0.598  -1.414  -2.426  1.00  0.00     0.016 A 
ATOM     10  N   UNL     1       0.933  -3.788  -3.792  1.00  0.00    -0.228 NA
ATOM     11  C   UNL     1       1.839  -2.053  -2.429  1.00  0.00     0.021 A 
ATOM     12  C   UNL     1       1.988  -3.255  -3.122  1.00  0.00     0.114 A 
ATOM     13  F   UNL     1      -1.304  -3.769  -4.490  1.00  0.00    -0.184 F 
ENDBRANCH   6   7
ENDBRANCH   5   6
ENDBRANCH   4   5
ENDBRANCH   1   4
BRANCH   1  14
ATOM     14  C   UNL     1      -1.703  -0.058   1.426  1.00  0.00    -0.001 C 
BRANCH  14  15
ATOM     15  C   UNL     1      -2.158   0.720   2.629  1.00  0.00     0.071 C 
BRANCH  15  16
ATOM     16  C   UNL     1      -1.104   0.735   3.743  1.00  0.00     0.234 C 
BRANCH  16  17
ATOM     17  O   UNL     1      -0.026   1.615   3.408  1.00  0.00    -0.492 OA
BRANCH  17  18
ATOM     18  C   UNL     1       1.048   1.301   2.560  1.00  0.00     0.137 A 
ATOM     19  C   UNL     1       1.596   0.006   2.494  1.00  0.00     0.049 A 
ATOM     20  C   UNL     1       1.604   2.320   1.769  1.00  0.00     0.084 A 
ATOM     21  C   UNL     1       2.650  -0.271   1.618  1.00  0.00     0.024 A 
ATOM     22  C   UNL     1       2.660   2.038   0.895  1.00  0.00     0.045 A 
ATOM     23  C   UNL     1       3.179   0.743   0.815  1.00  0.00     0.042 A 
ATOM     24  Cl  UNL     1       0.957   3.952   1.837  1.00  0.00    -0.080 Cl
ATOM     25  Cl  UNL     1       4.499   0.393  -0.286  1.00  0.00    -0.084 Cl
ENDBRANCH  17  18
ENDBRANCH  16  17
ENDBRANCH  15  16
ENDBRANCH  14  15
ENDBRANCH   1  14
TORSDOF 10
