REMARK SMILES C[NH+]1CCN(C(=O)c2cccc(C3=Nc4ccc(C#Cc5ccccc5)cc4N=C(O)C3)c2)CC1
REMARK SMILES IDX 15 1 16 2 17 3 18 4 27 5 28 6 14 7 13 8 12 9 8 10 9 11 33 12
REMARK SMILES IDX 10 13 11 14 6 15 2 16 3 17 35 18 4 19 34 20 5 21 1 22 7 24
REMARK SMILES IDX 32 25 29 27 30 28 31 30 19 32 20 33 21 34 22 35 26 36 23 37
REMARK SMILES IDX 25 38 24 39
REMARK H PARENT 2 23 31 31
REMARK Flexibility Score:  140.900
ROOT
ATOM      1  C   UNL     1       0.140  -1.741   1.395  1.00  0.00     0.089 A 
ATOM      2  C   UNL     1      -1.126  -1.994   1.941  1.00  0.00     0.032 A 
ATOM      3  C   UNL     1      -1.269  -2.785   3.081  1.00  0.00     0.019 A 
ATOM      4  C   UNL     1      -0.146  -3.366   3.675  1.00  0.00     0.027 A 
ATOM      5  C   UNL     1       1.124  -3.148   3.128  1.00  0.00     0.048 A 
ATOM      6  C   UNL     1       1.288  -2.329   2.001  1.00  0.00     0.094 A 
ENDROOT
BRANCH   1   7
ATOM      7  N   UNL     1       0.194  -0.971   0.182  1.00  0.00    -0.250 NA
BRANCH   7   8
ATOM      8  C   UNL     1       1.152  -0.181  -0.208  1.00  0.00     0.058 C 
BRANCH   8   9
ATOM      9  C   UNL     1       1.023   0.508  -1.517  1.00  0.00    -0.003 A 
ATOM     10  C   UNL     1      -0.378   1.584  -3.210  1.00  0.00     0.040 A 
ATOM     11  C   UNL     1       0.764   1.844  -3.979  1.00  0.00     0.014 A 
ATOM     12  C   UNL     1      -0.245   0.898  -1.989  1.00  0.00     0.023 A 
ATOM     13  C   UNL     1       2.024   1.437  -3.530  1.00  0.00     0.002 A 
ATOM     14  C   UNL     1       2.155   0.777  -2.306  1.00  0.00     0.010 A 
BRANCH  10  15
ATOM     15  C   UNL     1      -1.713   2.005  -3.685  1.00  0.00     0.254 C 
ATOM     16  N   UNL     1      -3.358   5.556  -3.801  1.00  0.00    -0.334 N 
ATOM     17  C   UNL     1      -4.026   4.510  -4.630  1.00  0.00     0.283 C 
ATOM     18  C   UNL     1      -1.929   5.740  -4.152  1.00  0.00     0.283 C 
ATOM     19  C   UNL     1      -3.053   3.476  -5.239  1.00  0.00     0.181 C 
ATOM     20  C   UNL     1      -1.115   4.444  -3.965  1.00  0.00     0.181 C 
ATOM     21  N   UNL     1      -1.910   3.268  -4.345  1.00  0.00    -0.327 N 
ATOM     22  C   UNL     1      -3.527   5.293  -2.353  1.00  0.00     0.332 C 
ATOM     23  H   UNL     1      -3.841   6.470  -3.991  1.00  0.00     0.347 HD
ATOM     24  O   UNL     1      -2.701   1.245  -3.487  1.00  0.00    -0.269 OA
ENDBRANCH  10  15
ENDBRANCH   8   9
BRANCH   8  25
ATOM     25  C   UNL     1       2.327   0.089   0.690  1.00  0.00     0.153 CG0
ATOM     26  G   UNL     1       3.115  -1.167   0.858  1.00  0.00     0.000 G0
ENDBRANCH   8  25
ENDBRANCH   7   8
ENDBRANCH   1   7
BRANCH   6  27
ATOM     27  N   UNL     1       2.618  -2.200   1.469  1.00  0.00    -0.216 NA
BRANCH  27  28
ATOM     28  C   UNL     1       3.115  -1.167   0.858  1.00  0.00     0.192 CG0
ATOM     29  G   UNL     1       2.327   0.089   0.690  1.00  0.00     0.000 G0
BRANCH  28  30
ATOM     30  O   UNL     1       4.416  -1.222   0.366  1.00  0.00    -0.496 OA
ATOM     31  H   UNL     1       4.979  -2.057   0.471  1.00  0.00     0.294 HD
ENDBRANCH  28  30
ENDBRANCH  27  28
ENDBRANCH   6  27
BRANCH   4  32
ATOM     32  C   UNL     1      -0.294  -4.186   4.849  1.00  0.00    -0.062 C 
BRANCH  32  33
ATOM     33  C   UNL     1      -0.423  -4.865   5.837  1.00  0.00    -0.062 C 
BRANCH  33  34
ATOM     34  C   UNL     1      -0.578  -5.666   7.023  1.00  0.00     0.025 A 
ATOM     35  C   UNL     1      -1.503  -5.290   8.007  1.00  0.00     0.017 A 
ATOM     36  C   UNL     1       0.205  -6.814   7.203  1.00  0.00     0.017 A 
ATOM     37  C   UNL     1      -1.642  -6.059   9.167  1.00  0.00     0.001 A 
ATOM     38  C   UNL     1       0.066  -7.580   8.364  1.00  0.00     0.001 A 
ATOM     39  C   UNL     1      -0.857  -7.204   9.346  1.00  0.00     0.000 A 
ENDBRANCH  33  34
ENDBRANCH  32  33
ENDBRANCH   4  32
TORSDOF 6
