REMARK SMILES O=C(CCCOc1ccc(Cl)cc1Cl)[N-]/N=C\c1cccc(C(F)(F)F)c1
REMARK SMILES IDX 2 1 1 2 15 3 16 4 17 5 18 6 19 7 27 8 20 9 22 10 21 11 23 12
REMARK SMILES IDX 24 13 25 14 26 15 3 16 4 17 5 18 6 19 7 20 8 21 13 22 9 23
REMARK SMILES IDX 12 24 10 25 14 26 11 27
REMARK H PARENT
ROOT
ATOM      1  C   UNL     1       2.591   1.580   0.321  1.00  0.00     0.068 C 
ATOM      2  O   UNL     1       3.106   1.818   1.446  1.00  0.00    -0.319 OA
ENDROOT
BRANCH   1   3
ATOM      3  N   UNL     1       1.191   1.759   0.120  1.00  0.00    -0.545 NA
BRANCH   3   4
ATOM      4  N   UNL     1       0.371   2.276   1.133  1.00  0.00    -0.372 NA
BRANCH   4   5
ATOM      5  C   UNL     1      -0.922   2.350   1.023  1.00  0.00     0.094 C 
BRANCH   5   6
ATOM      6  C   UNL     1      -1.668   1.877  -0.165  1.00  0.00    -0.009 A 
ATOM      7  C   UNL     1      -1.238   2.168  -1.471  1.00  0.00     0.009 A 
ATOM      8  C   UNL     1      -2.866   1.170   0.021  1.00  0.00     0.022 A 
ATOM      9  C   UNL     1      -1.980   1.729  -2.570  1.00  0.00     0.001 A 
ATOM     10  C   UNL     1      -3.603   0.700  -1.081  1.00  0.00     0.056 A 
ATOM     11  C   UNL     1      -3.157   1.002  -2.380  1.00  0.00     0.013 A 
BRANCH  10  12
ATOM     12  C   UNL     1      -4.903  -0.034  -0.867  1.00  0.00     0.416 C 
ATOM     13  F   UNL     1      -4.827  -0.832   0.263  1.00  0.00    -0.166 F 
ATOM     14  F   UNL     1      -5.923   0.885  -0.702  1.00  0.00    -0.166 F 
ATOM     15  F   UNL     1      -5.197  -0.845  -1.950  1.00  0.00    -0.166 F 
ENDBRANCH  10  12
ENDBRANCH   5   6
ENDBRANCH   4   5
ENDBRANCH   3   4
ENDBRANCH   1   3
BRANCH   1  16
ATOM     16  C   UNL     1       3.444   1.074  -0.800  1.00  0.00     0.060 C 
BRANCH  16  17
ATOM     17  C   UNL     1       3.694  -0.438  -0.699  1.00  0.00     0.048 C 
BRANCH  17  18
ATOM     18  C   UNL     1       2.466  -1.284  -1.082  1.00  0.00     0.230 C 
BRANCH  18  19
ATOM     19  O   UNL     1       1.452  -1.267  -0.075  1.00  0.00    -0.492 OA
BRANCH  19  20
ATOM     20  C   UNL     1       1.561  -1.648   1.277  1.00  0.00     0.137 A 
ATOM     21  C   UNL     1       0.630  -1.075   2.155  1.00  0.00     0.049 A 
ATOM     22  C   UNL     1       2.518  -2.563   1.798  1.00  0.00     0.084 A 
ATOM     23  C   UNL     1       0.671  -1.341   3.524  1.00  0.00     0.024 A 
ATOM     24  C   UNL     1       2.549  -2.819   3.177  1.00  0.00     0.045 A 
ATOM     25  C   UNL     1       1.638  -2.204   4.038  1.00  0.00     0.042 A 
ATOM     26  Cl  UNL     1       3.631  -3.500   0.811  1.00  0.00    -0.080 Cl
ATOM     27  Cl  UNL     1       1.691  -2.540   5.759  1.00  0.00    -0.084 Cl
ENDBRANCH  19  20
ENDBRANCH  18  19
ENDBRANCH  17  18
ENDBRANCH  16  17
ENDBRANCH   1  16
TORSDOF 10
