REMARK SMILES O=C(CCCOc1ccc(Cl)cc1Cl)[N-]/N=C/c1cccc(C(F)(F)F)c1
REMARK SMILES IDX 2 1 1 2 15 3 16 4 17 5 18 6 19 7 27 8 20 9 22 10 21 11 23 12
REMARK SMILES IDX 24 13 25 14 26 15 3 16 4 17 5 18 6 19 7 20 8 21 13 22 9 23
REMARK SMILES IDX 12 24 10 25 14 26 11 27
REMARK H PARENT
ROOT
ATOM      1  C   UNL     1       2.754  -2.719  -0.327  1.00  0.00     0.068 C 
ATOM      2  O   UNL     1       3.428  -1.923   0.380  1.00  0.00    -0.319 OA
ENDROOT
BRANCH   1   3
ATOM      3  N   UNL     1       2.407  -2.379  -1.675  1.00  0.00    -0.545 NA
BRANCH   3   4
ATOM      4  N   UNL     1       2.293  -1.063  -2.165  1.00  0.00    -0.372 NA
BRANCH   4   5
ATOM      5  C   UNL     1       2.044  -0.033  -1.412  1.00  0.00     0.094 C 
BRANCH   5   6
ATOM      6  C   UNL     1       1.859   1.310  -1.995  1.00  0.00    -0.009 A 
ATOM      7  C   UNL     1       2.136   1.567  -3.348  1.00  0.00     0.009 A 
ATOM      8  C   UNL     1       1.358   2.344  -1.187  1.00  0.00     0.022 A 
ATOM      9  C   UNL     1       1.906   2.835  -3.884  1.00  0.00     0.001 A 
ATOM     10  C   UNL     1       1.138   3.628  -1.718  1.00  0.00     0.056 A 
ATOM     11  C   UNL     1       1.400   3.858  -3.078  1.00  0.00     0.013 A 
BRANCH  10  12
ATOM     12  C   UNL     1       0.528   4.718  -0.873  1.00  0.00     0.416 C 
ATOM     13  F   UNL     1      -0.837   4.748  -1.087  1.00  0.00    -0.166 F 
ATOM     14  F   UNL     1       1.066   5.947  -1.214  1.00  0.00    -0.166 F 
ATOM     15  F   UNL     1       0.768   4.498   0.473  1.00  0.00    -0.166 F 
ENDBRANCH  10  12
ENDBRANCH   5   6
ENDBRANCH   4   5
ENDBRANCH   3   4
ENDBRANCH   1   3
BRANCH   1  16
ATOM     16  C   UNL     1       2.348  -4.047   0.238  1.00  0.00     0.060 C 
BRANCH  16  17
ATOM     17  C   UNL     1       0.821  -4.229   0.285  1.00  0.00     0.048 C 
BRANCH  17  18
ATOM     18  C   UNL     1       0.097  -3.093   1.022  1.00  0.00     0.230 C 
BRANCH  18  19
ATOM     19  O   UNL     1      -0.279  -2.081   0.088  1.00  0.00    -0.492 OA
BRANCH  19  20
ATOM     20  C   UNL     1      -0.866  -0.851   0.424  1.00  0.00     0.137 A 
ATOM     21  C   UNL     1      -0.976  -0.411   1.758  1.00  0.00     0.049 A 
ATOM     22  C   UNL     1      -1.340  -0.025  -0.610  1.00  0.00     0.084 A 
ATOM     23  C   UNL     1      -1.522   0.844   2.043  1.00  0.00     0.024 A 
ATOM     24  C   UNL     1      -1.885   1.230  -0.317  1.00  0.00     0.045 A 
ATOM     25  C   UNL     1      -1.971   1.667   1.007  1.00  0.00     0.042 A 
ATOM     26  Cl  UNL     1      -1.266  -0.557  -2.283  1.00  0.00    -0.080 Cl
ATOM     27  Cl  UNL     1      -2.646   3.245   1.369  1.00  0.00    -0.084 Cl
ENDBRANCH  19  20
ENDBRANCH  18  19
ENDBRANCH  17  18
ENDBRANCH  16  17
ENDBRANCH   1  16
TORSDOF 10
