REMARK SMILES O=S(=O)(Cc1ccccc1)N1Cc2ccccc2[C@H]1c1c[nH]c2ccccc12
REMARK SMILES IDX 11 1 12 2 13 3 14 4 15 5 16 6 17 7 18 8 19 9 2 10 1 11 3 12
REMARK SMILES IDX 4 13 5 14 6 15 10 16 7 17 9 18 8 19 20 20 21 21 28 22 22 23
REMARK SMILES IDX 27 24 23 25 26 26 24 27 25 28
REMARK H PARENT 22 29
ROOT
ATOM      1  N   UNL     1      -0.342   0.331   0.350  1.00  0.00    -0.185 NA
ATOM      2  C   UNL     1      -1.290   1.169   1.121  1.00  0.00     0.139 C 
ATOM      3  C   UNL     1      -2.268   0.227   1.702  1.00  0.00    -0.028 A 
ATOM      4  C   UNL     1      -3.402   0.522   2.461  1.00  0.00     0.005 A 
ATOM      5  C   UNL     1      -4.181  -0.542   2.943  1.00  0.00     0.000 A 
ATOM      6  C   UNL     1      -3.809  -1.871   2.667  1.00  0.00     0.000 A 
ATOM      7  C   UNL     1      -2.660  -2.139   1.907  1.00  0.00     0.006 A 
ATOM      8  C   UNL     1      -1.911  -1.060   1.428  1.00  0.00    -0.021 A 
ATOM      9  C   UNL     1      -0.659  -1.088   0.636  1.00  0.00     0.136 C 
ENDROOT
BRANCH   1  10
ATOM     10  S   UNL     1       1.316   0.705   0.748  1.00  0.00     0.219 S 
ATOM     11  O   UNL     1       2.229  -0.252   0.033  1.00  0.00    -0.212 OA
ATOM     12  O   UNL     1       1.534   0.580   2.231  1.00  0.00    -0.212 OA
BRANCH  10  13
ATOM     13  C   UNL     1       1.689   2.369   0.219  1.00  0.00     0.189 C 
BRANCH  13  14
ATOM     14  C   UNL     1       3.097   2.737   0.593  1.00  0.00    -0.032 A 
ATOM     15  C   UNL     1       3.362   3.374   1.817  1.00  0.00     0.005 A 
ATOM     16  C   UNL     1       4.166   2.405  -0.257  1.00  0.00     0.005 A 
ATOM     17  C   UNL     1       4.676   3.693   2.174  1.00  0.00     0.000 A 
ATOM     18  C   UNL     1       5.478   2.723   0.105  1.00  0.00     0.000 A 
ATOM     19  C   UNL     1       5.733   3.369   1.318  1.00  0.00     0.000 A 
ENDBRANCH  13  14
ENDBRANCH  10  13
ENDBRANCH   1  10
BRANCH   9  20
ATOM     20  C   UNL     1      -0.856  -1.824  -0.660  1.00  0.00     0.000 A 
ATOM     21  C   UNL     1      -1.804  -1.537  -1.641  1.00  0.00     0.089 A 
ATOM     22  C   UNL     1      -0.097  -2.862  -1.168  1.00  0.00     0.005 A 
ATOM     23  N   UNL     1      -1.651  -2.361  -2.701  1.00  0.00    -0.361 N 
ATOM     24  C   UNL     1       1.004  -3.544  -0.650  1.00  0.00     0.011 A 
ATOM     25  C   UNL     1      -0.613  -3.161  -2.404  1.00  0.00     0.046 A 
ATOM     26  C   UNL     1       1.580  -4.560  -1.437  1.00  0.00     0.001 A 
ATOM     27  C   UNL     1      -0.063  -4.161  -3.206  1.00  0.00     0.026 A 
ATOM     28  C   UNL     1       1.048  -4.866  -2.710  1.00  0.00     0.002 A 
ATOM     29  H   UNL     1      -2.215  -2.359  -3.581  1.00  0.00     0.166 HD
ENDBRANCH   9  20
TORSDOF 4
