REMARK SMILES O=S(=O)(Cc1ccccc1)N1Cc2ccccc2[C@@H]1c1c[nH]c2ccccc12
REMARK SMILES IDX 11 1 12 2 13 3 14 4 15 5 16 6 17 7 18 8 19 9 2 10 1 11 3 12
REMARK SMILES IDX 4 13 5 14 6 15 10 16 7 17 9 18 8 19 20 20 21 21 28 22 22 23
REMARK SMILES IDX 27 24 23 25 26 26 24 27 25 28
REMARK H PARENT 22 29
ROOT
ATOM      1  N   UNL     1      -0.772   0.080  -0.263  1.00  0.00    -0.185 NA
ATOM      2  C   UNL     1      -0.595  -0.655  -1.537  1.00  0.00     0.139 C 
ATOM      3  C   UNL     1       0.513   0.022  -2.238  1.00  0.00    -0.028 A 
ATOM      4  C   UNL     1       1.102  -0.327  -3.455  1.00  0.00     0.005 A 
ATOM      5  C   UNL     1       2.134   0.484  -3.956  1.00  0.00     0.000 A 
ATOM      6  C   UNL     1       2.547   1.624  -3.242  1.00  0.00     0.000 A 
ATOM      7  C   UNL     1       1.932   1.954  -2.023  1.00  0.00     0.006 A 
ATOM      8  C   UNL     1       0.919   1.120  -1.540  1.00  0.00    -0.021 A 
ATOM      9  C   UNL     1       0.105   1.275  -0.312  1.00  0.00     0.136 C 
ENDROOT
BRANCH   1  10
ATOM     10  S   UNL     1      -2.441   0.531   0.015  1.00  0.00     0.219 S 
ATOM     11  O   UNL     1      -2.501   1.529   1.138  1.00  0.00    -0.212 OA
ATOM     12  O   UNL     1      -3.025   1.159  -1.220  1.00  0.00    -0.212 OA
BRANCH  10  13
ATOM     13  C   UNL     1      -3.415  -0.888   0.503  1.00  0.00     0.189 C 
BRANCH  13  14
ATOM     14  C   UNL     1      -3.461  -1.931  -0.579  1.00  0.00    -0.032 A 
ATOM     15  C   UNL     1      -4.294  -1.755  -1.697  1.00  0.00     0.005 A 
ATOM     16  C   UNL     1      -2.655  -3.080  -0.495  1.00  0.00     0.005 A 
ATOM     17  C   UNL     1      -4.315  -2.711  -2.717  1.00  0.00     0.000 A 
ATOM     18  C   UNL     1      -2.679  -4.033  -1.518  1.00  0.00     0.000 A 
ATOM     19  C   UNL     1      -3.507  -3.848  -2.628  1.00  0.00     0.000 A 
ENDBRANCH  13  14
ENDBRANCH  10  13
ENDBRANCH   1  10
BRANCH   9  20
ATOM     20  C   UNL     1       0.986   1.314   0.906  1.00  0.00     0.000 A 
ATOM     21  C   UNL     1       1.598   0.227   1.528  1.00  0.00     0.089 A 
ATOM     22  C   UNL     1       1.445   2.432   1.577  1.00  0.00     0.005 A 
ATOM     23  N   UNL     1       2.381   0.645   2.548  1.00  0.00    -0.361 N 
ATOM     24  C   UNL     1       1.204   3.792   1.378  1.00  0.00     0.011 A 
ATOM     25  C   UNL     1       2.282   1.985   2.568  1.00  0.00     0.046 A 
ATOM     26  C   UNL     1       1.842   4.705   2.238  1.00  0.00     0.001 A 
ATOM     27  C   UNL     1       2.929   2.867   3.433  1.00  0.00     0.026 A 
ATOM     28  C   UNL     1       2.700   4.244   3.261  1.00  0.00     0.002 A 
ATOM     29  H   UNL     1       2.959   0.046   3.179  1.00  0.00     0.166 HD
ENDBRANCH   9  20
TORSDOF 4
