REMARK SMILES O=S(=O)(Cc1ccccc1)N1C=Cc2ccccc2[C@@H]1c1c[nH]c2ccccc12
REMARK SMILES IDX 11 1 12 2 13 3 14 4 15 5 16 6 17 7 18 8 19 9 20 10 2 11 1 12
REMARK SMILES IDX 3 13 4 14 5 15 6 16 10 17 7 18 9 19 8 20 21 21 22 22 29 23
REMARK SMILES IDX 23 24 28 25 24 26 27 27 25 28 26 29
REMARK H PARENT 23 30
ROOT
ATOM      1  N   UNL     1      -0.908  -1.061   0.117  1.00  0.00    -0.265 N 
ATOM      2  C   UNL     1      -1.790  -0.817   1.226  1.00  0.00     0.099 C 
ATOM      3  C   UNL     1      -1.394  -0.074   2.257  1.00  0.00     0.027 C 
ATOM      4  C   UNL     1      -0.038   0.497   2.288  1.00  0.00    -0.019 A 
ATOM      5  C   UNL     1       0.440   1.117   3.452  1.00  0.00     0.008 A 
ATOM      6  C   UNL     1       1.740   1.626   3.494  1.00  0.00     0.001 A 
ATOM      7  C   UNL     1       2.569   1.522   2.375  1.00  0.00     0.000 A 
ATOM      8  C   UNL     1       2.101   0.911   1.209  1.00  0.00     0.007 A 
ATOM      9  C   UNL     1       0.797   0.391   1.157  1.00  0.00    -0.013 A 
ATOM     10  C   UNL     1       0.277  -0.224  -0.123  1.00  0.00     0.162 C 
ENDROOT
BRANCH   1  11
ATOM     11  S   UNL     1      -1.198  -2.431  -0.910  1.00  0.00     0.239 S 
ATOM     12  O   UNL     1      -0.852  -2.081  -2.330  1.00  0.00    -0.206 OA
ATOM     13  O   UNL     1      -2.649  -2.820  -0.850  1.00  0.00    -0.206 OA
BRANCH  11  14
ATOM     14  C   UNL     1      -0.189  -3.800  -0.364  1.00  0.00     0.195 C 
BRANCH  14  15
ATOM     15  C   UNL     1      -0.074  -3.788   1.135  1.00  0.00    -0.031 A 
ATOM     16  C   UNL     1       1.015  -3.153   1.757  1.00  0.00     0.005 A 
ATOM     17  C   UNL     1      -1.106  -4.317   1.928  1.00  0.00     0.005 A 
ATOM     18  C   UNL     1       1.071  -3.053   3.150  1.00  0.00     0.000 A 
ATOM     19  C   UNL     1      -1.043  -4.220   3.321  1.00  0.00     0.000 A 
ATOM     20  C   UNL     1       0.043  -3.587   3.932  1.00  0.00     0.000 A 
ENDBRANCH  14  15
ENDBRANCH  11  14
ENDBRANCH   1  11
BRANCH  10  21
ATOM     21  C   UNL     1      -0.058   0.861  -1.111  1.00  0.00     0.005 A 
ATOM     22  C   UNL     1      -1.146   1.731  -1.057  1.00  0.00     0.089 A 
ATOM     23  C   UNL     1       0.678   1.257  -2.213  1.00  0.00     0.005 A 
ATOM     24  N   UNL     1      -1.099   2.612  -2.081  1.00  0.00    -0.361 N 
ATOM     25  C   UNL     1       1.875   0.776  -2.748  1.00  0.00     0.011 A 
ATOM     26  C   UNL     1       0.012   2.316  -2.776  1.00  0.00     0.046 A 
ATOM     27  C   UNL     1       2.382   1.409  -3.897  1.00  0.00     0.001 A 
ATOM     28  C   UNL     1       0.493   2.963  -3.914  1.00  0.00     0.026 A 
ATOM     29  C   UNL     1       1.694   2.497  -4.478  1.00  0.00     0.002 A 
ATOM     30  H   UNL     1      -1.784   3.375  -2.281  1.00  0.00     0.166 HD
ENDBRANCH  10  21
TORSDOF 4
