REMARK SMILES O=S(=O)(Cc1ccccc1)N1C=Cc2ccccc2[C@H]1c1c[nH]c2ccccc12
REMARK SMILES IDX 11 1 12 2 13 3 14 4 15 5 16 6 17 7 18 8 19 9 20 10 2 11 1 12
REMARK SMILES IDX 3 13 4 14 5 15 6 16 10 17 7 18 9 19 8 20 21 21 22 22 29 23
REMARK SMILES IDX 23 24 28 25 24 26 27 27 25 28 26 29
REMARK H PARENT 23 30
ROOT
ATOM      1  N   UNL     1       0.432  -0.815  -1.041  1.00  0.00    -0.265 N 
ATOM      2  C   UNL     1       0.905  -1.878  -0.196  1.00  0.00     0.099 C 
ATOM      3  C   UNL     1       0.560  -1.928   1.089  1.00  0.00     0.027 C 
ATOM      4  C   UNL     1      -0.327  -0.903   1.663  1.00  0.00    -0.019 A 
ATOM      5  C   UNL     1      -0.838  -1.061   2.960  1.00  0.00     0.008 A 
ATOM      6  C   UNL     1      -1.709  -0.106   3.492  1.00  0.00     0.001 A 
ATOM      7  C   UNL     1      -2.073   1.010   2.735  1.00  0.00     0.000 A 
ATOM      8  C   UNL     1      -1.564   1.178   1.444  1.00  0.00     0.007 A 
ATOM      9  C   UNL     1      -0.692   0.222   0.897  1.00  0.00    -0.013 A 
ATOM     10  C   UNL     1      -0.105   0.435  -0.480  1.00  0.00     0.162 C 
ENDROOT
BRANCH   1  11
ATOM     11  S   UNL     1       0.409  -1.048  -2.763  1.00  0.00     0.239 S 
ATOM     12  O   UNL     1       0.749   0.244  -3.452  1.00  0.00    -0.206 OA
ATOM     13  O   UNL     1       1.425  -2.085  -3.154  1.00  0.00    -0.206 OA
BRANCH  11  14
ATOM     14  C   UNL     1      -1.218  -1.587  -3.262  1.00  0.00     0.195 C 
BRANCH  14  15
ATOM     15  C   UNL     1      -1.809  -2.484  -2.210  1.00  0.00    -0.031 A 
ATOM     16  C   UNL     1      -2.641  -1.951  -1.210  1.00  0.00     0.005 A 
ATOM     17  C   UNL     1      -1.448  -3.840  -2.153  1.00  0.00     0.005 A 
ATOM     18  C   UNL     1      -3.108  -2.765  -0.174  1.00  0.00     0.000 A 
ATOM     19  C   UNL     1      -1.921  -4.652  -1.118  1.00  0.00     0.000 A 
ATOM     20  C   UNL     1      -2.749  -4.114  -0.128  1.00  0.00     0.000 A 
ENDBRANCH  14  15
ENDBRANCH  11  14
ENDBRANCH   1  11
BRANCH  10  21
ATOM     21  C   UNL     1       0.984   1.472  -0.417  1.00  0.00     0.005 A 
ATOM     22  C   UNL     1       2.257   1.313   0.129  1.00  0.00     0.089 A 
ATOM     23  C   UNL     1       0.913   2.795  -0.814  1.00  0.00     0.005 A 
ATOM     24  N   UNL     1       2.949   2.473   0.061  1.00  0.00    -0.361 N 
ATOM     25  C   UNL     1      -0.117   3.532  -1.400  1.00  0.00     0.011 A 
ATOM     26  C   UNL     1       2.124   3.365  -0.512  1.00  0.00     0.046 A 
ATOM     27  C   UNL     1       0.123   4.889  -1.683  1.00  0.00     0.001 A 
ATOM     28  C   UNL     1       2.389   4.708  -0.779  1.00  0.00     0.026 A 
ATOM     29  C   UNL     1       1.371   5.474  -1.374  1.00  0.00     0.002 A 
ATOM     30  H   UNL     1       3.923   2.639   0.399  1.00  0.00     0.166 HD
ENDBRANCH  10  21
TORSDOF 4
