REMARK SMILES O=C([N-]Cc1cccc(-c2cccc(C[NH2+]C3CCCC3)c2)c1)c1ccc(-c2ccccc2)cc1
REMARK SMILES IDX 5 1 6 2 7 3 8 4 9 5 23 6 4 7 3 8 2 9 1 10 24 11 25 12 35 13
REMARK SMILES IDX 26 14 34 15 27 16 28 17 29 18 33 19 30 20 32 21 31 22 10 23
REMARK SMILES IDX 11 24 22 25 12 26 14 27 13 28 15 29 16 30 17 33 18 34 21 35
REMARK SMILES IDX 19 36 20 37
REMARK H PARENT 16 31 16 32
ROOT
ATOM      1  C   UNL     1       1.487  -3.426  -0.962  1.00  0.00    -0.065 A 
ATOM      2  C   UNL     1       2.489  -3.687  -0.016  1.00  0.00     0.002 A 
ATOM      3  C   UNL     1       2.180  -3.724   1.345  1.00  0.00     0.001 A 
ATOM      4  C   UNL     1       0.875  -3.476   1.776  1.00  0.00     0.009 A 
ATOM      5  C   UNL     1      -0.142  -3.192   0.845  1.00  0.00    -0.018 A 
ATOM      6  C   UNL     1       0.175  -3.182  -0.527  1.00  0.00     0.010 A 
ENDROOT
BRANCH   1   7
ATOM      7  C   UNL     1       1.838  -3.306  -2.419  1.00  0.00    -0.081 C 
BRANCH   7   8
ATOM      8  N   UNL     1       2.231  -1.933  -2.717  1.00  0.00    -0.646 NA
BRANCH   8   9
ATOM      9  C   UNL     1       1.296  -0.867  -2.926  1.00  0.00     0.082 C 
ATOM     10  O   UNL     1       0.072  -1.128  -3.084  1.00  0.00    -0.315 OA
BRANCH   9  11
ATOM     11  C   UNL     1       1.765   0.539  -2.961  1.00  0.00    -0.001 A 
ATOM     12  C   UNL     1       0.885   1.574  -3.322  1.00  0.00     0.011 A 
ATOM     13  C   UNL     1       3.090   0.863  -2.618  1.00  0.00     0.011 A 
ATOM     14  C   UNL     1       1.321   2.903  -3.340  1.00  0.00     0.009 A 
ATOM     15  C   UNL     1       3.525   2.192  -2.635  1.00  0.00     0.009 A 
ATOM     16  C   UNL     1       2.645   3.226  -2.996  1.00  0.00    -0.018 A 
BRANCH  16  17
ATOM     17  C   UNL     1       3.109   4.637  -3.016  1.00  0.00    -0.018 A 
ATOM     18  C   UNL     1       4.373   4.967  -3.539  1.00  0.00     0.009 A 
ATOM     19  C   UNL     1       2.290   5.665  -2.513  1.00  0.00     0.009 A 
ATOM     20  C   UNL     1       4.807   6.297  -3.557  1.00  0.00     0.001 A 
ATOM     21  C   UNL     1       2.729   6.993  -2.531  1.00  0.00     0.001 A 
ATOM     22  C   UNL     1       3.986   7.308  -3.053  1.00  0.00     0.000 A 
ENDBRANCH  16  17
ENDBRANCH   9  11
ENDBRANCH   8   9
ENDBRANCH   7   8
ENDBRANCH   1   7
BRANCH   5  23
ATOM     23  C   UNL     1      -1.516  -2.857   1.304  1.00  0.00    -0.018 A 
ATOM     24  C   UNL     1      -2.241  -1.822   0.684  1.00  0.00     0.009 A 
ATOM     25  C   UNL     1      -2.102  -3.545   2.384  1.00  0.00     0.018 A 
ATOM     26  C   UNL     1      -3.520  -1.484   1.133  1.00  0.00     0.001 A 
ATOM     27  C   UNL     1      -3.384  -3.200   2.844  1.00  0.00     0.007 A 
ATOM     28  C   UNL     1      -4.091  -2.168   2.207  1.00  0.00     0.009 A 
BRANCH  27  29
ATOM     29  C   UNL     1      -3.983  -3.912   4.032  1.00  0.00     0.297 C 
BRANCH  29  30
ATOM     30  N   UNL     1      -3.341  -3.530   5.305  1.00  0.00    -0.340 N 
ATOM     31  H   UNL     1      -2.316  -3.746   5.274  1.00  0.00     0.346 HD
ATOM     32  H   UNL     1      -3.760  -4.150   6.038  1.00  0.00     0.346 HD
BRANCH  30  33
ATOM     33  C   UNL     1      -3.583  -2.115   5.682  1.00  0.00     0.182 C 
ATOM     34  C   UNL     1      -3.467  -1.913   7.196  1.00  0.00     0.065 C 
ATOM     35  C   UNL     1      -2.561  -1.139   5.062  1.00  0.00     0.065 C 
ATOM     36  C   UNL     1      -2.965  -0.495   7.377  1.00  0.00     0.006 C 
ATOM     37  C   UNL     1      -2.046  -0.252   6.193  1.00  0.00     0.006 C 
ENDBRANCH  30  33
ENDBRANCH  29  30
ENDBRANCH  27  29
ENDBRANCH   5  23
TORSDOF 9
