REMARK SMILES O=C(NCc1cccc(-c2cccc(CNC3CCCC3)c2)c1)c1ccc(-c2ccccc2)cc1
REMARK SMILES IDX 5 1 6 2 7 3 8 4 9 5 23 6 4 7 3 8 2 9 1 10 24 12 25 13 35 14
REMARK SMILES IDX 26 15 34 16 27 17 28 18 29 19 33 20 30 21 32 22 31 23 10 24
REMARK SMILES IDX 11 25 22 26 12 27 14 28 13 29 15 30 16 31 17 33 18 34 21 35
REMARK SMILES IDX 19 36 20 37
REMARK H PARENT 3 11 16 32
ROOT
ATOM      1  C   UNL     1       2.161  -0.809   2.677  1.00  0.00    -0.028 A 
ATOM      2  C   UNL     1       1.939   0.354   3.430  1.00  0.00     0.005 A 
ATOM      3  C   UNL     1       0.658   0.649   3.902  1.00  0.00     0.001 A 
ATOM      4  C   UNL     1      -0.409  -0.207   3.623  1.00  0.00     0.009 A 
ATOM      5  C   UNL     1      -0.209  -1.373   2.863  1.00  0.00    -0.018 A 
ATOM      6  C   UNL     1       1.084  -1.663   2.390  1.00  0.00     0.014 A 
ENDROOT
BRANCH   1   7
ATOM      7  C   UNL     1       3.533  -1.125   2.147  1.00  0.00     0.152 C 
BRANCH   7   8
ATOM      8  N   UNL     1       3.605  -0.810   0.723  1.00  0.00    -0.348 N 
ATOM      9  C   UNL     1       3.888   0.516   0.244  1.00  0.00     0.251 C 
ATOM     10  O   UNL     1       3.998   1.465   1.068  1.00  0.00    -0.269 OA
ATOM     11  H   UNL     1       3.320  -1.557   0.051  1.00  0.00     0.164 HD
BRANCH   9  12
ATOM     12  C   UNL     1       4.040   0.793  -1.206  1.00  0.00     0.039 A 
ATOM     13  C   UNL     1       3.853   2.099  -1.694  1.00  0.00     0.014 A 
ATOM     14  C   UNL     1       4.395  -0.223  -2.111  1.00  0.00     0.014 A 
ATOM     15  C   UNL     1       3.996   2.377  -3.056  1.00  0.00     0.009 A 
ATOM     16  C   UNL     1       4.539   0.056  -3.473  1.00  0.00     0.009 A 
ATOM     17  C   UNL     1       4.338   1.358  -3.962  1.00  0.00    -0.018 A 
BRANCH  17  18
ATOM     18  C   UNL     1       4.489   1.654  -5.410  1.00  0.00    -0.018 A 
ATOM     19  C   UNL     1       5.531   1.070  -6.156  1.00  0.00     0.009 A 
ATOM     20  C   UNL     1       3.592   2.524  -6.060  1.00  0.00     0.009 A 
ATOM     21  C   UNL     1       5.671   1.352  -7.518  1.00  0.00     0.001 A 
ATOM     22  C   UNL     1       3.737   2.801  -7.423  1.00  0.00     0.001 A 
ATOM     23  C   UNL     1       4.774   2.215  -8.151  1.00  0.00     0.000 A 
ENDBRANCH  17  18
ENDBRANCH   9  12
ENDBRANCH   7   8
ENDBRANCH   1   7
BRANCH   5  24
ATOM     24  C   UNL     1      -1.344  -2.286   2.569  1.00  0.00    -0.018 A 
ATOM     25  C   UNL     1      -1.471  -2.884   1.302  1.00  0.00     0.009 A 
ATOM     26  C   UNL     1      -2.307  -2.570   3.555  1.00  0.00     0.013 A 
ATOM     27  C   UNL     1      -2.537  -3.743   1.027  1.00  0.00     0.001 A 
ATOM     28  C   UNL     1      -3.377  -3.438   3.283  1.00  0.00    -0.034 A 
ATOM     29  C   UNL     1      -3.488  -4.019   2.011  1.00  0.00     0.005 A 
BRANCH  28  30
ATOM     30  C   UNL     1      -4.419  -3.700   4.337  1.00  0.00     0.117 C 
BRANCH  30  31
ATOM     31  N   UNL     1      -5.314  -2.543   4.497  1.00  0.00    -0.310 NA
ATOM     32  H   UNL     1      -5.826  -2.692   5.398  1.00  0.00     0.123 HD
BRANCH  31  33
ATOM     33  C   UNL     1      -6.276  -2.411   3.376  1.00  0.00     0.054 C 
ATOM     34  C   UNL     1      -7.634  -1.890   3.851  1.00  0.00     0.019 C 
ATOM     35  C   UNL     1      -5.796  -1.333   2.401  1.00  0.00     0.019 C 
ATOM     36  C   UNL     1      -7.498  -0.379   3.887  1.00  0.00     0.002 C 
ATOM     37  C   UNL     1      -6.460  -0.025   2.828  1.00  0.00     0.002 C 
ENDBRANCH  31  33
ENDBRANCH  30  31
ENDBRANCH  28  30
ENDBRANCH   5  24
TORSDOF 8
