REMARK SMILES O=C(NCc1cccc(-c2cccc(C[NH2+]C3CCCC3)c2)c1)c1ccc(-c2ccccc2)cc1
REMARK SMILES IDX 5 1 6 2 7 3 8 4 9 5 23 6 4 7 3 8 2 9 1 10 24 12 25 13 35 14
REMARK SMILES IDX 26 15 34 16 27 17 28 18 29 19 33 20 30 21 32 22 31 23 10 24
REMARK SMILES IDX 11 25 22 26 12 27 14 28 13 29 15 30 16 31 17 34 18 35 21 36
REMARK SMILES IDX 19 37 20 38
REMARK H PARENT 3 11 16 32 16 33
ROOT
ATOM      1  C   UNL     1      -0.407   2.884   2.061  1.00  0.00    -0.028 A 
ATOM      2  C   UNL     1      -1.361   3.855   1.728  1.00  0.00     0.005 A 
ATOM      3  C   UNL     1      -1.179   4.665   0.606  1.00  0.00     0.001 A 
ATOM      4  C   UNL     1      -0.047   4.506  -0.198  1.00  0.00     0.009 A 
ATOM      5  C   UNL     1       0.916   3.528   0.109  1.00  0.00    -0.018 A 
ATOM      6  C   UNL     1       0.724   2.717   1.245  1.00  0.00     0.014 A 
ENDROOT
BRANCH   1   7
ATOM      7  C   UNL     1      -0.625   1.996   3.256  1.00  0.00     0.152 C 
BRANCH   7   8
ATOM      8  N   UNL     1      -1.610   0.963   2.943  1.00  0.00    -0.348 N 
ATOM      9  C   UNL     1      -1.292  -0.180   2.132  1.00  0.00     0.251 C 
ATOM     10  O   UNL     1      -0.092  -0.405   1.814  1.00  0.00    -0.269 OA
ATOM     11  H   UNL     1      -2.555   1.043   3.380  1.00  0.00     0.164 HD
BRANCH   9  12
ATOM     12  C   UNL     1      -2.349  -1.116   1.682  1.00  0.00     0.039 A 
ATOM     13  C   UNL     1      -3.679  -0.690   1.529  1.00  0.00     0.014 A 
ATOM     14  C   UNL     1      -2.025  -2.449   1.381  1.00  0.00     0.014 A 
ATOM     15  C   UNL     1      -4.666  -1.583   1.100  1.00  0.00     0.009 A 
ATOM     16  C   UNL     1      -3.011  -3.343   0.957  1.00  0.00     0.009 A 
ATOM     17  C   UNL     1      -4.344  -2.921   0.812  1.00  0.00    -0.018 A 
BRANCH  17  18
ATOM     18  C   UNL     1      -5.393  -3.875   0.365  1.00  0.00    -0.018 A 
ATOM     19  C   UNL     1      -5.116  -4.829  -0.633  1.00  0.00     0.009 A 
ATOM     20  C   UNL     1      -6.678  -3.845   0.938  1.00  0.00     0.009 A 
ATOM     21  C   UNL     1      -6.102  -5.734  -1.041  1.00  0.00     0.001 A 
ATOM     22  C   UNL     1      -7.660  -4.752   0.525  1.00  0.00     0.001 A 
ATOM     23  C   UNL     1      -7.372  -5.696  -0.462  1.00  0.00     0.000 A 
ENDBRANCH  17  18
ENDBRANCH   9  12
ENDBRANCH   7   8
ENDBRANCH   1   7
BRANCH   5  24
ATOM     24  C   UNL     1       2.113   3.352  -0.753  1.00  0.00    -0.018 A 
ATOM     25  C   UNL     1       2.005   3.444  -2.154  1.00  0.00     0.009 A 
ATOM     26  C   UNL     1       3.373   3.083  -0.185  1.00  0.00     0.018 A 
ATOM     27  C   UNL     1       3.129   3.269  -2.964  1.00  0.00     0.001 A 
ATOM     28  C   UNL     1       4.506   2.919  -0.998  1.00  0.00     0.007 A 
ATOM     29  C   UNL     1       4.374   3.002  -2.391  1.00  0.00     0.009 A 
BRANCH  28  30
ATOM     30  C   UNL     1       5.843   2.589  -0.383  1.00  0.00     0.297 C 
BRANCH  30  31
ATOM     31  N   UNL     1       6.026   1.129  -0.301  1.00  0.00    -0.340 N 
ATOM     32  H   UNL     1       5.917   0.703  -1.254  1.00  0.00     0.346 HD
ATOM     33  H   UNL     1       5.266   0.752   0.314  1.00  0.00     0.346 HD
BRANCH  31  34
ATOM     34  C   UNL     1       7.348   0.773   0.269  1.00  0.00     0.182 C 
ATOM     35  C   UNL     1       8.463   0.843  -0.785  1.00  0.00     0.065 C 
ATOM     36  C   UNL     1       7.374  -0.685   0.731  1.00  0.00     0.065 C 
ATOM     37  C   UNL     1       8.604  -0.562  -1.369  1.00  0.00     0.006 C 
ATOM     38  C   UNL     1       7.779  -1.495  -0.488  1.00  0.00     0.006 C 
ENDBRANCH  31  34
ENDBRANCH  30  31
ENDBRANCH  28  30
ENDBRANCH   5  24
TORSDOF 8
