REMARK SMILES Cc1ccc2nc(C)c(/C=C3\C(=O)[N-]c4ccccc43)cc2c1
REMARK SMILES IDX 10 1 11 2 12 3 20 4 14 5 19 6 15 7 18 8 16 9 17 10 13 11
REMARK SMILES IDX 9 12 7 13 21 14 6 15 22 16 5 17 23 18 4 19 2 20 3 21 8 22
REMARK SMILES IDX 1 23
REMARK H PARENT
ROOT
ATOM      1  C   UNL     1       0.363  -0.254  -0.132  1.00  0.00     0.020 C 
ENDROOT
BRANCH   1   2
ATOM      2  C   UNL     1       0.682   1.046  -0.075  1.00  0.00     0.006 C 
ATOM      3  C   UNL     1      -0.012   2.143   0.614  1.00  0.00     0.086 C 
ATOM      4  C   UNL     1       1.808   1.705  -0.725  1.00  0.00    -0.031 A 
ATOM      5  N   UNL     1       0.646   3.394   0.412  1.00  0.00    -0.622 NA
ATOM      6  C   UNL     1       2.825   1.181  -1.527  1.00  0.00     0.007 A 
ATOM      7  C   UNL     1       1.754   3.052  -0.418  1.00  0.00    -0.126 A 
ATOM      8  C   UNL     1       3.800   2.063  -2.023  1.00  0.00     0.001 A 
ATOM      9  C   UNL     1       2.714   3.941  -0.901  1.00  0.00    -0.015 A 
ATOM     10  C   UNL     1       3.745   3.436  -1.711  1.00  0.00    -0.001 A 
ATOM     11  O   UNL     1      -1.069   2.029   1.288  1.00  0.00    -0.315 OA
ENDBRANCH   1   2
BRANCH   1  12
ATOM     12  C   UNL     1      -0.799  -0.819   0.576  1.00  0.00    -0.003 A 
ATOM     13  C   UNL     1      -0.775  -1.073   1.965  1.00  0.00     0.045 A 
ATOM     14  C   UNL     1      -1.948  -1.141  -0.157  1.00  0.00     0.020 A 
ATOM     15  N   UNL     1      -1.878  -1.591   2.572  1.00  0.00    -0.253 NA
ATOM     16  C   UNL     1      -3.067  -1.675   0.491  1.00  0.00     0.001 A 
ATOM     17  C   UNL     1      -3.010  -1.893   1.884  1.00  0.00     0.071 A 
ATOM     18  C   UNL     1      -4.236  -1.994  -0.217  1.00  0.00     0.013 A 
ATOM     19  C   UNL     1      -4.116  -2.428   2.552  1.00  0.00     0.029 A 
ATOM     20  C   UNL     1      -5.351  -2.515   0.459  1.00  0.00    -0.050 A 
ATOM     21  C   UNL     1      -5.279  -2.744   1.842  1.00  0.00     0.005 A 
ATOM     22  C   UNL     1       0.438  -0.783   2.799  1.00  0.00     0.067 C 
ATOM     23  C   UNL     1      -6.586  -2.892  -0.304  1.00  0.00     0.044 C 
ENDBRANCH   1  12
TORSDOF 2
