REMARK SMILES COC1=CC(=O)C(=O)c2ccccc21
REMARK SMILES IDX 3 1 4 2 5 3 6 4 7 5 8 6 9 7 10 8 11 9 12 10 13 11 14 12 2 13
REMARK SMILES IDX 1 14
REMARK H PARENT
ROOT
ATOM      1  C   UNL     1       0.239  -0.520   0.151  1.00  0.00     0.130 C 
ATOM      2  C   UNL     1       0.268  -1.858  -0.022  1.00  0.00     0.103 C 
ATOM      3  C   UNL     1       1.086  -2.726   0.839  1.00  0.00     0.230 C 
ATOM      4  O   UNL     1       1.093  -3.973   0.654  1.00  0.00    -0.285 OA
ATOM      5  C   UNL     1       1.890  -2.129   1.911  1.00  0.00     0.233 C 
ATOM      6  O   UNL     1       2.597  -2.860   2.657  1.00  0.00    -0.285 OA
ATOM      7  C   UNL     1       1.852  -0.664   2.092  1.00  0.00     0.037 A 
ATOM      8  C   UNL     1       2.604  -0.043   3.104  1.00  0.00     0.013 A 
ATOM      9  C   UNL     1       2.558   1.344   3.264  1.00  0.00     0.001 A 
ATOM     10  C   UNL     1       1.764   2.120   2.418  1.00  0.00     0.001 A 
ATOM     11  C   UNL     1       1.012   1.515   1.409  1.00  0.00     0.013 A 
ATOM     12  C   UNL     1       1.046   0.119   1.232  1.00  0.00     0.028 A 
ENDROOT
BRANCH   1  13
ATOM     13  O   UNL     1      -0.544   0.311  -0.672  1.00  0.00    -0.496 OA
ATOM     14  C   UNL     1      -1.368  -0.137  -1.744  1.00  0.00     0.278 C 
ENDBRANCH   1  13
TORSDOF 1
