REMARK SMILES CCCCc1cc([C@H](C)c2ccc(-c3cccc(CNCC(C)C)c3)cc2)on1
REMARK SMILES IDX 10 1 11 2 12 3 13 4 26 5 27 6 8 7 9 8 7 9 5 10 6 11 29 12
REMARK SMILES IDX 28 13 4 14 3 15 2 16 1 17 14 18 15 19 25 20 16 21 18 22
REMARK SMILES IDX 17 23 19 24 20 25 21 27 22 28 23 29 24 30
REMARK H PARENT 20 26
ROOT
ATOM      1  C   UNL     1      -1.593  -1.446  -1.307  1.00  0.00    -0.037 A 
ATOM      2  C   UNL     1      -0.244  -1.228  -0.970  1.00  0.00     0.005 A 
ATOM      3  C   UNL     1       0.180   0.021  -0.510  1.00  0.00     0.009 A 
ATOM      4  C   UNL     1      -0.731   1.085  -0.388  1.00  0.00    -0.018 A 
ATOM      5  C   UNL     1      -2.074   0.872  -0.745  1.00  0.00     0.009 A 
ATOM      6  C   UNL     1      -2.500  -0.379  -1.200  1.00  0.00     0.005 A 
ENDROOT
BRANCH   1   7
ATOM      7  C   UNL     1      -2.067  -2.802  -1.788  1.00  0.00     0.085 C 
ATOM      8  C   UNL     1      -1.533  -3.099  -3.195  1.00  0.00     0.021 C 
BRANCH   7   9
ATOM      9  C   UNL     1      -1.703  -3.868  -0.787  1.00  0.00     0.144 A 
ATOM     10  C   UNL     1      -0.729  -5.431   0.358  1.00  0.00     0.084 A 
ATOM     11  C   UNL     1      -0.627  -4.736  -0.828  1.00  0.00     0.073 A 
ATOM     12  N   UNL     1      -1.796  -4.992   1.054  1.00  0.00    -0.085 NA
ATOM     13  O   UNL     1      -2.355  -4.060   0.338  1.00  0.00    -0.361 OA
BRANCH  10  14
ATOM     14  C   UNL     1       0.244  -6.452   0.868  1.00  0.00     0.060 C 
BRANCH  14  15
ATOM     15  C   UNL     1       1.598  -5.822   1.226  1.00  0.00     0.006 C 
BRANCH  15  16
ATOM     16  C   UNL     1       1.492  -4.837   2.399  1.00  0.00    -0.003 C 
ATOM     17  C   UNL     1       2.856  -4.246   2.747  1.00  0.00     0.004 C 
ENDBRANCH  15  16
ENDBRANCH  14  15
ENDBRANCH  10  14
ENDBRANCH   7   9
ENDBRANCH   1   7
BRANCH   4  18
ATOM     18  C   UNL     1      -0.285   2.406   0.126  1.00  0.00    -0.018 A 
ATOM     19  C   UNL     1      -1.097   3.138   1.012  1.00  0.00     0.009 A 
ATOM     20  C   UNL     1       0.968   2.933  -0.241  1.00  0.00     0.013 A 
ATOM     21  C   UNL     1      -0.665   4.365   1.520  1.00  0.00     0.001 A 
ATOM     22  C   UNL     1       1.407   4.163   0.275  1.00  0.00    -0.034 A 
ATOM     23  C   UNL     1       0.581   4.876   1.157  1.00  0.00     0.005 A 
BRANCH  22  24
ATOM     24  C   UNL     1       2.783   4.683  -0.049  1.00  0.00     0.116 C 
BRANCH  24  25
ATOM     25  N   UNL     1       3.644   4.588   1.137  1.00  0.00    -0.312 NA
ATOM     26  H   UNL     1       4.439   5.259   1.015  1.00  0.00     0.123 HD
BRANCH  25  27
ATOM     27  C   UNL     1       4.207   3.238   1.294  1.00  0.00     0.084 C 
BRANCH  27  28
ATOM     28  C   UNL     1       4.616   3.003   2.759  1.00  0.00    -0.004 C 
ATOM     29  C   UNL     1       3.381   2.966   3.672  1.00  0.00     0.009 C 
ATOM     30  C   UNL     1       5.410   1.697   2.890  1.00  0.00     0.009 C 
ENDBRANCH  27  28
ENDBRANCH  25  27
ENDBRANCH  24  25
ENDBRANCH  22  24
ENDBRANCH   4  18
TORSDOF 10
