REMARK SMILES CCCCc1cc([C@H](C)c2ccc(-c3cccc(C[NH2+]CC(C)C)c3)cc2)on1
REMARK SMILES IDX 10 1 11 2 12 3 13 4 26 5 27 6 8 7 9 8 7 9 5 10 6 11 29 12
REMARK SMILES IDX 28 13 4 14 3 15 2 16 1 17 14 18 15 19 25 20 16 21 18 22
REMARK SMILES IDX 17 23 19 24 20 25 21 28 22 29 23 30 24 31
REMARK H PARENT 20 26 20 27
ROOT
ATOM      1  C   UNL     1      -1.058  -2.375  -2.378  1.00  0.00    -0.037 A 
ATOM      2  C   UNL     1       0.331  -2.256  -2.581  1.00  0.00     0.005 A 
ATOM      3  C   UNL     1       0.923  -0.998  -2.711  1.00  0.00     0.009 A 
ATOM      4  C   UNL     1       0.148   0.171  -2.619  1.00  0.00    -0.018 A 
ATOM      5  C   UNL     1      -1.234   0.054  -2.403  1.00  0.00     0.009 A 
ATOM      6  C   UNL     1      -1.830  -1.205  -2.282  1.00  0.00     0.005 A 
ENDROOT
BRANCH   1   7
ATOM      7  C   UNL     1      -1.724  -3.728  -2.176  1.00  0.00     0.085 C 
ATOM      8  C   UNL     1      -1.172  -4.818  -3.104  1.00  0.00     0.021 C 
BRANCH   7   9
ATOM      9  C   UNL     1      -1.641  -4.172  -0.740  1.00  0.00     0.144 A 
ATOM     10  C   UNL     1      -1.015  -4.610   1.288  1.00  0.00     0.084 A 
ATOM     11  C   UNL     1      -0.580  -4.000   0.131  1.00  0.00     0.073 A 
ATOM     12  N   UNL     1      -2.248  -5.122   1.102  1.00  0.00    -0.085 NA
ATOM     13  O   UNL     1      -2.590  -4.843  -0.122  1.00  0.00    -0.361 OA
BRANCH  10  14
ATOM     14  C   UNL     1      -0.247  -4.714   2.570  1.00  0.00     0.060 C 
BRANCH  14  15
ATOM     15  C   UNL     1       0.940  -5.672   2.421  1.00  0.00     0.006 C 
BRANCH  15  16
ATOM     16  C   UNL     1       1.688  -5.826   3.747  1.00  0.00    -0.003 C 
ATOM     17  C   UNL     1       2.889  -6.757   3.597  1.00  0.00     0.004 C 
ENDBRANCH  15  16
ENDBRANCH  14  15
ENDBRANCH  10  14
ENDBRANCH   7   9
ENDBRANCH   1   7
BRANCH   4  18
ATOM     18  C   UNL     1       0.785   1.506  -2.740  1.00  0.00    -0.018 A 
ATOM     19  C   UNL     1       1.763   1.746  -3.721  1.00  0.00     0.009 A 
ATOM     20  C   UNL     1       0.433   2.544  -1.859  1.00  0.00     0.018 A 
ATOM     21  C   UNL     1       2.371   2.999  -3.824  1.00  0.00     0.001 A 
ATOM     22  C   UNL     1       1.044   3.804  -1.960  1.00  0.00     0.007 A 
ATOM     23  C   UNL     1       2.020   4.022  -2.944  1.00  0.00     0.009 A 
BRANCH  22  24
ATOM     24  C   UNL     1       0.725   4.884  -0.956  1.00  0.00     0.297 C 
BRANCH  24  25
ATOM     25  N   UNL     1       1.628   4.784   0.202  1.00  0.00    -0.342 N 
ATOM     26  H   UNL     1       2.607   4.941  -0.134  1.00  0.00     0.346 HD
ATOM     27  H   UNL     1       1.578   3.822   0.607  1.00  0.00     0.346 HD
BRANCH  25  28
ATOM     28  C   UNL     1       1.332   5.803   1.230  1.00  0.00     0.263 C 
BRANCH  28  29
ATOM     29  C   UNL     1       0.182   5.388   2.185  1.00  0.00     0.038 C 
ATOM     30  C   UNL     1      -0.360   6.620   2.922  1.00  0.00     0.013 C 
ATOM     31  C   UNL     1       0.642   4.336   3.208  1.00  0.00     0.013 C 
ENDBRANCH  28  29
ENDBRANCH  25  28
ENDBRANCH  24  25
ENDBRANCH  22  24
ENDBRANCH   4  18
TORSDOF 10
