REMARK SMILES CCCCc1cc([C@@H](C)c2ccc(-c3cccc(CNCC(C)C)c3)cc2)on1
REMARK SMILES IDX 10 1 11 2 12 3 13 4 26 5 27 6 8 7 9 8 7 9 5 10 6 11 29 12
REMARK SMILES IDX 28 13 4 14 3 15 2 16 1 17 14 18 15 19 25 20 16 21 18 22
REMARK SMILES IDX 17 23 19 24 20 25 21 27 22 28 23 29 24 30
REMARK H PARENT 20 26
ROOT
ATOM      1  C   UNL     1      -1.658   0.501  -0.659  1.00  0.00    -0.037 A 
ATOM      2  C   UNL     1      -0.970  -0.719  -0.796  1.00  0.00     0.005 A 
ATOM      3  C   UNL     1       0.063  -1.055   0.083  1.00  0.00     0.009 A 
ATOM      4  C   UNL     1       0.438  -0.176   1.114  1.00  0.00    -0.018 A 
ATOM      5  C   UNL     1      -0.244   1.046   1.246  1.00  0.00     0.009 A 
ATOM      6  C   UNL     1      -1.278   1.381   0.368  1.00  0.00     0.005 A 
ENDROOT
BRANCH   1   7
ATOM      7  C   UNL     1      -2.768   0.886  -1.616  1.00  0.00     0.085 C 
ATOM      8  C   UNL     1      -3.899  -0.148  -1.621  1.00  0.00     0.021 C 
BRANCH   7   9
ATOM      9  C   UNL     1      -2.217   1.085  -3.000  1.00  0.00     0.144 A 
ATOM     10  C   UNL     1      -1.476   1.935  -4.847  1.00  0.00     0.084 A 
ATOM     11  C   UNL     1      -2.020   2.295  -3.632  1.00  0.00     0.073 A 
ATOM     12  N   UNL     1      -1.355   0.595  -4.916  1.00  0.00    -0.085 NA
ATOM     13  O   UNL     1      -1.810   0.120  -3.793  1.00  0.00    -0.361 OA
BRANCH  10  14
ATOM     14  C   UNL     1      -1.024   2.875  -5.923  1.00  0.00     0.060 C 
BRANCH  14  15
ATOM     15  C   UNL     1       0.247   3.641  -5.524  1.00  0.00     0.006 C 
BRANCH  15  16
ATOM     16  C   UNL     1       1.473   2.742  -5.286  1.00  0.00    -0.003 C 
ATOM     17  C   UNL     1       1.982   2.085  -6.568  1.00  0.00     0.004 C 
ENDBRANCH  15  16
ENDBRANCH  14  15
ENDBRANCH  10  14
ENDBRANCH   7   9
ENDBRANCH   1   7
BRANCH   4  18
ATOM     18  C   UNL     1       1.539  -0.533   2.046  1.00  0.00    -0.018 A 
ATOM     19  C   UNL     1       2.697  -1.176   1.572  1.00  0.00     0.009 A 
ATOM     20  C   UNL     1       1.438  -0.239   3.419  1.00  0.00     0.013 A 
ATOM     21  C   UNL     1       3.726  -1.521   2.451  1.00  0.00     0.001 A 
ATOM     22  C   UNL     1       2.470  -0.587   4.305  1.00  0.00    -0.034 A 
ATOM     23  C   UNL     1       3.614  -1.233   3.812  1.00  0.00     0.005 A 
BRANCH  22  24
ATOM     24  C   UNL     1       2.327  -0.304   5.776  1.00  0.00     0.116 C 
BRANCH  24  25
ATOM     25  N   UNL     1       1.240  -1.101   6.364  1.00  0.00    -0.312 NA
ATOM     26  H   UNL     1       1.065  -0.719   7.322  1.00  0.00     0.123 HD
BRANCH  25  27
ATOM     27  C   UNL     1       1.586  -2.529   6.499  1.00  0.00     0.084 C 
BRANCH  27  28
ATOM     28  C   UNL     1       0.901  -3.369   5.402  1.00  0.00    -0.004 C 
ATOM     29  C   UNL     1      -0.627  -3.228   5.461  1.00  0.00     0.009 C 
ATOM     30  C   UNL     1       1.302  -4.843   5.532  1.00  0.00     0.009 C 
ENDBRANCH  27  28
ENDBRANCH  25  27
ENDBRANCH  24  25
ENDBRANCH  22  24
ENDBRANCH   4  18
TORSDOF 10
