REMARK SMILES CCCCc1cc([C@@H](C)c2ccc(-c3cccc(C[NH2+]CC(C)C)c3)cc2)on1
REMARK SMILES IDX 10 1 11 2 12 3 13 4 26 5 27 6 8 7 9 8 7 9 5 10 6 11 29 12
REMARK SMILES IDX 28 13 4 14 3 15 2 16 1 17 14 18 15 19 25 20 16 21 18 22
REMARK SMILES IDX 17 23 19 24 20 25 21 28 22 29 23 30 24 31
REMARK H PARENT 20 26 20 27
ROOT
ATOM      1  C   UNL     1       2.615   1.339  -0.503  1.00  0.00    -0.037 A 
ATOM      2  C   UNL     1       1.831   2.497  -0.352  1.00  0.00     0.005 A 
ATOM      3  C   UNL     1       0.556   2.422   0.216  1.00  0.00     0.009 A 
ATOM      4  C   UNL     1       0.045   1.190   0.658  1.00  0.00    -0.018 A 
ATOM      5  C   UNL     1       0.832   0.034   0.515  1.00  0.00     0.009 A 
ATOM      6  C   UNL     1       2.105   0.108  -0.058  1.00  0.00     0.005 A 
ENDROOT
BRANCH   1   7
ATOM      7  C   UNL     1       4.008   1.411  -1.095  1.00  0.00     0.085 C 
ATOM      8  C   UNL     1       4.980   2.058  -0.102  1.00  0.00     0.021 C 
BRANCH   7   9
ATOM      9  C   UNL     1       3.997   2.138  -2.414  1.00  0.00     0.144 A 
ATOM     10  C   UNL     1       3.669   2.709  -4.476  1.00  0.00     0.084 A 
ATOM     11  C   UNL     1       3.425   1.684  -3.584  1.00  0.00     0.073 A 
ATOM     12  N   UNL     1       4.332   3.705  -3.858  1.00  0.00    -0.085 NA
ATOM     13  O   UNL     1       4.513   3.327  -2.625  1.00  0.00    -0.361 OA
BRANCH  10  14
ATOM     14  C   UNL     1       3.203   2.770  -5.898  1.00  0.00     0.060 C 
BRANCH  14  15
ATOM     15  C   UNL     1       2.039   3.757  -6.078  1.00  0.00     0.006 C 
BRANCH  15  16
ATOM     16  C   UNL     1       0.772   3.394  -5.282  1.00  0.00    -0.003 C 
ATOM     17  C   UNL     1       0.128   2.090  -5.752  1.00  0.00     0.004 C 
ENDBRANCH  15  16
ENDBRANCH  14  15
ENDBRANCH  10  14
ENDBRANCH   7   9
ENDBRANCH   1   7
BRANCH   4  18
ATOM     18  C   UNL     1      -1.310   1.105   1.256  1.00  0.00    -0.018 A 
ATOM     19  C   UNL     1      -2.389   1.794   0.678  1.00  0.00     0.009 A 
ATOM     20  C   UNL     1      -1.540   0.300   2.387  1.00  0.00     0.018 A 
ATOM     21  C   UNL     1      -3.674   1.673   1.212  1.00  0.00     0.001 A 
ATOM     22  C   UNL     1      -2.831   0.176   2.926  1.00  0.00     0.007 A 
ATOM     23  C   UNL     1      -3.897   0.864   2.329  1.00  0.00     0.009 A 
BRANCH  22  24
ATOM     24  C   UNL     1      -3.082  -0.738   4.103  1.00  0.00     0.297 C 
BRANCH  24  25
ATOM     25  N   UNL     1      -3.632  -2.045   3.691  1.00  0.00    -0.342 N 
ATOM     26  H   UNL     1      -4.489  -1.873   3.112  1.00  0.00     0.346 HD
ATOM     27  H   UNL     1      -3.943  -2.567   4.542  1.00  0.00     0.346 HD
BRANCH  25  28
ATOM     28  C   UNL     1      -2.701  -2.873   2.893  1.00  0.00     0.263 C 
BRANCH  28  29
ATOM     29  C   UNL     1      -1.553  -3.506   3.723  1.00  0.00     0.038 C 
ATOM     30  C   UNL     1      -2.052  -4.678   4.582  1.00  0.00     0.013 C 
ATOM     31  C   UNL     1      -0.437  -3.987   2.786  1.00  0.00     0.013 C 
ENDBRANCH  28  29
ENDBRANCH  25  28
ENDBRANCH  24  25
ENDBRANCH  22  24
ENDBRANCH   4  18
TORSDOF 10
