REMARK SMILES O=S(=O)(Cc1ccccc1)N1CCC[C@H]1c1ccccc1
REMARK SMILES IDX 1 1 2 2 3 3 4 4 5 5 6 6 10 7 7 8 9 9 8 10 11 11 12 12 15 13
REMARK SMILES IDX 13 14 14 15 16 16 17 17 21 18 18 19 20 20 19 21
REMARK H PARENT
ROOT
ATOM      1  O   UNL     1       0.802  -1.414   0.830  1.00  0.00    -0.212 OA
ATOM      2  S   UNL     1       0.489  -0.366  -0.203  1.00  0.00     0.218 S 
ATOM      3  O   UNL     1       0.090   0.905   0.492  1.00  0.00    -0.212 OA
ENDROOT
BRANCH   2   4
ATOM      4  C   UNL     1       1.967  -0.024  -1.152  1.00  0.00     0.189 C 
BRANCH   4   5
ATOM      5  C   UNL     1       2.995   0.659  -0.294  1.00  0.00    -0.032 A 
ATOM      6  C   UNL     1       3.046   2.062  -0.227  1.00  0.00     0.005 A 
ATOM      7  C   UNL     1       3.880  -0.100   0.489  1.00  0.00     0.005 A 
ATOM      8  C   UNL     1       3.981   2.694   0.597  1.00  0.00     0.000 A 
ATOM      9  C   UNL     1       4.814   0.536   1.313  1.00  0.00     0.000 A 
ATOM     10  C   UNL     1       4.866   1.932   1.365  1.00  0.00     0.000 A 
ENDBRANCH   4   5
ENDBRANCH   2   4
BRANCH   2  11
ATOM     11  N   UNL     1      -0.789  -0.917  -1.284  1.00  0.00    -0.194 NA
ATOM     12  C   UNL     1      -0.445  -2.248  -1.812  1.00  0.00     0.103 C 
ATOM     13  C   UNL     1      -2.084  -1.140  -0.613  1.00  0.00     0.103 C 
ATOM     14  C   UNL     1      -1.133  -3.303  -0.942  1.00  0.00     0.019 C 
ATOM     15  C   UNL     1      -2.016  -2.526   0.018  1.00  0.00     0.026 C 
BRANCH  13  16
ATOM     16  C   UNL     1      -2.557   0.018   0.256  1.00  0.00    -0.030 A 
ATOM     17  C   UNL     1      -2.767   1.267  -0.359  1.00  0.00     0.005 A 
ATOM     18  C   UNL     1      -2.831  -0.112   1.635  1.00  0.00     0.005 A 
ATOM     19  C   UNL     1      -3.208   2.364   0.387  1.00  0.00     0.000 A 
ATOM     20  C   UNL     1      -3.272   0.990   2.375  1.00  0.00     0.000 A 
ATOM     21  C   UNL     1      -3.457   2.226   1.753  1.00  0.00     0.000 A 
ENDBRANCH  13  16
ENDBRANCH   2  11
TORSDOF 4
