REMARK SMILES O=S(=O)(Cc1ccccc1)N1CCC[C@@H]1c1ccccc1
REMARK SMILES IDX 1 1 2 2 3 3 4 4 5 5 6 6 10 7 7 8 9 9 8 10 11 11 12 12 15 13
REMARK SMILES IDX 13 14 14 15 16 16 17 17 21 18 18 19 20 20 19 21
REMARK H PARENT
ROOT
ATOM      1  O   UNL     1       0.805   0.100   2.784  1.00  0.00    -0.212 OA
ATOM      2  S   UNL     1      -0.066  -0.260   1.613  1.00  0.00     0.218 S 
ATOM      3  O   UNL     1       0.112  -1.722   1.307  1.00  0.00    -0.212 OA
ENDROOT
BRANCH   2   4
ATOM      4  C   UNL     1      -1.760   0.049   2.102  1.00  0.00     0.189 C 
BRANCH   4   5
ATOM      5  C   UNL     1      -2.736  -0.278   1.004  1.00  0.00    -0.032 A 
ATOM      6  C   UNL     1      -2.989  -1.616   0.655  1.00  0.00     0.005 A 
ATOM      7  C   UNL     1      -3.414   0.749   0.326  1.00  0.00     0.005 A 
ATOM      8  C   UNL     1      -3.890  -1.918  -0.370  1.00  0.00     0.000 A 
ATOM      9  C   UNL     1      -4.315   0.442  -0.699  1.00  0.00     0.000 A 
ATOM     10  C   UNL     1      -4.551  -0.891  -1.048  1.00  0.00     0.000 A 
ENDBRANCH   4   5
ENDBRANCH   2   4
BRANCH   2  11
ATOM     11  N   UNL     1       0.381   0.725   0.232  1.00  0.00    -0.194 NA
ATOM     12  C   UNL     1      -0.160   0.239  -1.038  1.00  0.00     0.103 C 
ATOM     13  C   UNL     1       1.826   0.940   0.034  1.00  0.00     0.103 C 
ATOM     14  C   UNL     1       0.765   0.741  -2.142  1.00  0.00     0.019 C 
ATOM     15  C   UNL     1       1.990   1.310  -1.440  1.00  0.00     0.026 C 
BRANCH  13  16
ATOM     16  C   UNL     1       2.712  -0.249   0.414  1.00  0.00    -0.030 A 
ATOM     17  C   UNL     1       2.688  -1.459  -0.309  1.00  0.00     0.005 A 
ATOM     18  C   UNL     1       3.589  -0.135   1.511  1.00  0.00     0.005 A 
ATOM     19  C   UNL     1       3.508  -2.527   0.068  1.00  0.00     0.000 A 
ATOM     20  C   UNL     1       4.405  -1.207   1.883  1.00  0.00     0.000 A 
ATOM     21  C   UNL     1       4.364  -2.402   1.163  1.00  0.00     0.000 A 
ENDBRANCH  13  16
ENDBRANCH   2  11
TORSDOF 4
