REMARK SMILES O=C(/N=C\c1ccco1)C(=C\c1cccs1)/N=C(\O)c1ccccc1
REMARK SMILES IDX 10 1 17 2 18 3 19 4 20 6 21 7 25 8 22 9 24 10 23 11 2 12
REMARK SMILES IDX 1 13 3 14 4 15 5 16 9 17 6 18 8 19 7 20 11 21 12 22 16 23
REMARK SMILES IDX 13 24 15 25 14 26
REMARK H PARENT 19 5
ROOT
ATOM      1  C   UNL     1      -1.068   0.317   0.494  1.00  0.00     0.136 C 
ENDROOT
BRANCH   1   2
ATOM      2  N   UNL     1      -0.907  -0.893  -0.263  1.00  0.00    -0.208 NA
BRANCH   2   3
ATOM      3  C   UNL     1      -1.715  -1.374  -1.170  1.00  0.00     0.218 C 
BRANCH   3   4
ATOM      4  O   UNL     1      -2.841  -0.665  -1.602  1.00  0.00    -0.493 OA
ATOM      5  H   UNL     1      -3.010   0.305  -1.367  1.00  0.00     0.295 HD
ENDBRANCH   3   4
BRANCH   3   6
ATOM      6  C   UNL     1      -1.414  -2.686  -1.791  1.00  0.00     0.037 A 
ATOM      7  C   UNL     1      -0.160  -3.303  -1.612  1.00  0.00     0.014 A 
ATOM      8  C   UNL     1      -2.379  -3.328  -2.589  1.00  0.00     0.014 A 
ATOM      9  C   UNL     1       0.120  -4.530  -2.224  1.00  0.00     0.001 A 
ATOM     10  C   UNL     1      -2.096  -4.557  -3.193  1.00  0.00     0.001 A 
ATOM     11  C   UNL     1      -0.846  -5.155  -3.015  1.00  0.00     0.000 A 
ENDBRANCH   3   6
ENDBRANCH   2   3
ENDBRANCH   1   2
BRANCH   1  12
ATOM     12  C   UNL     1       0.155   1.110   0.743  1.00  0.00     0.295 C 
ATOM     13  O   UNL     1       1.087   1.067  -0.105  1.00  0.00    -0.265 OA
BRANCH  12  14
ATOM     14  N   UNL     1       0.346   1.774   2.005  1.00  0.00    -0.212 NA
BRANCH  14  15
ATOM     15  C   UNL     1       1.211   2.705   2.299  1.00  0.00     0.162 C 
BRANCH  15  16
ATOM     16  C   UNL     1       2.079   3.381   1.318  1.00  0.00     0.145 A 
ATOM     17  O   UNL     1       3.335   3.678   1.557  1.00  0.00    -0.463 OA
ATOM     18  C   UNL     1       1.715   3.845   0.068  1.00  0.00     0.052 A 
ATOM     19  C   UNL     1       3.828   4.297   0.508  1.00  0.00     0.196 A 
ATOM     20  C   UNL     1       2.849   4.428  -0.457  1.00  0.00     0.043 A 
ENDBRANCH  15  16
ENDBRANCH  14  15
ENDBRANCH  12  14
ENDBRANCH   1  12
BRANCH   1  21
ATOM     21  C   UNL     1      -2.247   0.582   1.097  1.00  0.00     0.053 C 
BRANCH  21  22
ATOM     22  C   UNL     1      -2.603   1.852   1.756  1.00  0.00     0.029 A 
ATOM     23  S   UNL     1      -3.696   1.986   3.025  1.00  0.00    -0.144 S 
ATOM     24  C   UNL     1      -2.241   3.135   1.352  1.00  0.00     0.020 A 
ATOM     25  C   UNL     1      -3.686   3.665   3.110  1.00  0.00     0.065 A 
ATOM     26  C   UNL     1      -2.835   4.144   2.121  1.00  0.00     0.012 A 
ENDBRANCH  21  22
ENDBRANCH   1  21
TORSDOF 10
