REMARK SMILES O=C(/N=C\c1ccco1)C(=C/c1cccs1)/N=C(/O)c1ccccc1
REMARK SMILES IDX 10 1 17 2 18 3 19 4 20 6 21 7 25 8 22 9 24 10 23 11 2 12
REMARK SMILES IDX 1 13 3 14 4 15 5 16 9 17 6 18 8 19 7 20 11 21 12 22 16 23
REMARK SMILES IDX 13 24 15 25 14 26
REMARK H PARENT 19 5
ROOT
ATOM      1  C   UNL     1       0.828   0.812   0.827  1.00  0.00     0.136 C 
ENDROOT
BRANCH   1   2
ATOM      2  N   UNL     1       1.329   1.709  -0.181  1.00  0.00    -0.208 NA
BRANCH   2   3
ATOM      3  C   UNL     1       0.818   1.921  -1.364  1.00  0.00     0.218 C 
BRANCH   3   4
ATOM      4  O   UNL     1       1.387   2.899  -2.175  1.00  0.00    -0.493 OA
ATOM      5  H   UNL     1       2.185   3.439  -1.864  1.00  0.00     0.295 HD
ENDBRANCH   3   4
BRANCH   3   6
ATOM      6  C   UNL     1      -0.356   1.180  -1.880  1.00  0.00     0.037 A 
ATOM      7  C   UNL     1      -0.432  -0.222  -1.795  1.00  0.00     0.014 A 
ATOM      8  C   UNL     1      -1.402   1.887  -2.495  1.00  0.00     0.014 A 
ATOM      9  C   UNL     1      -1.556  -0.897  -2.279  1.00  0.00     0.001 A 
ATOM     10  C   UNL     1      -2.525   1.208  -2.976  1.00  0.00     0.001 A 
ATOM     11  C   UNL     1      -2.605  -0.182  -2.864  1.00  0.00     0.000 A 
ENDBRANCH   3   6
ENDBRANCH   2   3
ENDBRANCH   1   2
BRANCH   1  12
ATOM     12  C   UNL     1       1.726  -0.269   1.289  1.00  0.00     0.295 C 
ATOM     13  O   UNL     1       2.885  -0.351   0.799  1.00  0.00    -0.265 OA
BRANCH  12  14
ATOM     14  N   UNL     1       1.319  -1.161   2.339  1.00  0.00    -0.212 NA
BRANCH  14  15
ATOM     15  C   UNL     1       1.734  -2.377   2.556  1.00  0.00     0.162 C 
BRANCH  15  16
ATOM     16  C   UNL     1       2.581  -3.154   1.631  1.00  0.00     0.145 A 
ATOM     17  O   UNL     1       3.470  -4.030   2.039  1.00  0.00    -0.463 OA
ATOM     18  C   UNL     1       2.530  -3.149   0.249  1.00  0.00     0.052 A 
ATOM     19  C   UNL     1       4.023  -4.591   0.988  1.00  0.00     0.196 A 
ATOM     20  C   UNL     1       3.467  -4.071  -0.163  1.00  0.00     0.043 A 
ENDBRANCH  15  16
ENDBRANCH  14  15
ENDBRANCH  12  14
ENDBRANCH   1  12
BRANCH   1  21
ATOM     21  C   UNL     1      -0.417   0.932   1.335  1.00  0.00     0.053 C 
BRANCH  21  22
ATOM     22  C   UNL     1      -1.339   2.045   1.044  1.00  0.00     0.029 A 
ATOM     23  S   UNL     1      -0.932   3.662   0.794  1.00  0.00    -0.144 S 
ATOM     24  C   UNL     1      -2.723   1.938   1.032  1.00  0.00     0.020 A 
ATOM     25  C   UNL     1      -2.506   4.227   0.625  1.00  0.00     0.065 A 
ATOM     26  C   UNL     1      -3.372   3.153   0.785  1.00  0.00     0.012 A 
ENDBRANCH  21  22
ENDBRANCH   1  21
TORSDOF 10
