REMARK SMILES O=C(/N=C/c1ccco1)C(=C/c1cccs1)/N=C(\O)c1ccccc1
REMARK SMILES IDX 10 1 17 2 18 3 19 4 20 6 21 7 25 8 22 9 24 10 23 11 2 12
REMARK SMILES IDX 1 13 3 14 4 15 5 16 9 17 6 18 8 19 7 20 11 21 12 22 16 23
REMARK SMILES IDX 13 24 15 25 14 26
REMARK H PARENT 19 5
ROOT
ATOM      1  C   UNL     1       0.816  -0.026   0.062  1.00  0.00     0.136 C 
ENDROOT
BRANCH   1   2
ATOM      2  N   UNL     1       0.447   1.034  -0.833  1.00  0.00    -0.208 NA
BRANCH   2   3
ATOM      3  C   UNL     1      -0.765   1.436  -1.094  1.00  0.00     0.218 C 
BRANCH   3   4
ATOM      4  O   UNL     1      -1.882   0.757  -0.593  1.00  0.00    -0.493 OA
ATOM      5  H   UNL     1      -1.819  -0.123  -0.098  1.00  0.00     0.295 HD
ENDBRANCH   3   4
BRANCH   3   6
ATOM      6  C   UNL     1      -0.974   2.610  -1.975  1.00  0.00     0.037 A 
ATOM      7  C   UNL     1       0.119   3.368  -2.445  1.00  0.00     0.014 A 
ATOM      8  C   UNL     1      -2.275   2.987  -2.355  1.00  0.00     0.014 A 
ATOM      9  C   UNL     1      -0.092   4.473  -3.274  1.00  0.00     0.001 A 
ATOM     10  C   UNL     1      -2.478   4.094  -3.185  1.00  0.00     0.001 A 
ATOM     11  C   UNL     1      -1.388   4.836  -3.645  1.00  0.00     0.000 A 
ENDBRANCH   3   6
ENDBRANCH   2   3
ENDBRANCH   1   2
BRANCH   1  12
ATOM     12  C   UNL     1       0.332   0.004   1.465  1.00  0.00     0.295 C 
ATOM     13  O   UNL     1      -0.244   1.040   1.901  1.00  0.00    -0.265 OA
BRANCH  12  14
ATOM     14  N   UNL     1       0.518  -1.132   2.322  1.00  0.00    -0.212 NA
BRANCH  14  15
ATOM     15  C   UNL     1       0.143  -1.177   3.564  1.00  0.00     0.162 C 
BRANCH  15  16
ATOM     16  C   UNL     1       0.381  -2.381   4.367  1.00  0.00     0.145 A 
ATOM     17  O   UNL     1       0.028  -2.498   5.626  1.00  0.00    -0.463 OA
ATOM     18  C   UNL     1       0.996  -3.541   3.938  1.00  0.00     0.052 A 
ATOM     19  C   UNL     1       0.384  -3.688   6.051  1.00  0.00     0.196 A 
ATOM     20  C   UNL     1       0.998  -4.383   5.029  1.00  0.00     0.043 A 
ENDBRANCH  15  16
ENDBRANCH  14  15
ENDBRANCH  12  14
ENDBRANCH   1  12
BRANCH   1  21
ATOM     21  C   UNL     1       1.715  -0.953  -0.321  1.00  0.00     0.053 C 
BRANCH  21  22
ATOM     22  C   UNL     1       2.320  -1.058  -1.668  1.00  0.00     0.029 A 
ATOM     23  S   UNL     1       1.852  -0.273  -3.088  1.00  0.00    -0.144 S 
ATOM     24  C   UNL     1       3.385  -1.897  -1.977  1.00  0.00     0.020 A 
ATOM     25  C   UNL     1       3.007  -0.974  -4.088  1.00  0.00     0.065 A 
ATOM     26  C   UNL     1       3.771  -1.843  -3.321  1.00  0.00     0.012 A 
ENDBRANCH  21  22
ENDBRANCH   1  21
TORSDOF 10
