REMARK SMILES O=C(/N=C\c1ccco1)/C(=C/c1cccs1)NC(=O)c1ccccc1
REMARK SMILES IDX 2 1 1 2 3 3 4 4 5 5 9 6 6 7 8 8 7 9 10 10 11 11 12 12 16 13
REMARK SMILES IDX 13 14 15 15 14 16 17 17 18 18 19 20 20 21 21 22 25 23 22 24
REMARK SMILES IDX 24 25 23 26
REMARK H PARENT 17 19
ROOT
ATOM      1  C   UNL     1      -0.097  -1.550  -2.412  1.00  0.00     0.293 C 
ATOM      2  O   UNL     1      -0.399  -2.093  -3.509  1.00  0.00    -0.265 OA
ENDROOT
BRANCH   1   3
ATOM      3  N   UNL     1       0.754  -2.269  -1.506  1.00  0.00    -0.212 NA
BRANCH   3   4
ATOM      4  C   UNL     1       1.732  -1.795  -0.787  1.00  0.00     0.162 C 
BRANCH   4   5
ATOM      5  C   UNL     1       2.266  -0.425  -0.909  1.00  0.00     0.145 A 
ATOM      6  O   UNL     1       2.086   0.371  -1.938  1.00  0.00    -0.463 OA
ATOM      7  C   UNL     1       3.059   0.197   0.032  1.00  0.00     0.052 A 
ATOM      8  C   UNL     1       2.713   1.502  -1.710  1.00  0.00     0.196 A 
ATOM      9  C   UNL     1       3.341   1.444  -0.482  1.00  0.00     0.043 A 
ENDBRANCH   4   5
ENDBRANCH   3   4
ENDBRANCH   1   3
BRANCH   1  10
ATOM     10  C   UNL     1      -0.695  -0.235  -2.049  1.00  0.00     0.111 C 
BRANCH  10  11
ATOM     11  C   UNL     1      -1.074   0.607  -3.032  1.00  0.00     0.051 C 
BRANCH  11  12
ATOM     12  C   UNL     1      -1.621   1.954  -2.810  1.00  0.00     0.029 A 
ATOM     13  S   UNL     1      -3.005   2.547  -3.553  1.00  0.00    -0.144 S 
ATOM     14  C   UNL     1      -1.001   3.001  -2.135  1.00  0.00     0.020 A 
ATOM     15  C   UNL     1      -2.869   4.120  -2.974  1.00  0.00     0.065 A 
ATOM     16  C   UNL     1      -1.710   4.205  -2.215  1.00  0.00     0.012 A 
ENDBRANCH  11  12
ENDBRANCH  10  11
BRANCH  10  17
ATOM     17  N   UNL     1      -0.865   0.116  -0.661  1.00  0.00    -0.317 N 
ATOM     18  C   UNL     1      -1.257  -0.841   0.337  1.00  0.00     0.255 C 
ATOM     19  H   UNL     1      -0.785   1.110  -0.364  1.00  0.00     0.170 HD
ATOM     20  O   UNL     1      -1.871  -1.887  -0.012  1.00  0.00    -0.269 OA
BRANCH  18  21
ATOM     21  C   UNL     1      -0.972  -0.605   1.774  1.00  0.00     0.040 A 
ATOM     22  C   UNL     1       0.005   0.326   2.176  1.00  0.00     0.014 A 
ATOM     23  C   UNL     1      -1.659  -1.337   2.761  1.00  0.00     0.014 A 
ATOM     24  C   UNL     1       0.277   0.526   3.533  1.00  0.00     0.001 A 
ATOM     25  C   UNL     1      -1.384  -1.131   4.116  1.00  0.00     0.001 A 
ATOM     26  C   UNL     1      -0.419  -0.200   4.502  1.00  0.00     0.000 A 
ENDBRANCH  18  21
ENDBRANCH  10  17
ENDBRANCH   1  10
TORSDOF 8
