REMARK SMILES C[C@H](CC/[NH+]=C(\S)c1ccc2[nH]ccc2c1)Cc1ccccc1
REMARK SMILES IDX 4 1 5 2 6 4 7 5 8 7 9 8 16 9 10 10 15 11 11 12 14 13 12 14
REMARK SMILES IDX 13 15 3 17 2 18 1 19 17 20 18 21 19 22 23 23 20 24 22 25
REMARK SMILES IDX 21 26
REMARK H PARENT 5 3 7 6 12 16
ROOT
ATOM      1  C   UNL     1      -0.554  -0.024  -2.466  1.00  0.00     0.349 C 
ENDROOT
BRANCH   1   2
ATOM      2  N   UNL     1       0.732   0.364  -1.877  1.00  0.00    -0.236 N 
ATOM      3  H   UNL     1       1.510  -0.333  -1.896  1.00  0.00     0.446 HD
BRANCH   2   4
ATOM      4  C   UNL     1       0.946   1.543  -1.353  1.00  0.00     0.237 C 
BRANCH   4   5
ATOM      5  S   UNL     1      -0.347   2.804  -1.344  1.00  0.00    -0.074 SA
ATOM      6  H   UNL     1       0.041   3.292  -2.606  1.00  0.00     0.114 HD
ENDBRANCH   4   5
BRANCH   4   7
ATOM      7  C   UNL     1       2.258   1.870  -0.741  1.00  0.00     0.053 A 
ATOM      8  C   UNL     1       2.809   3.172  -0.884  1.00  0.00     0.018 A 
ATOM      9  C   UNL     1       2.963   0.896   0.007  1.00  0.00     0.026 A 
ATOM     10  C   UNL     1       4.047   3.499  -0.302  1.00  0.00     0.027 A 
ATOM     11  C   UNL     1       4.185   1.256   0.569  1.00  0.00     0.000 A 
ATOM     12  C   UNL     1       4.710   2.510   0.420  1.00  0.00     0.045 A 
ATOM     13  C   UNL     1       5.069   0.528   1.335  1.00  0.00     0.028 A 
ATOM     14  N   UNL     1       5.889   2.614   1.055  1.00  0.00    -0.361 N 
ATOM     15  C   UNL     1       6.113   1.403   1.616  1.00  0.00     0.083 A 
ATOM     16  H   UNL     1       6.507   3.454   1.109  1.00  0.00     0.166 HD
ENDBRANCH   4   7
ENDBRANCH   2   4
ENDBRANCH   1   2
BRANCH   1  17
ATOM     17  C   UNL     1      -0.517  -1.480  -2.960  1.00  0.00     0.076 C 
BRANCH  17  18
ATOM     18  C   UNL     1      -1.885  -1.951  -3.526  1.00  0.00    -0.004 C 
ATOM     19  C   UNL     1      -1.668  -2.864  -4.743  1.00  0.00     0.008 C 
BRANCH  18  20
ATOM     20  C   UNL     1      -2.733  -2.704  -2.471  1.00  0.00     0.039 C 
BRANCH  20  21
ATOM     21  C   UNL     1      -3.137  -1.825  -1.316  1.00  0.00    -0.048 A 
ATOM     22  C   UNL     1      -2.476  -1.925  -0.079  1.00  0.00     0.004 A 
ATOM     23  C   UNL     1      -4.151  -0.866  -1.479  1.00  0.00     0.004 A 
ATOM     24  C   UNL     1      -2.825  -1.077   0.976  1.00  0.00     0.000 A 
ATOM     25  C   UNL     1      -4.497  -0.021  -0.420  1.00  0.00     0.000 A 
ATOM     26  C   UNL     1      -3.835  -0.125   0.806  1.00  0.00     0.000 A 
ENDBRANCH  20  21
ENDBRANCH  18  20
ENDBRANCH  17  18
ENDBRANCH   1  17
TORSDOF 8
