REMARK SMILES C[C@H](CC[NH2+]C(=S)c1ccc2[nH]ccc2c1)Cc1ccccc1
REMARK SMILES IDX 4 1 3 2 2 3 1 4 17 5 18 6 19 7 23 8 20 9 22 10 21 11 5 12
REMARK SMILES IDX 6 15 7 16 8 17 9 18 16 19 10 20 15 21 11 22 14 23 12 24
REMARK SMILES IDX 13 25
REMARK H PARENT 5 13 5 14 12 26
ROOT
ATOM      1  C   UNL     1       0.683   0.436   0.947  1.00  0.00     0.267 C 
ENDROOT
BRANCH   1   2
ATOM      2  C   UNL     1      -0.578   0.222   1.817  1.00  0.00     0.065 C 
BRANCH   2   3
ATOM      3  C   UNL     1      -1.925   0.489   1.088  1.00  0.00    -0.004 C 
ATOM      4  C   UNL     1      -3.032  -0.381   1.708  1.00  0.00     0.008 C 
BRANCH   3   5
ATOM      5  C   UNL     1      -2.368   1.973   1.169  1.00  0.00     0.039 C 
BRANCH   5   6
ATOM      6  C   UNL     1      -1.495   2.903   0.367  1.00  0.00    -0.048 A 
ATOM      7  C   UNL     1      -1.555   2.893  -1.037  1.00  0.00     0.004 A 
ATOM      8  C   UNL     1      -0.604   3.779   1.012  1.00  0.00     0.004 A 
ATOM      9  C   UNL     1      -0.734   3.744  -1.783  1.00  0.00     0.000 A 
ATOM     10  C   UNL     1       0.216   4.627   0.262  1.00  0.00     0.000 A 
ATOM     11  C   UNL     1       0.151   4.610  -1.134  1.00  0.00     0.000 A 
ENDBRANCH   5   6
ENDBRANCH   3   5
ENDBRANCH   2   3
ENDBRANCH   1   2
BRANCH   1  12
ATOM     12  N   UNL     1       0.953  -0.664   0.001  1.00  0.00    -0.304 N 
ATOM     13  H   UNL     1       1.781  -0.395  -0.580  1.00  0.00     0.353 HD
ATOM     14  H   UNL     1       0.156  -0.762  -0.665  1.00  0.00     0.353 HD
BRANCH  12  15
ATOM     15  C   UNL     1       1.273  -1.915   0.657  1.00  0.00     0.202 C 
ATOM     16  S   UNL     1       2.610  -1.990   1.622  1.00  0.00    -0.017 S 
BRANCH  15  17
ATOM     17  C   UNL     1       0.538  -3.171   0.320  1.00  0.00     0.048 A 
ATOM     18  C   UNL     1       1.202  -4.433   0.339  1.00  0.00     0.017 A 
ATOM     19  C   UNL     1      -0.835  -3.129  -0.029  1.00  0.00     0.025 A 
ATOM     20  C   UNL     1       0.517  -5.621   0.019  1.00  0.00     0.027 A 
ATOM     21  C   UNL     1      -1.480  -4.324  -0.337  1.00  0.00     0.000 A 
ATOM     22  C   UNL     1      -0.829  -5.526  -0.315  1.00  0.00     0.045 A 
ATOM     23  C   UNL     1      -2.782  -4.567  -0.715  1.00  0.00     0.028 A 
ATOM     24  N   UNL     1      -1.656  -6.524  -0.666  1.00  0.00    -0.361 N 
ATOM     25  C   UNL     1      -2.853  -5.943  -0.912  1.00  0.00     0.083 A 
ATOM     26  H   UNL     1      -1.423  -7.540  -0.749  1.00  0.00     0.166 HD
ENDBRANCH  15  17
ENDBRANCH  12  15
ENDBRANCH   1  12
TORSDOF 7
