REMARK SMILES C[C@@H](CCNC(=S)c1ccc2[nH]ccc2c1)Cc1ccccc1
REMARK SMILES IDX 3 1 2 2 1 3 17 4 18 5 19 6 23 7 20 8 22 9 21 10 4 11 5 12
REMARK SMILES IDX 6 13 7 15 8 16 9 17 16 18 10 19 15 20 11 21 14 22 12 23
REMARK SMILES IDX 13 24
REMARK H PARENT 5 14 12 25
ROOT
ATOM      1  C   UNL     1      -0.313   3.733   2.175  1.00  0.00     0.025 C 
ENDROOT
BRANCH   1   2
ATOM      2  C   UNL     1       0.615   2.878   3.083  1.00  0.00    -0.008 C 
ATOM      3  C   UNL     1       2.054   3.415   3.136  1.00  0.00     0.008 C 
BRANCH   2   4
ATOM      4  C   UNL     1       0.616   1.366   2.748  1.00  0.00     0.039 C 
BRANCH   4   5
ATOM      5  C   UNL     1      -0.732   0.709   2.953  1.00  0.00    -0.048 A 
ATOM      6  C   UNL     1      -1.379   0.057   1.888  1.00  0.00     0.004 A 
ATOM      7  C   UNL     1      -1.327   0.688   4.228  1.00  0.00     0.004 A 
ATOM      8  C   UNL     1      -2.618  -0.561   2.086  1.00  0.00     0.000 A 
ATOM      9  C   UNL     1      -2.566   0.068   4.420  1.00  0.00     0.000 A 
ATOM     10  C   UNL     1      -3.214  -0.550   3.349  1.00  0.00     0.000 A 
ENDBRANCH   4   5
ENDBRANCH   2   4
ENDBRANCH   1   2
BRANCH   1  11
ATOM     11  C   UNL     1       0.219   4.071   0.766  1.00  0.00     0.114 C 
BRANCH  11  12
ATOM     12  N   UNL     1       0.116   2.937  -0.154  1.00  0.00    -0.376 N 
ATOM     13  C   UNL     1       0.691   2.943  -1.473  1.00  0.00     0.106 C 
ATOM     14  H   UNL     1      -0.495   2.135   0.108  1.00  0.00     0.161 HD
ATOM     15  S   UNL     1       1.375   4.312  -2.082  1.00  0.00    -0.060 S 
BRANCH  13  16
ATOM     16  C   UNL     1       0.668   1.707  -2.291  1.00  0.00     0.010 A 
ATOM     17  C   UNL     1       0.481   1.766  -3.699  1.00  0.00     0.013 A 
ATOM     18  C   UNL     1       0.828   0.448  -1.666  1.00  0.00     0.021 A 
ATOM     19  C   UNL     1       0.447   0.591  -4.472  1.00  0.00     0.027 A 
ATOM     20  C   UNL     1       0.787  -0.693  -2.461  1.00  0.00     0.000 A 
ATOM     21  C   UNL     1       0.602  -0.626  -3.815  1.00  0.00     0.045 A 
ATOM     22  C   UNL     1       0.911  -2.024  -2.127  1.00  0.00     0.028 A 
ATOM     23  N   UNL     1       0.602  -1.854  -4.358  1.00  0.00    -0.361 N 
ATOM     24  C   UNL     1       0.790  -2.712  -3.330  1.00  0.00     0.083 A 
ATOM     25  H   UNL     1       0.482  -2.099  -5.366  1.00  0.00     0.166 HD
ENDBRANCH  13  16
ENDBRANCH  11  12
ENDBRANCH   1  11
TORSDOF 6
