REMARK SMILES C[C@H](CCNC(=S)c1ccc2[nH]ccc2c1)Cc1ccccc1
REMARK SMILES IDX 3 1 2 2 1 3 17 4 18 5 19 6 23 7 20 8 22 9 21 10 4 11 5 12
REMARK SMILES IDX 6 13 7 15 8 16 9 17 16 18 10 19 15 20 11 21 14 22 12 23
REMARK SMILES IDX 13 24
REMARK H PARENT 5 14 12 25
ROOT
ATOM      1  C   UNL     1       2.028  -1.393   0.145  1.00  0.00     0.025 C 
ENDROOT
BRANCH   1   2
ATOM      2  C   UNL     1       1.301  -2.692   0.577  1.00  0.00    -0.008 C 
ATOM      3  C   UNL     1       2.311  -3.808   0.887  1.00  0.00     0.008 C 
BRANCH   2   4
ATOM      4  C   UNL     1       0.405  -2.440   1.812  1.00  0.00     0.039 C 
BRANCH   4   5
ATOM      5  C   UNL     1      -0.842  -1.663   1.458  1.00  0.00    -0.048 A 
ATOM      6  C   UNL     1      -1.870  -2.286   0.728  1.00  0.00     0.004 A 
ATOM      7  C   UNL     1      -0.990  -0.318   1.841  1.00  0.00     0.004 A 
ATOM      8  C   UNL     1      -3.023  -1.574   0.382  1.00  0.00     0.000 A 
ATOM      9  C   UNL     1      -2.150   0.388   1.501  1.00  0.00     0.000 A 
ATOM     10  C   UNL     1      -3.164  -0.239   0.769  1.00  0.00     0.000 A 
ENDBRANCH   4   5
ENDBRANCH   2   4
ENDBRANCH   1   2
BRANCH   1  11
ATOM     11  C   UNL     1       2.567  -1.444  -1.295  1.00  0.00     0.114 C 
BRANCH  11  12
ATOM     12  N   UNL     1       1.481  -1.580  -2.270  1.00  0.00    -0.376 N 
ATOM     13  C   UNL     1       0.451  -0.592  -2.455  1.00  0.00     0.106 C 
ATOM     14  H   UNL     1       1.386  -2.500  -2.763  1.00  0.00     0.161 HD
ATOM     15  S   UNL     1      -1.026  -1.074  -2.987  1.00  0.00    -0.060 S 
BRANCH  13  16
ATOM     16  C   UNL     1       0.700   0.844  -2.196  1.00  0.00     0.010 A 
ATOM     17  C   UNL     1       1.873   1.464  -2.702  1.00  0.00     0.013 A 
ATOM     18  C   UNL     1      -0.211   1.599  -1.418  1.00  0.00     0.021 A 
ATOM     19  C   UNL     1       2.167   2.803  -2.393  1.00  0.00     0.027 A 
ATOM     20  C   UNL     1       0.112   2.925  -1.128  1.00  0.00     0.000 A 
ATOM     21  C   UNL     1       1.261   3.507  -1.593  1.00  0.00     0.045 A 
ATOM     22  C   UNL     1      -0.519   3.848  -0.319  1.00  0.00     0.028 A 
ATOM     23  N   UNL     1       1.389   4.757  -1.118  1.00  0.00    -0.361 N 
ATOM     24  C   UNL     1       0.305   4.969  -0.336  1.00  0.00     0.083 A 
ATOM     25  H   UNL     1       2.179   5.419  -1.285  1.00  0.00     0.166 HD
ENDBRANCH  13  16
ENDBRANCH  11  12
ENDBRANCH   1  11
TORSDOF 6
