REMARK SMILES OC(=C/c1ccc(-c2ccc(C(F)(F)F)nc2)cc1)/N=c1\nc(-c2cccs2)cc[nH]1
REMARK SMILES IDX 3 1 2 2 1 3 20 5 21 6 22 7 31 8 23 9 30 10 29 11 24 13 28 14
REMARK SMILES IDX 25 15 27 16 26 17 4 18 5 19 19 20 6 21 18 22 7 23 8 24 17 25
REMARK SMILES IDX 9 26 16 27 10 28 11 29 12 30 13 31 14 32 15 33
REMARK H PARENT 1 4 31 12
ROOT
ATOM      1  C   UNL     1       1.634   3.897   0.307  1.00  0.00     0.076 C 
ENDROOT
BRANCH   1   2
ATOM      2  C   UNL     1       2.275   4.032   1.482  1.00  0.00     0.214 C 
BRANCH   2   3
ATOM      3  O   UNL     1       3.079   5.152   1.666  1.00  0.00    -0.493 OA
ATOM      4  H   UNL     1       3.576   5.297   2.537  1.00  0.00     0.295 HD
ENDBRANCH   2   3
BRANCH   2   5
ATOM      5  N   UNL     1       2.154   3.091   2.567  1.00  0.00    -0.177 NA
BRANCH   5   6
ATOM      6  C   UNL     1       2.310   1.800   2.492  1.00  0.00     0.230 A 
ATOM      7  N   UNL     1       2.676   1.205   1.323  1.00  0.00    -0.212 NA
ATOM      8  N   UNL     1       2.093   1.033   3.596  1.00  0.00    -0.331 N 
ATOM      9  C   UNL     1       2.791  -0.145   1.213  1.00  0.00     0.086 A 
ATOM     10  C   UNL     1       2.207  -0.320   3.537  1.00  0.00     0.088 A 
ATOM     11  C   UNL     1       2.552  -0.942   2.338  1.00  0.00     0.048 A 
ATOM     12  H   UNL     1       1.819   1.480   4.500  1.00  0.00     0.169 HD
BRANCH   9  13
ATOM     13  C   UNL     1       3.128  -0.737  -0.096  1.00  0.00     0.053 A 
ATOM     14  S   UNL     1       3.135  -2.378  -0.477  1.00  0.00    -0.142 S 
ATOM     15  C   UNL     1       3.458  -0.025  -1.245  1.00  0.00     0.022 A 
ATOM     16  C   UNL     1       3.557  -2.198  -2.094  1.00  0.00     0.065 A 
ATOM     17  C   UNL     1       3.696  -0.842  -2.357  1.00  0.00     0.012 A 
ENDBRANCH   9  13
ENDBRANCH   5   6
ENDBRANCH   2   5
ENDBRANCH   1   2
BRANCH   1  18
ATOM     18  C   UNL     1       0.661   2.831  -0.021  1.00  0.00    -0.020 A 
ATOM     19  C   UNL     1       0.723   2.220  -1.280  1.00  0.00     0.009 A 
ATOM     20  C   UNL     1      -0.322   2.418   0.894  1.00  0.00     0.009 A 
ATOM     21  C   UNL     1      -0.128   1.157  -1.594  1.00  0.00     0.009 A 
ATOM     22  C   UNL     1      -1.174   1.356   0.581  1.00  0.00     0.009 A 
ATOM     23  C   UNL     1      -1.076   0.703  -0.660  1.00  0.00    -0.017 A 
BRANCH  23  24
ATOM     24  C   UNL     1      -1.953  -0.453  -0.976  1.00  0.00     0.000 A 
ATOM     25  C   UNL     1      -2.506  -0.611  -2.259  1.00  0.00     0.120 A 
ATOM     26  C   UNL     1      -2.244  -1.422  -0.002  1.00  0.00     0.012 A 
ATOM     27  N   UNL     1      -3.300  -1.678  -2.537  1.00  0.00    -0.251 NA
ATOM     28  C   UNL     1      -3.061  -2.510  -0.314  1.00  0.00     0.034 A 
ATOM     29  C   UNL     1      -3.588  -2.628  -1.606  1.00  0.00     0.144 A 
BRANCH  29  30
ATOM     30  C   UNL     1      -4.474  -3.786  -1.961  1.00  0.00     0.433 C 
ATOM     31  F   UNL     1      -4.823  -3.740  -3.300  1.00  0.00    -0.165 F 
ATOM     32  F   UNL     1      -5.626  -3.739  -1.197  1.00  0.00    -0.165 F 
ATOM     33  F   UNL     1      -3.812  -4.974  -1.713  1.00  0.00    -0.165 F 
ENDBRANCH  29  30
ENDBRANCH  23  24
ENDBRANCH   1  18
TORSDOF 8
