REMARK SMILES C[C@H](NC(=O)c1ccc2ccccc2n1)c1ccc2[nH]ccc2c1
REMARK SMILES IDX 1 1 2 2 3 3 4 4 5 6 6 7 7 8 15 9 8 10 14 11 9 12 13 13 10 14
REMARK SMILES IDX 12 15 11 16 16 17 17 18 24 19 18 20 23 21 19 22 22 23 20 24
REMARK SMILES IDX 21 25
REMARK H PARENT 3 5 20 26
ROOT
ATOM      1  C   UNL     1       1.729  -1.684   2.709  1.00  0.00     0.036 C 
ATOM      2  C   UNL     1       0.887  -0.409   2.588  1.00  0.00     0.109 C 
ENDROOT
BRANCH   2   3
ATOM      3  N   UNL     1      -0.122  -0.561   1.533  1.00  0.00    -0.344 N 
ATOM      4  C   UNL     1      -1.313  -1.345   1.719  1.00  0.00     0.270 C 
ATOM      5  H   UNL     1       0.028  -0.088   0.613  1.00  0.00     0.164 HD
ATOM      6  O   UNL     1      -1.539  -1.884   2.837  1.00  0.00    -0.267 OA
BRANCH   4   7
ATOM      7  C   UNL     1      -2.278  -1.521   0.611  1.00  0.00     0.128 A 
ATOM      8  C   UNL     1      -3.451  -2.276   0.786  1.00  0.00     0.035 A 
ATOM      9  N   UNL     1      -2.029  -0.946  -0.599  1.00  0.00    -0.243 NA
ATOM     10  C   UNL     1      -4.344  -2.426  -0.278  1.00  0.00     0.013 A 
ATOM     11  C   UNL     1      -2.879  -1.075  -1.652  1.00  0.00     0.071 A 
ATOM     12  C   UNL     1      -4.066  -1.826  -1.511  1.00  0.00     0.000 A 
ATOM     13  C   UNL     1      -2.580  -0.465  -2.876  1.00  0.00     0.029 A 
ATOM     14  C   UNL     1      -4.941  -1.957  -2.600  1.00  0.00     0.010 A 
ATOM     15  C   UNL     1      -3.457  -0.601  -3.957  1.00  0.00     0.002 A 
ATOM     16  C   UNL     1      -4.634  -1.344  -3.819  1.00  0.00     0.001 A 
ENDBRANCH   4   7
ENDBRANCH   2   3
BRANCH   2  17
ATOM     17  C   UNL     1       1.769   0.796   2.317  1.00  0.00    -0.025 A 
ATOM     18  C   UNL     1       1.818   1.864   3.253  1.00  0.00     0.008 A 
ATOM     19  C   UNL     1       2.550   0.869   1.138  1.00  0.00     0.016 A 
ATOM     20  C   UNL     1       2.631   2.989   3.021  1.00  0.00     0.027 A 
ATOM     21  C   UNL     1       3.341   1.997   0.942  1.00  0.00    -0.000 A 
ATOM     22  C   UNL     1       3.381   3.020   1.849  1.00  0.00     0.045 A 
ATOM     23  C   UNL     1       4.185   2.332  -0.094  1.00  0.00     0.028 A 
ATOM     24  N   UNL     1       4.213   3.991   1.438  1.00  0.00    -0.361 N 
ATOM     25  C   UNL     1       4.707   3.575   0.249  1.00  0.00     0.083 A 
ATOM     26  H   UNL     1       4.435   4.885   1.930  1.00  0.00     0.166 HD
ENDBRANCH   2  17
TORSDOF 3
