REMARK SMILES C[C@@H](NC(=O)c1ccc2ccccc2n1)c1ccc2[nH]ccc2c1
REMARK SMILES IDX 1 1 2 2 3 3 4 4 5 6 6 7 7 8 15 9 8 10 14 11 9 12 13 13 10 14
REMARK SMILES IDX 12 15 11 16 16 17 17 18 24 19 18 20 23 21 19 22 22 23 20 24
REMARK SMILES IDX 21 25
REMARK H PARENT 3 5 20 26
ROOT
ATOM      1  C   UNL     1      -2.145  -3.497  -0.650  1.00  0.00     0.036 C 
ATOM      2  C   UNL     1      -1.970  -1.998  -0.383  1.00  0.00     0.109 C 
ENDROOT
BRANCH   2   3
ATOM      3  N   UNL     1      -0.838  -1.768   0.522  1.00  0.00    -0.344 N 
ATOM      4  C   UNL     1      -0.922  -2.024   1.934  1.00  0.00     0.270 C 
ATOM      5  H   UNL     1       0.061  -1.406   0.131  1.00  0.00     0.164 HD
ATOM      6  O   UNL     1      -2.012  -2.412   2.437  1.00  0.00    -0.267 OA
BRANCH   4   7
ATOM      7  C   UNL     1       0.260  -1.832   2.805  1.00  0.00     0.128 A 
ATOM      8  C   UNL     1       0.186  -2.071   4.188  1.00  0.00     0.035 A 
ATOM      9  N   UNL     1       1.439  -1.420   2.261  1.00  0.00    -0.243 NA
ATOM     10  C   UNL     1       1.317  -1.884   4.986  1.00  0.00     0.013 A 
ATOM     11  C   UNL     1       2.556  -1.229   3.012  1.00  0.00     0.071 A 
ATOM     12  C   UNL     1       2.517  -1.459   4.404  1.00  0.00     0.000 A 
ATOM     13  C   UNL     1       3.745  -0.804   2.408  1.00  0.00     0.029 A 
ATOM     14  C   UNL     1       3.672  -1.261   5.176  1.00  0.00     0.010 A 
ATOM     15  C   UNL     1       4.892  -0.609   3.184  1.00  0.00     0.002 A 
ATOM     16  C   UNL     1       4.856  -0.836   4.563  1.00  0.00     0.001 A 
ENDBRANCH   4   7
ENDBRANCH   2   3
BRANCH   2  17
ATOM     17  C   UNL     1      -1.782  -1.237  -1.682  1.00  0.00    -0.025 A 
ATOM     18  C   UNL     1      -0.664  -1.498  -2.522  1.00  0.00     0.008 A 
ATOM     19  C   UNL     1      -2.727  -0.258  -2.069  1.00  0.00     0.016 A 
ATOM     20  C   UNL     1      -0.489  -0.795  -3.727  1.00  0.00     0.027 A 
ATOM     21  C   UNL     1      -2.521   0.418  -3.269  1.00  0.00    -0.000 A 
ATOM     22  C   UNL     1      -1.442   0.160  -4.070  1.00  0.00     0.045 A 
ATOM     23  C   UNL     1      -3.264   1.402  -3.883  1.00  0.00     0.028 A 
ATOM     24  N   UNL     1      -1.464   0.936  -5.166  1.00  0.00    -0.361 N 
ATOM     25  C   UNL     1      -2.577   1.697  -5.056  1.00  0.00     0.083 A 
ATOM     26  H   UNL     1      -0.768   0.951  -5.944  1.00  0.00     0.166 HD
ENDBRANCH   2  17
TORSDOF 3
