REMARK SMILES C[C@H]([N-]C(=O)c1ccc2ccccc2n1)c1ccc2[nH]ccc2c1
REMARK SMILES IDX 1 1 2 2 3 3 4 4 5 5 6 6 7 7 15 8 8 9 14 10 9 11 13 12 10 13
REMARK SMILES IDX 12 14 11 15 16 16 17 17 24 18 18 19 23 20 19 21 22 22 20 23
REMARK SMILES IDX 21 24
REMARK H PARENT 20 25
ROOT
ATOM      1  C   UNL     1       3.443  -1.746  -1.918  1.00  0.00    -0.008 C 
ATOM      2  C   UNL     1       2.158  -1.158  -2.515  1.00  0.00    -0.079 C 
ENDROOT
BRANCH   2   3
ATOM      3  N   UNL     1       2.396   0.222  -2.951  1.00  0.00    -0.642 NA
BRANCH   3   4
ATOM      4  C   UNL     1       2.708   1.343  -2.112  1.00  0.00     0.101 C 
ATOM      5  O   UNL     1       3.389   2.290  -2.585  1.00  0.00    -0.313 OA
BRANCH   4   6
ATOM      6  C   UNL     1       2.223   1.437  -0.731  1.00  0.00     0.088 A 
ATOM      7  C   UNL     1       3.119   1.394   0.345  1.00  0.00     0.031 A 
ATOM      8  N   UNL     1       0.891   1.592  -0.501  1.00  0.00    -0.246 NA
ATOM      9  C   UNL     1       2.628   1.469   1.650  1.00  0.00     0.012 A 
ATOM     10  C   UNL     1       0.386   1.678   0.758  1.00  0.00     0.071 A 
ATOM     11  C   UNL     1       1.252   1.605   1.871  1.00  0.00     0.000 A 
ATOM     12  C   UNL     1      -0.993   1.820   0.953  1.00  0.00     0.029 A 
ATOM     13  C   UNL     1       0.723   1.667   3.169  1.00  0.00     0.010 A 
ATOM     14  C   UNL     1      -1.513   1.875   2.250  1.00  0.00     0.002 A 
ATOM     15  C   UNL     1      -0.658   1.799   3.354  1.00  0.00     0.001 A 
ENDBRANCH   4   6
ENDBRANCH   3   4
ENDBRANCH   2   3
BRANCH   2  16
ATOM     16  C   UNL     1       0.925  -1.263  -1.630  1.00  0.00    -0.062 A 
ATOM     17  C   UNL     1       0.989  -1.653  -0.259  1.00  0.00     0.004 A 
ATOM     18  C   UNL     1      -0.332  -0.942  -2.195  1.00  0.00     0.012 A 
ATOM     19  C   UNL     1      -0.174  -1.716   0.529  1.00  0.00     0.027 A 
ATOM     20  C   UNL     1      -1.460  -1.011  -1.382  1.00  0.00    -0.000 A 
ATOM     21  C   UNL     1      -1.385  -1.385  -0.069  1.00  0.00     0.045 A 
ATOM     22  C   UNL     1      -2.780  -0.726  -1.655  1.00  0.00     0.028 A 
ATOM     23  N   UNL     1      -2.597  -1.350   0.508  1.00  0.00    -0.361 N 
ATOM     24  C   UNL     1      -3.454  -0.947  -0.458  1.00  0.00     0.083 A 
ATOM     25  H   UNL     1      -2.832  -1.574   1.500  1.00  0.00     0.166 HD
ENDBRANCH   2  16
TORSDOF 4
