REMARK SMILES C[C@@H](/N=C(\O)c1ccc2ccccc2n1)c1ccc2[nH]ccc2c1
REMARK SMILES IDX 3 1 4 2 5 3 6 5 15 6 7 7 14 8 8 9 13 10 9 11 12 12 10 13
REMARK SMILES IDX 11 14 2 15 1 16 16 17 17 18 24 19 18 20 23 21 19 22 22 23
REMARK SMILES IDX 20 24 21 25
REMARK H PARENT 5 4 20 26
ROOT
ATOM      1  N   UNL     1      -1.145   0.548   1.027  1.00  0.00    -0.242 NA
ENDROOT
BRANCH   1   2
ATOM      2  C   UNL     1       0.102   0.624   0.653  1.00  0.00     0.233 C 
BRANCH   2   3
ATOM      3  O   UNL     1       0.531   1.564  -0.289  1.00  0.00    -0.492 OA
ATOM      4  H   UNL     1      -0.083   2.241  -0.721  1.00  0.00     0.295 HD
ENDBRANCH   2   3
BRANCH   2   5
ATOM      5  C   UNL     1       1.100  -0.299   1.227  1.00  0.00     0.125 A 
ATOM      6  N   UNL     1       2.398  -0.197   0.829  1.00  0.00    -0.243 NA
ATOM      7  C   UNL     1       0.742  -1.279   2.171  1.00  0.00     0.035 A 
ATOM      8  C   UNL     1       3.371  -1.015   1.314  1.00  0.00     0.071 A 
ATOM      9  C   UNL     1       1.720  -2.133   2.686  1.00  0.00     0.013 A 
ATOM     10  C   UNL     1       4.693  -0.873   0.874  1.00  0.00     0.029 A 
ATOM     11  C   UNL     1       3.047  -2.010   2.262  1.00  0.00     0.000 A 
ATOM     12  C   UNL     1       5.690  -1.716   1.375  1.00  0.00     0.002 A 
ATOM     13  C   UNL     1       4.054  -2.852   2.759  1.00  0.00     0.010 A 
ATOM     14  C   UNL     1       5.372  -2.702   2.314  1.00  0.00     0.001 A 
ENDBRANCH   2   5
ENDBRANCH   1   2
BRANCH   1  15
ATOM     15  C   UNL     1      -2.247   1.378   0.538  1.00  0.00     0.136 C 
ATOM     16  C   UNL     1      -3.471   1.160   1.425  1.00  0.00     0.038 C 
BRANCH  15  17
ATOM     17  C   UNL     1      -2.582   1.037  -0.899  1.00  0.00    -0.023 A 
ATOM     18  C   UNL     1      -2.694  -0.318  -1.315  1.00  0.00     0.008 A 
ATOM     19  C   UNL     1      -2.830   2.073  -1.828  1.00  0.00     0.016 A 
ATOM     20  C   UNL     1      -3.026  -0.638  -2.644  1.00  0.00     0.027 A 
ATOM     21  C   UNL     1      -3.155   1.719  -3.135  1.00  0.00    -0.000 A 
ATOM     22  C   UNL     1      -3.249   0.413  -3.530  1.00  0.00     0.045 A 
ATOM     23  C   UNL     1      -3.437   2.503  -4.232  1.00  0.00     0.028 A 
ATOM     24  N   UNL     1      -3.577   0.329  -4.829  1.00  0.00    -0.361 N 
ATOM     25  C   UNL     1      -3.693   1.605  -5.264  1.00  0.00     0.083 A 
ATOM     26  H   UNL     1      -3.717  -0.540  -5.392  1.00  0.00     0.166 HD
ENDBRANCH  15  17
ENDBRANCH   1  15
TORSDOF 5
