REMARK SMILES O=C(Cc1ccc(-c2ccc(C(F)(F)F)nc2)cc1)/N=c1\nccc(-c2cccs2)[nH]1
REMARK SMILES IDX 3 1 2 2 1 3 20 4 21 5 23 6 22 7 24 8 25 9 31 10 26 12 30 13
REMARK SMILES IDX 27 14 29 15 28 16 4 17 5 18 19 19 6 20 18 21 7 22 8 23 17 24
REMARK SMILES IDX 9 25 16 26 10 27 11 28 12 29 13 30 14 31 15 32
REMARK H PARENT 31 11
ROOT
ATOM      1  C   UNL     1       0.504   3.462   2.044  1.00  0.00     0.138 C 
ENDROOT
BRANCH   1   2
ATOM      2  C   UNL     1       1.670   2.524   2.103  1.00  0.00     0.253 C 
ATOM      3  O   UNL     1       2.302   2.385   3.185  1.00  0.00    -0.272 OA
BRANCH   2   4
ATOM      4  N   UNL     1       2.053   1.806   0.918  1.00  0.00    -0.177 NA
BRANCH   4   5
ATOM      5  C   UNL     1       3.000   0.918   0.808  1.00  0.00     0.230 A 
ATOM      6  C   UNL     1       4.745  -0.360   1.769  1.00  0.00     0.117 A 
ATOM      7  N   UNL     1       3.761   0.567   1.879  1.00  0.00    -0.221 NA
ATOM      8  C   UNL     1       4.988  -0.974   0.544  1.00  0.00     0.048 A 
ATOM      9  C   UNL     1       4.200  -0.618  -0.560  1.00  0.00     0.060 A 
ATOM     10  N   UNL     1       3.225   0.327  -0.401  1.00  0.00    -0.323 N 
ATOM     11  H   UNL     1       2.639   0.622  -1.214  1.00  0.00     0.170 HD
BRANCH   9  12
ATOM     12  C   UNL     1       4.422  -1.266  -1.876  1.00  0.00     0.051 A 
ATOM     13  S   UNL     1       5.786  -2.154  -2.318  1.00  0.00    -0.142 S 
ATOM     14  C   UNL     1       3.541  -1.275  -2.958  1.00  0.00     0.022 A 
ATOM     15  C   UNL     1       5.277  -2.545  -3.870  1.00  0.00     0.065 A 
ATOM     16  C   UNL     1       4.021  -1.987  -4.065  1.00  0.00     0.012 A 
ENDBRANCH   9  12
ENDBRANCH   4   5
ENDBRANCH   2   4
ENDBRANCH   1   2
BRANCH   1  17
ATOM     17  C   UNL     1      -0.740   2.722   1.634  1.00  0.00    -0.039 A 
ATOM     18  C   UNL     1      -1.489   2.015   2.587  1.00  0.00     0.005 A 
ATOM     19  C   UNL     1      -1.123   2.675   0.285  1.00  0.00     0.005 A 
ATOM     20  C   UNL     1      -2.615   1.283   2.198  1.00  0.00     0.009 A 
ATOM     21  C   UNL     1      -2.249   1.943  -0.105  1.00  0.00     0.009 A 
ATOM     22  C   UNL     1      -3.007   1.237   0.848  1.00  0.00    -0.017 A 
BRANCH  22  23
ATOM     23  C   UNL     1      -4.193   0.444   0.432  1.00  0.00     0.000 A 
ATOM     24  C   UNL     1      -4.176  -0.308  -0.756  1.00  0.00     0.120 A 
ATOM     25  C   UNL     1      -5.357   0.420   1.219  1.00  0.00     0.012 A 
ATOM     26  N   UNL     1      -5.263  -1.036  -1.124  1.00  0.00    -0.251 NA
ATOM     27  C   UNL     1      -6.460  -0.336   0.819  1.00  0.00     0.034 A 
ATOM     28  C   UNL     1      -6.401  -1.064  -0.377  1.00  0.00     0.144 A 
BRANCH  28  29
ATOM     29  C   UNL     1      -7.565  -1.904  -0.812  1.00  0.00     0.433 C 
ATOM     30  F   UNL     1      -7.725  -2.960   0.065  1.00  0.00    -0.165 F 
ATOM     31  F   UNL     1      -8.719  -1.141  -0.821  1.00  0.00    -0.165 F 
ATOM     32  F   UNL     1      -7.353  -2.405  -2.085  1.00  0.00    -0.165 F 
ENDBRANCH  28  29
ENDBRANCH  22  23
ENDBRANCH   1  17
TORSDOF 7
