REMARK SMILES O=C(Cc1ccc(-c2ccc(C(F)(F)F)nc2)cc1)/N=c1/nccc(-c2cccs2)[nH]1
REMARK SMILES IDX 3 1 2 2 1 3 20 4 21 5 23 6 22 7 24 8 25 9 31 10 26 12 30 13
REMARK SMILES IDX 27 14 29 15 28 16 4 17 5 18 19 19 6 20 18 21 7 22 8 23 17 24
REMARK SMILES IDX 9 25 16 26 10 27 11 28 12 29 13 30 14 31 15 32
REMARK H PARENT 31 11
ROOT
ATOM      1  C   UNL     1      -0.521  -0.454   2.610  1.00  0.00     0.138 C 
ENDROOT
BRANCH   1   2
ATOM      2  C   UNL     1      -1.545   0.054   1.645  1.00  0.00     0.253 C 
ATOM      3  O   UNL     1      -1.939   1.249   1.734  1.00  0.00    -0.272 OA
BRANCH   2   4
ATOM      4  N   UNL     1      -1.949  -0.782   0.549  1.00  0.00    -0.177 NA
BRANCH   4   5
ATOM      5  C   UNL     1      -3.070  -0.766  -0.118  1.00  0.00     0.230 A 
ATOM      6  C   UNL     1      -4.319  -1.620  -1.938  1.00  0.00     0.117 A 
ATOM      7  N   UNL     1      -3.184  -1.581  -1.197  1.00  0.00    -0.221 NA
ATOM      8  C   UNL     1      -5.400  -0.816  -1.595  1.00  0.00     0.048 A 
ATOM      9  C   UNL     1      -5.298   0.013  -0.468  1.00  0.00     0.060 A 
ATOM     10  N   UNL     1      -4.135   0.013   0.253  1.00  0.00    -0.323 N 
ATOM     11  H   UNL     1      -4.094   0.583   1.123  1.00  0.00     0.170 HD
BRANCH   9  12
ATOM     12  C   UNL     1      -6.434   0.879  -0.056  1.00  0.00     0.051 A 
ATOM     13  S   UNL     1      -6.363   2.092   1.114  1.00  0.00    -0.142 S 
ATOM     14  C   UNL     1      -7.736   0.854  -0.556  1.00  0.00     0.022 A 
ATOM     15  C   UNL     1      -7.960   2.589   0.993  1.00  0.00     0.065 A 
ATOM     16  C   UNL     1      -8.580   1.808   0.029  1.00  0.00     0.012 A 
ENDBRANCH   9  12
ENDBRANCH   4   5
ENDBRANCH   2   4
ENDBRANCH   1   2
BRANCH   1  17
ATOM     17  C   UNL     1       0.853  -0.353   2.008  1.00  0.00    -0.039 A 
ATOM     18  C   UNL     1       1.402  -1.438   1.311  1.00  0.00     0.005 A 
ATOM     19  C   UNL     1       1.575   0.847   2.091  1.00  0.00     0.005 A 
ATOM     20  C   UNL     1       2.668  -1.335   0.728  1.00  0.00     0.009 A 
ATOM     21  C   UNL     1       2.839   0.952   1.505  1.00  0.00     0.009 A 
ATOM     22  C   UNL     1       3.402  -0.140   0.820  1.00  0.00    -0.017 A 
BRANCH  22  23
ATOM     23  C   UNL     1       4.751  -0.036   0.207  1.00  0.00     0.000 A 
ATOM     24  C   UNL     1       5.159   1.139  -0.448  1.00  0.00     0.120 A 
ATOM     25  C   UNL     1       5.656  -1.108   0.272  1.00  0.00     0.012 A 
ATOM     26  N   UNL     1       6.396   1.219  -1.007  1.00  0.00    -0.251 NA
ATOM     27  C   UNL     1       6.921  -0.999  -0.306  1.00  0.00     0.034 A 
ATOM     28  C   UNL     1       7.280   0.186  -0.962  1.00  0.00     0.144 A 
BRANCH  28  29
ATOM     29  C   UNL     1       8.644   0.339  -1.567  1.00  0.00     0.433 C 
ATOM     30  F   UNL     1       8.693   1.466  -2.368  1.00  0.00    -0.165 F 
ATOM     31  F   UNL     1       8.946  -0.768  -2.341  1.00  0.00    -0.165 F 
ATOM     32  F   UNL     1       9.582   0.461  -0.560  1.00  0.00    -0.165 F 
ENDBRANCH  28  29
ENDBRANCH  22  23
ENDBRANCH   1  17
TORSDOF 7
