REMARK SMILES O/C(Cc1ccc(-c2ccc(C(F)(F)F)nc2)cc1)=N\c1nccc(-c2cccs2)n1
REMARK SMILES IDX 3 1 2 2 1 3 20 5 21 6 22 7 31 8 23 9 25 10 24 11 26 12 30 13
REMARK SMILES IDX 27 14 29 15 28 16 4 17 5 18 19 19 6 20 18 21 7 22 8 23 17 24
REMARK SMILES IDX 9 25 16 26 10 27 11 28 12 29 13 30 14 31 15 32
REMARK H PARENT 1 4
ROOT
ATOM      1  C   UNL     1      -2.154  -0.242   2.691  1.00  0.00     0.132 C 
ENDROOT
BRANCH   1   2
ATOM      2  C   UNL     1      -2.744  -0.343   1.321  1.00  0.00     0.193 C 
BRANCH   2   3
ATOM      3  O   UNL     1      -3.184  -1.592   0.876  1.00  0.00    -0.496 OA
ATOM      4  H   UNL     1      -3.422  -1.789  -0.087  1.00  0.00     0.294 HD
ENDBRANCH   2   3
BRANCH   2   5
ATOM      5  N   UNL     1      -2.778   0.720   0.567  1.00  0.00    -0.180 NA
BRANCH   5   6
ATOM      6  C   UNL     1      -3.390   0.845  -0.721  1.00  0.00     0.252 A 
ATOM      7  N   UNL     1      -4.539   0.178  -1.018  1.00  0.00    -0.220 NA
ATOM      8  N   UNL     1      -2.871   1.723  -1.620  1.00  0.00    -0.210 NA
ATOM      9  C   UNL     1      -5.158   0.349  -2.215  1.00  0.00     0.117 A 
ATOM     10  C   UNL     1      -3.451   1.925  -2.835  1.00  0.00     0.086 A 
ATOM     11  C   UNL     1      -4.625   1.228  -3.156  1.00  0.00     0.050 A 
BRANCH  10  12
ATOM     12  C   UNL     1      -2.834   2.873  -3.786  1.00  0.00     0.053 A 
ATOM     13  S   UNL     1      -3.382   3.228  -5.339  1.00  0.00    -0.142 S 
ATOM     14  C   UNL     1      -1.689   3.627  -3.550  1.00  0.00     0.022 A 
ATOM     15  C   UNL     1      -2.177   4.336  -5.722  1.00  0.00     0.065 A 
ATOM     16  C   UNL     1      -1.325   4.441  -4.631  1.00  0.00     0.012 A 
ENDBRANCH  10  12
ENDBRANCH   5   6
ENDBRANCH   2   5
ENDBRANCH   1   2
BRANCH   1  17
ATOM     17  C   UNL     1      -0.654  -0.333   2.621  1.00  0.00    -0.039 A 
ATOM     18  C   UNL     1       0.122   0.831   2.509  1.00  0.00     0.005 A 
ATOM     19  C   UNL     1      -0.021  -1.585   2.616  1.00  0.00     0.005 A 
ATOM     20  C   UNL     1       1.514   0.747   2.419  1.00  0.00     0.009 A 
ATOM     21  C   UNL     1       1.372  -1.671   2.526  1.00  0.00     0.009 A 
ATOM     22  C   UNL     1       2.156  -0.507   2.428  1.00  0.00    -0.017 A 
BRANCH  22  23
ATOM     23  C   UNL     1       3.635  -0.599   2.331  1.00  0.00     0.000 A 
ATOM     24  C   UNL     1       4.460   0.311   3.015  1.00  0.00     0.120 A 
ATOM     25  C   UNL     1       4.247  -1.594   1.551  1.00  0.00     0.012 A 
ATOM     26  N   UNL     1       5.813   0.218   2.919  1.00  0.00    -0.251 NA
ATOM     27  C   UNL     1       5.638  -1.668   1.467  1.00  0.00     0.034 A 
ATOM     28  C   UNL     1       6.421  -0.741   2.167  1.00  0.00     0.144 A 
BRANCH  28  29
ATOM     29  C   UNL     1       7.918  -0.799   2.087  1.00  0.00     0.433 C 
ATOM     30  F   UNL     1       8.485   0.200   2.859  1.00  0.00    -0.165 F 
ATOM     31  F   UNL     1       8.362  -2.026   2.548  1.00  0.00    -0.165 F 
ATOM     32  F   UNL     1       8.320  -0.633   0.774  1.00  0.00    -0.165 F 
ENDBRANCH  28  29
ENDBRANCH  22  23
ENDBRANCH   1  17
TORSDOF 8
