AutoDock-GPU version: v1.6

**********************************************************
**    AutoDock-GPU AUTODOCKTOOLS-COMPATIBLE DLG FILE    **
**********************************************************


    DOCKING PARAMETERS
    ________________________


Ligand file:                               /home/a/REINVENT4/ReinventStudies/scoringData/graph-dock-h4r84i/graph-DockGPU/node-autodockgpu/inputs/AMYMGDKGSBDGMC-NYADSFOUNA-M.pdbqt
Grid fld file:                             /home/a/REINVENT4/ReinventStudies/mols/Rad51/maps/rad51_receptor.maps.fld

Random seed:                               42
Number of runs:                            20
Number of energy evaluations:              2040163
Number of generations:                     42000
Size of population:                        150
Rate of crossover:                         80.000000%
Tournament selection probability limit:    60.000000%
Rate of mutation:                          2.000000%
Maximal allowed delta movement:            +/- 6.000000A
Maximal allowed delta angle:               +/- 90.000000

Rate of local search:                      100.000000%
Maximal number of local search iterations: 300
Rho lower bound:                           0.010000
Spread of local search delta movement:     2.000000A
Spread of local search delta angle:        74.999999
Limit of consecutive successes/failures:   4

Handle symmetry during clustering:         YES
RMSD tolerance:                            2.000000A

Program call in command line was:          /home/a/REINVENT4/ReinventStudies/adgpu-v1.6_linux_x64_cuda12_128wi --filelist batch.txt --heuristics 1 --nrun 20 --psize 150 --lsit 300 --seed 42 --heurmax 12000000 


    GRID PARAMETERS
    ________________________


Receptor name:                             rad51_receptor
Number of grid points (x, y, z):           53, 53, 53
Grid center (x, y, z):                     139.950000, 75.640000, 221.970000A
Grid size (x, y, z):                       19.500000, 19.500000, 19.500000A
Grid spacing:                              0.375000A


    LIGAND PARAMETERS
    ________________________


Ligand name:                               /home/a/REINVENT4/ReinventStudies/scoringData/graph-dock-h4r84i/graph-DockGPU/node-autodockgpu/inputs/AMYMGDKGSBDGMC-NYADSFOUNA-M
Number of atoms:                           24
Number of rotatable bonds:                 9
Number of atom types:                      6


    DUMMY DATA (only for ADT-compatibility)
    ________________________


DPF> outlev 1
DPF> ga_run 20
DPF> fld /home/a/REINVENT4/ReinventStudies/mols/Rad51/maps/rad51_receptor.maps.fld
DPF> move /home/a/REINVENT4/ReinventStudies/scoringData/graph-dock-h4r84i/graph-DockGPU/node-autodockgpu/inputs/AMYMGDKGSBDGMC-NYADSFOUNA-M.pdbqt


    COUNTER STATES
    ________________________


Number of energy evaluations performed:    1145363
Number of generations used:                55


    INPUT LIGAND PDBQT FILE:
    ________________________


INPUT-LIGAND-PDBQT: REMARK SMILES O=C(CCCOc1ccc(Cl)cc1Cl)[N-]/N=C/c1cccnc1F
INPUT-LIGAND-PDBQT: REMARK SMILES IDX 2 1 1 2 15 3 16 4 17 5 18 6 23 7 19 8 22 9 20 10 21 11 24 12
INPUT-LIGAND-PDBQT: REMARK SMILES IDX 3 13 4 14 5 15 6 16 7 17 8 18 13 19 9 20 12 21 10 22 14 23
INPUT-LIGAND-PDBQT: REMARK SMILES IDX 11 24
INPUT-LIGAND-PDBQT: REMARK H PARENT
INPUT-LIGAND-PDBQT: ROOT
INPUT-LIGAND-PDBQT: ATOM      1  C   UNL     1       0.290   2.484  -0.830  1.00  0.00     0.068 C 
INPUT-LIGAND-PDBQT: ATOM      2  O   UNL     1       0.664   3.292  -1.722  1.00  0.00    -0.319 OA
INPUT-LIGAND-PDBQT: ENDROOT
INPUT-LIGAND-PDBQT: BRANCH   1   3
INPUT-LIGAND-PDBQT: ATOM      3  N   UNL     1      -0.144   1.172  -1.185  1.00  0.00    -0.545 NA
INPUT-LIGAND-PDBQT: BRANCH   3   4
INPUT-LIGAND-PDBQT: ATOM      4  N   UNL     1      -0.158   0.753  -2.521  1.00  0.00    -0.372 NA
INPUT-LIGAND-PDBQT: BRANCH   4   5
INPUT-LIGAND-PDBQT: ATOM      5  C   UNL     1      -0.534  -0.446  -2.833  1.00  0.00     0.099 C 
INPUT-LIGAND-PDBQT: BRANCH   5   6
INPUT-LIGAND-PDBQT: ATOM      6  C   UNL     1      -0.549  -0.911  -4.237  1.00  0.00     0.046 A 
INPUT-LIGAND-PDBQT: ATOM      7  C   UNL     1      -0.191  -0.079  -5.319  1.00  0.00     0.221 A 
INPUT-LIGAND-PDBQT: ATOM      8  C   UNL     1      -0.933  -2.233  -4.511  1.00  0.00     0.016 A 
INPUT-LIGAND-PDBQT: ATOM      9  N   UNL     1      -0.222  -0.564  -6.590  1.00  0.00    -0.228 NA
INPUT-LIGAND-PDBQT: ATOM     10  C   UNL     1      -0.954  -2.701  -5.826  1.00  0.00     0.021 A 
INPUT-LIGAND-PDBQT: ATOM     11  C   UNL     1      -0.591  -1.843  -6.863  1.00  0.00     0.114 A 
INPUT-LIGAND-PDBQT: ATOM     12  F   UNL     1       0.188   1.208  -5.122  1.00  0.00    -0.184 F 
INPUT-LIGAND-PDBQT: ENDBRANCH   5   6
INPUT-LIGAND-PDBQT: ENDBRANCH   4   5
INPUT-LIGAND-PDBQT: ENDBRANCH   3   4
INPUT-LIGAND-PDBQT: ENDBRANCH   1   3
INPUT-LIGAND-PDBQT: BRANCH   1  13
INPUT-LIGAND-PDBQT: ATOM     13  C   UNL     1       0.340   2.887   0.612  1.00  0.00     0.060 C 
INPUT-LIGAND-PDBQT: BRANCH  13  14
INPUT-LIGAND-PDBQT: ATOM     14  C   UNL     1       1.760   2.776   1.188  1.00  0.00     0.048 C 
INPUT-LIGAND-PDBQT: BRANCH  14  15
INPUT-LIGAND-PDBQT: ATOM     15  C   UNL     1       2.288   1.332   1.229  1.00  0.00     0.230 C 
INPUT-LIGAND-PDBQT: BRANCH  15  16
INPUT-LIGAND-PDBQT: ATOM     16  O   UNL     1       1.441   0.467   1.991  1.00  0.00    -0.492 OA
INPUT-LIGAND-PDBQT: BRANCH  16  17
INPUT-LIGAND-PDBQT: ATOM     17  C   UNL     1       0.981   0.693   3.300  1.00  0.00     0.137 A 
INPUT-LIGAND-PDBQT: ATOM     18  C   UNL     1      -0.363   0.392   3.561  1.00  0.00     0.049 A 
INPUT-LIGAND-PDBQT: ATOM     19  C   UNL     1       1.793   1.184   4.353  1.00  0.00     0.084 A 
INPUT-LIGAND-PDBQT: ATOM     20  C   UNL     1      -0.914   0.615   4.824  1.00  0.00     0.024 A 
INPUT-LIGAND-PDBQT: ATOM     21  C   UNL     1       1.228   1.405   5.617  1.00  0.00     0.045 A 
INPUT-LIGAND-PDBQT: ATOM     22  C   UNL     1      -0.121   1.130   5.851  1.00  0.00     0.042 A 
INPUT-LIGAND-PDBQT: ATOM     23  Cl  UNL     1       3.524   1.440   4.197  1.00  0.00    -0.080 Cl
INPUT-LIGAND-PDBQT: ATOM     24  Cl  UNL     1      -0.813   1.408   7.439  1.00  0.00    -0.084 Cl
INPUT-LIGAND-PDBQT: ENDBRANCH  16  17
INPUT-LIGAND-PDBQT: ENDBRANCH  15  16
INPUT-LIGAND-PDBQT: ENDBRANCH  14  15
INPUT-LIGAND-PDBQT: ENDBRANCH  13  14
INPUT-LIGAND-PDBQT: ENDBRANCH   1  13
INPUT-LIGAND-PDBQT: TORSDOF 9


    FINAL DOCKED STATE:
    ________________________


Run:   1 / 20
Time taken for this run:   0.042s

DOCKED: MODEL        1
DOCKED: USER    Run = 1
DOCKED: USER
DOCKED: USER    Estimated Free Energy of Binding    =  -5.87 kcal/mol  [=(1)+(2)+(3)-(4)]
DOCKED: USER
DOCKED: USER    (1) Final Intermolecular Energy     =  -8.55 kcal/mol
DOCKED: USER        vdW + Hbond + desolv Energy     =  -8.56 kcal/mol
DOCKED: USER        Electrostatic Energy            =  +0.01 kcal/mol
DOCKED: USER        Moving Ligand-Fixed Receptor    =  -8.55 kcal/mol
DOCKED: USER        Moving Ligand-Moving Receptor   =  +0.00 kcal/mol
DOCKED: USER    (2) Final Total Internal Energy     =  -0.63 kcal/mol
DOCKED: USER    (3) Torsional Free Energy           =  +2.68 kcal/mol
DOCKED: USER    (4) Unbound System's Energy         =  -0.63 kcal/mol
DOCKED: USER
DOCKED: USER
DOCKED: REMARK SMILES O=C(CCCOc1ccc(Cl)cc1Cl)[N-]/N=C/c1cccnc1F
DOCKED: REMARK SMILES IDX 2 1 1 2 15 3 16 4 17 5 18 6 23 7 19 8 22 9 20 10 21 11 24 12
DOCKED: REMARK SMILES IDX 3 13 4 14 5 15 6 16 7 17 8 18 13 19 9 20 12 21 10 22 14 23
DOCKED: REMARK SMILES IDX 11 24
DOCKED: REMARK H PARENT
DOCKED: USER                              x       y       z     vdW  Elec       q    Type
DOCKED: USER                           _______ _______ _______ _____ _____    ______ ____
DOCKED: ROOT
DOCKED: ATOM      1  C   UNL     1     140.770  73.546 221.067 -0.23 -0.01    +0.068 C  
DOCKED: ATOM      2  O   UNL     1     140.184  73.181 220.013 -0.03 +0.06    -0.319 OA 
DOCKED: ENDROOT
DOCKED: BRANCH   1   3
DOCKED: ATOM      3  N   UNL     1     140.149  73.355 222.337 -0.60 +0.03    -0.545 NA 
DOCKED: BRANCH   3   4
DOCKED: ATOM      4  N   UNL     1     140.687  72.468 223.278 -0.20 +0.01    -0.372 NA 
DOCKED: BRANCH   4   5
DOCKED: ATOM      5  C   UNL     1     139.964  71.518 223.779 -0.35 -0.02    +0.099 C  
DOCKED: BRANCH   5   6
DOCKED: ATOM      6  C   UNL     1     140.137  71.071 225.179 -0.49 -0.01    +0.046 A  
DOCKED: ATOM      7  C   UNL     1     139.575  69.874 225.671 -0.30 -0.03    +0.221 A  
DOCKED: ATOM      8  C   UNL     1     140.891  71.865 226.057 -0.59 -0.00    +0.016 A  
DOCKED: ATOM      9  N   UNL     1     139.771  69.514 226.969 -0.30 +0.03    -0.228 NA 
DOCKED: ATOM     10  C   UNL     1     141.074  71.467 227.383 -0.76 -0.00    +0.021 A  
DOCKED: ATOM     11  C   UNL     1     140.501  70.276 227.825 -0.54 -0.02    +0.114 A  
DOCKED: ATOM     12  F   UNL     1     138.836  69.064 224.874 -0.10 +0.02    -0.184 F  
DOCKED: ENDBRANCH   5   6
DOCKED: ENDBRANCH   4   5
DOCKED: ENDBRANCH   3   4
DOCKED: ENDBRANCH   1   3
DOCKED: BRANCH   1  13
DOCKED: ATOM     13  C   UNL     1     142.141  74.144 220.991 -0.17 -0.01    +0.060 C  
DOCKED: BRANCH  13  14
DOCKED: ATOM     14  C   UNL     1     142.187  75.352 220.042 -0.27 -0.02    +0.048 C  
DOCKED: BRANCH  14  15
DOCKED: ATOM     15  C   UNL     1     140.792  75.855 219.632 -0.08 -0.08    +0.230 C  
DOCKED: BRANCH  15  16
DOCKED: ATOM     16  O   UNL     1     140.226  76.736 220.607 -0.02 +0.15    -0.492 OA 
DOCKED: BRANCH  16  17
DOCKED: ATOM     17  C   UNL     1     140.909  77.735 221.323 -0.25 -0.06    +0.137 A  
DOCKED: ATOM     18  C   UNL     1     140.945  77.603 222.718 -0.43 -0.02    +0.049 A  
DOCKED: ATOM     19  C   UNL     1     141.563  78.838 220.719 -0.28 -0.04    +0.084 A  
DOCKED: ATOM     20  C   UNL     1     141.573  78.565 223.511 -0.57 -0.01    +0.024 A  
DOCKED: ATOM     21  C   UNL     1     142.189  79.798 221.526 -0.38 -0.02    +0.045 A  
DOCKED: ATOM     22  C   UNL     1     142.188  79.668 222.917 -0.58 -0.02    +0.042 A  
DOCKED: ATOM     23  Cl  UNL     1     141.730  79.026 218.980 -0.33 +0.05    -0.080 Cl 
DOCKED: ATOM     24  Cl  UNL     1     142.979  80.875 223.914 -0.71 +0.02    -0.084 Cl 
DOCKED: ENDBRANCH  16  17
DOCKED: ENDBRANCH  15  16
DOCKED: ENDBRANCH  14  15
DOCKED: ENDBRANCH  13  14
DOCKED: ENDBRANCH   1  13
DOCKED: TORSDOF 9
DOCKED: TER
DOCKED: ENDMDL
________________________________________________________________________________


    FINAL DOCKED STATE:
    ________________________


Run:   2 / 20
Time taken for this run:   0.042s

DOCKED: MODEL        2
DOCKED: USER    Run = 2
DOCKED: USER
DOCKED: USER    Estimated Free Energy of Binding    =  -6.38 kcal/mol  [=(1)+(2)+(3)-(4)]
DOCKED: USER
DOCKED: USER    (1) Final Intermolecular Energy     =  -9.06 kcal/mol
DOCKED: USER        vdW + Hbond + desolv Energy     =  -9.03 kcal/mol
DOCKED: USER        Electrostatic Energy            =  -0.03 kcal/mol
DOCKED: USER        Moving Ligand-Fixed Receptor    =  -9.06 kcal/mol
DOCKED: USER        Moving Ligand-Moving Receptor   =  +0.00 kcal/mol
DOCKED: USER    (2) Final Total Internal Energy     =  -0.94 kcal/mol
DOCKED: USER    (3) Torsional Free Energy           =  +2.68 kcal/mol
DOCKED: USER    (4) Unbound System's Energy         =  -0.94 kcal/mol
DOCKED: USER
DOCKED: USER
DOCKED: REMARK SMILES O=C(CCCOc1ccc(Cl)cc1Cl)[N-]/N=C/c1cccnc1F
DOCKED: REMARK SMILES IDX 2 1 1 2 15 3 16 4 17 5 18 6 23 7 19 8 22 9 20 10 21 11 24 12
DOCKED: REMARK SMILES IDX 3 13 4 14 5 15 6 16 7 17 8 18 13 19 9 20 12 21 10 22 14 23
DOCKED: REMARK SMILES IDX 11 24
DOCKED: REMARK H PARENT
DOCKED: USER                              x       y       z     vdW  Elec       q    Type
DOCKED: USER                           _______ _______ _______ _____ _____    ______ ____
DOCKED: ROOT
DOCKED: ATOM      1  C   UNL     1     138.402  69.012 223.550 -0.25 -0.01    +0.068 C  
DOCKED: ATOM      2  O   UNL     1     137.697  68.559 222.608 -0.09 +0.04    -0.319 OA 
DOCKED: ENDROOT
DOCKED: BRANCH   1   3
DOCKED: ATOM      3  N   UNL     1     138.227  68.522 224.878 -0.20 +0.01    -0.545 NA 
DOCKED: BRANCH   3   4
DOCKED: ATOM      4  N   UNL     1     139.240  67.800 225.521 -0.68 +0.01    -0.372 NA 
DOCKED: BRANCH   4   5
DOCKED: ATOM      5  C   UNL     1     139.656  68.150 226.696 -0.55 -0.02    +0.099 C  
DOCKED: BRANCH   5   6
DOCKED: ATOM      6  C   UNL     1     140.130  69.524 226.971 -0.53 -0.01    +0.046 A  
DOCKED: ATOM      7  C   UNL     1     139.786  70.229 228.144 -0.41 -0.03    +0.221 A  
DOCKED: ATOM      8  C   UNL     1     140.957  70.159 226.031 -0.54 -0.00    +0.016 A  
DOCKED: ATOM      9  N   UNL     1     140.255  71.491 228.343 -0.48 +0.05    -0.228 NA 
DOCKED: ATOM     10  C   UNL     1     141.422  71.454 226.264 -0.64 -0.00    +0.021 A  
DOCKED: ATOM     11  C   UNL     1     141.057  72.111 227.438 -0.72 -0.02    +0.114 A  
DOCKED: ATOM     12  F   UNL     1     138.990  69.673 229.091 -0.15 +0.02    -0.184 F  
DOCKED: ENDBRANCH   5   6
DOCKED: ENDBRANCH   4   5
DOCKED: ENDBRANCH   3   4
DOCKED: ENDBRANCH   1   3
DOCKED: BRANCH   1  13
DOCKED: ATOM     13  C   UNL     1     139.456  70.038 223.268 -0.23 -0.01    +0.060 C  
DOCKED: BRANCH  13  14
DOCKED: ATOM     14  C   UNL     1     138.956  71.463 223.548 -0.26 -0.01    +0.048 C  
DOCKED: BRANCH  14  15
DOCKED: ATOM     15  C   UNL     1     138.971  72.368 222.305 -0.15 -0.06    +0.230 C  
DOCKED: BRANCH  15  16
DOCKED: ATOM     16  O   UNL     1     139.963  73.395 222.394 -0.70 +0.04    -0.492 OA 
DOCKED: BRANCH  16  17
DOCKED: ATOM     17  C   UNL     1     141.190  73.430 221.709 -0.17 -0.01    +0.137 A  
DOCKED: ATOM     18  C   UNL     1     141.839  72.204 221.508 -0.19 -0.00    +0.049 A  
DOCKED: ATOM     19  C   UNL     1     141.786  74.614 221.207 -0.23 -0.02    +0.084 A  
DOCKED: ATOM     20  C   UNL     1     143.077  72.147 220.866 -0.27 -0.00    +0.024 A  
DOCKED: ATOM     21  C   UNL     1     143.030  74.545 220.565 -0.30 -0.02    +0.045 A  
DOCKED: ATOM     22  C   UNL     1     143.678  73.318 220.401 -0.34 -0.01    +0.042 A  
DOCKED: ATOM     23  Cl  UNL     1     140.996  76.183 221.249 -0.41 +0.03    -0.080 Cl 
DOCKED: ATOM     24  Cl  UNL     1     145.233  73.246 219.593 -0.55 -0.00    -0.084 Cl 
DOCKED: ENDBRANCH  16  17
DOCKED: ENDBRANCH  15  16
DOCKED: ENDBRANCH  14  15
DOCKED: ENDBRANCH  13  14
DOCKED: ENDBRANCH   1  13
DOCKED: TORSDOF 9
DOCKED: TER
DOCKED: ENDMDL
________________________________________________________________________________


    FINAL DOCKED STATE:
    ________________________


Run:   3 / 20
Time taken for this run:   0.042s

DOCKED: MODEL        3
DOCKED: USER    Run = 3
DOCKED: USER
DOCKED: USER    Estimated Free Energy of Binding    =  -6.58 kcal/mol  [=(1)+(2)+(3)-(4)]
DOCKED: USER
DOCKED: USER    (1) Final Intermolecular Energy     =  -9.27 kcal/mol
DOCKED: USER        vdW + Hbond + desolv Energy     =  -9.22 kcal/mol
DOCKED: USER        Electrostatic Energy            =  -0.04 kcal/mol
DOCKED: USER        Moving Ligand-Fixed Receptor    =  -9.27 kcal/mol
DOCKED: USER        Moving Ligand-Moving Receptor   =  +0.00 kcal/mol
DOCKED: USER    (2) Final Total Internal Energy     =  -0.74 kcal/mol
DOCKED: USER    (3) Torsional Free Energy           =  +2.68 kcal/mol
DOCKED: USER    (4) Unbound System's Energy         =  -0.74 kcal/mol
DOCKED: USER
DOCKED: USER
DOCKED: REMARK SMILES O=C(CCCOc1ccc(Cl)cc1Cl)[N-]/N=C/c1cccnc1F
DOCKED: REMARK SMILES IDX 2 1 1 2 15 3 16 4 17 5 18 6 23 7 19 8 22 9 20 10 21 11 24 12
DOCKED: REMARK SMILES IDX 3 13 4 14 5 15 6 16 7 17 8 18 13 19 9 20 12 21 10 22 14 23
DOCKED: REMARK SMILES IDX 11 24
DOCKED: REMARK H PARENT
DOCKED: USER                              x       y       z     vdW  Elec       q    Type
DOCKED: USER                           _______ _______ _______ _____ _____    ______ ____
DOCKED: ROOT
DOCKED: ATOM      1  C   UNL     1     134.189  68.742 225.021 -0.23 -0.00    +0.068 C  
DOCKED: ATOM      2  O   UNL     1     134.318  67.556 224.613 -0.65 +0.00    -0.319 OA 
DOCKED: ENDROOT
DOCKED: BRANCH   1   3
DOCKED: ATOM      3  N   UNL     1     133.584  69.005 226.286 -0.58 -0.02    -0.545 NA 
DOCKED: BRANCH   3   4
DOCKED: ATOM      4  N   UNL     1     133.584  70.294 226.832 -0.37 +0.01    -0.372 NA 
DOCKED: BRANCH   4   5
DOCKED: ATOM      5  C   UNL     1     132.552  71.066 226.701 -0.25 -0.01    +0.099 C  
DOCKED: BRANCH   5   6
DOCKED: ATOM      6  C   UNL     1     132.660  72.534 226.854 -0.38 -0.00    +0.046 A  
DOCKED: ATOM      7  C   UNL     1     133.709  73.284 226.281 -0.21 +0.01    +0.221 A  
DOCKED: ATOM      8  C   UNL     1     131.683  73.213 227.599 -0.42 -0.00    +0.016 A  
DOCKED: ATOM      9  N   UNL     1     133.754  74.633 226.455 -0.75 -0.02    -0.228 NA 
DOCKED: ATOM     10  C   UNL     1     131.757  74.598 227.758 -0.38 -0.00    +0.021 A  
DOCKED: ATOM     11  C   UNL     1     132.810  75.298 227.172 -0.34 +0.00    +0.114 A  
DOCKED: ATOM     12  F   UNL     1     134.684  72.689 225.552 -0.08 +0.00    -0.184 F  
DOCKED: ENDBRANCH   5   6
DOCKED: ENDBRANCH   4   5
DOCKED: ENDBRANCH   3   4
DOCKED: ENDBRANCH   1   3
DOCKED: BRANCH   1  13
DOCKED: ATOM     13  C   UNL     1     134.710  69.877 224.194 -0.15 -0.01    +0.060 C  
DOCKED: BRANCH  13  14
DOCKED: ATOM     14  C   UNL     1     136.241  69.987 224.272 -0.21 -0.00    +0.048 C  
DOCKED: BRANCH  14  15
DOCKED: ATOM     15  C   UNL     1     136.970  68.869 223.507 -0.11 -0.02    +0.230 C  
DOCKED: BRANCH  15  16
DOCKED: ATOM     16  O   UNL     1     138.383  68.897 223.725 -0.09 +0.06    -0.492 OA 
DOCKED: BRANCH  16  17
DOCKED: ATOM     17  C   UNL     1     139.053  69.568 224.763 -0.29 -0.02    +0.137 A  
DOCKED: ATOM     18  C   UNL     1     139.045  68.956 226.024 -0.43 -0.01    +0.049 A  
DOCKED: ATOM     19  C   UNL     1     139.737  70.799 224.600 -0.39 -0.02    +0.084 A  
DOCKED: ATOM     20  C   UNL     1     139.657  69.566 227.120 -0.53 -0.00    +0.024 A  
DOCKED: ATOM     21  C   UNL     1     140.348  71.402 225.709 -0.53 -0.01    +0.045 A  
DOCKED: ATOM     22  C   UNL     1     140.302  70.794 226.965 -0.58 -0.01    +0.042 A  
DOCKED: ATOM     23  Cl  UNL     1     139.961  71.579 223.043 -0.43 +0.01    -0.080 Cl 
DOCKED: ATOM     24  Cl  UNL     1     141.074  71.560 228.342 -0.84 +0.02    -0.084 Cl 
DOCKED: ENDBRANCH  16  17
DOCKED: ENDBRANCH  15  16
DOCKED: ENDBRANCH  14  15
DOCKED: ENDBRANCH  13  14
DOCKED: ENDBRANCH   1  13
DOCKED: TORSDOF 9
DOCKED: TER
DOCKED: ENDMDL
________________________________________________________________________________


    FINAL DOCKED STATE:
    ________________________


Run:   4 / 20
Time taken for this run:   0.042s

DOCKED: MODEL        4
DOCKED: USER    Run = 4
DOCKED: USER
DOCKED: USER    Estimated Free Energy of Binding    =  -6.01 kcal/mol  [=(1)+(2)+(3)-(4)]
DOCKED: USER
DOCKED: USER    (1) Final Intermolecular Energy     =  -8.70 kcal/mol
DOCKED: USER        vdW + Hbond + desolv Energy     =  -8.93 kcal/mol
DOCKED: USER        Electrostatic Energy            =  +0.24 kcal/mol
DOCKED: USER        Moving Ligand-Fixed Receptor    =  -8.70 kcal/mol
DOCKED: USER        Moving Ligand-Moving Receptor   =  +0.00 kcal/mol
DOCKED: USER    (2) Final Total Internal Energy     =  -0.50 kcal/mol
DOCKED: USER    (3) Torsional Free Energy           =  +2.68 kcal/mol
DOCKED: USER    (4) Unbound System's Energy         =  -0.50 kcal/mol
DOCKED: USER
DOCKED: USER
DOCKED: REMARK SMILES O=C(CCCOc1ccc(Cl)cc1Cl)[N-]/N=C/c1cccnc1F
DOCKED: REMARK SMILES IDX 2 1 1 2 15 3 16 4 17 5 18 6 23 7 19 8 22 9 20 10 21 11 24 12
DOCKED: REMARK SMILES IDX 3 13 4 14 5 15 6 16 7 17 8 18 13 19 9 20 12 21 10 22 14 23
DOCKED: REMARK SMILES IDX 11 24
DOCKED: REMARK H PARENT
DOCKED: USER                              x       y       z     vdW  Elec       q    Type
DOCKED: USER                           _______ _______ _______ _____ _____    ______ ____
DOCKED: ROOT
DOCKED: ATOM      1  C   UNL     1     141.366  74.682 221.204 -0.28 -0.02    +0.068 C  
DOCKED: ATOM      2  O   UNL     1     142.118  75.439 220.535 -0.18 +0.14    -0.319 OA 
DOCKED: ENDROOT
DOCKED: BRANCH   1   3
DOCKED: ATOM      3  N   UNL     1     140.301  75.229 221.980 -0.47 +0.07    -0.545 NA 
DOCKED: BRANCH   3   4
DOCKED: ATOM      4  N   UNL     1     140.474  76.410 222.712 -0.16 +0.08    -0.372 NA 
DOCKED: BRANCH   4   5
DOCKED: ATOM      5  C   UNL     1     140.289  77.565 222.157 -0.34 -0.03    +0.099 C  
DOCKED: BRANCH   5   6
DOCKED: ATOM      6  C   UNL     1     140.932  78.788 222.683 -0.43 -0.01    +0.046 A  
DOCKED: ATOM      7  C   UNL     1     140.232  79.751 223.442 -0.32 -0.04    +0.221 A  
DOCKED: ATOM      8  C   UNL     1     142.294  79.006 222.422 -0.47 -0.01    +0.016 A  
DOCKED: ATOM      9  N   UNL     1     140.879  80.856 223.902 -0.25 +0.03    -0.228 NA 
DOCKED: ATOM     10  C   UNL     1     142.929  80.150 222.909 -0.64 -0.01    +0.021 A  
DOCKED: ATOM     11  C   UNL     1     142.197  81.073 223.655 -0.54 -0.02    +0.114 A  
DOCKED: ATOM     12  F   UNL     1     138.915  79.600 223.728 -0.13 +0.02    -0.184 F  
DOCKED: ENDBRANCH   5   6
DOCKED: ENDBRANCH   4   5
DOCKED: ENDBRANCH   3   4
DOCKED: ENDBRANCH   1   3
DOCKED: BRANCH   1  13
DOCKED: ATOM     13  C   UNL     1     141.562  73.197 221.152 -0.24 -0.01    +0.060 C  
DOCKED: BRANCH  13  14
DOCKED: ATOM     14  C   UNL     1     140.355  72.440 221.727 -0.26 -0.01    +0.048 C  
DOCKED: BRANCH  14  15
DOCKED: ATOM     15  C   UNL     1     140.418  72.266 223.253 -0.14 -0.02    +0.230 C  
DOCKED: BRANCH  15  16
DOCKED: ATOM     16  O   UNL     1     139.723  71.095 223.694 -0.14 +0.09    -0.492 OA 
DOCKED: BRANCH  16  17
DOCKED: ATOM     17  C   UNL     1     140.000  70.348 224.852 -0.35 -0.02    +0.137 A  
DOCKED: ATOM     18  C   UNL     1     140.585  71.035 225.925 -0.57 -0.01    +0.049 A  
DOCKED: ATOM     19  C   UNL     1     139.709  68.968 224.995 -0.33 -0.01    +0.084 A  
DOCKED: ATOM     20  C   UNL     1     140.924  70.367 227.103 -0.58 -0.00    +0.024 A  
DOCKED: ATOM     21  C   UNL     1     140.055  68.308 226.182 -0.56 -0.01    +0.045 A  
DOCKED: ATOM     22  C   UNL     1     140.667  69.001 227.229 -0.59 -0.01    +0.042 A  
DOCKED: ATOM     23  Cl  UNL     1     138.830  68.038 223.792 -0.28 +0.01    -0.080 Cl 
DOCKED: ATOM     24  Cl  UNL     1     141.091  68.161 228.710 -0.70 +0.02    -0.084 Cl 
DOCKED: ENDBRANCH  16  17
DOCKED: ENDBRANCH  15  16
DOCKED: ENDBRANCH  14  15
DOCKED: ENDBRANCH  13  14
DOCKED: ENDBRANCH   1  13
DOCKED: TORSDOF 9
DOCKED: TER
DOCKED: ENDMDL
________________________________________________________________________________


    FINAL DOCKED STATE:
    ________________________


Run:   5 / 20
Time taken for this run:   0.042s

DOCKED: MODEL        5
DOCKED: USER    Run = 5
DOCKED: USER
DOCKED: USER    Estimated Free Energy of Binding    =  -5.12 kcal/mol  [=(1)+(2)+(3)-(4)]
DOCKED: USER
DOCKED: USER    (1) Final Intermolecular Energy     =  -7.80 kcal/mol
DOCKED: USER        vdW + Hbond + desolv Energy     =  -7.90 kcal/mol
DOCKED: USER        Electrostatic Energy            =  +0.10 kcal/mol
DOCKED: USER        Moving Ligand-Fixed Receptor    =  -7.80 kcal/mol
DOCKED: USER        Moving Ligand-Moving Receptor   =  +0.00 kcal/mol
DOCKED: USER    (2) Final Total Internal Energy     =  -1.48 kcal/mol
DOCKED: USER    (3) Torsional Free Energy           =  +2.68 kcal/mol
DOCKED: USER    (4) Unbound System's Energy         =  -1.48 kcal/mol
DOCKED: USER
DOCKED: USER
DOCKED: REMARK SMILES O=C(CCCOc1ccc(Cl)cc1Cl)[N-]/N=C/c1cccnc1F
DOCKED: REMARK SMILES IDX 2 1 1 2 15 3 16 4 17 5 18 6 23 7 19 8 22 9 20 10 21 11 24 12
DOCKED: REMARK SMILES IDX 3 13 4 14 5 15 6 16 7 17 8 18 13 19 9 20 12 21 10 22 14 23
DOCKED: REMARK SMILES IDX 11 24
DOCKED: REMARK H PARENT
DOCKED: USER                              x       y       z     vdW  Elec       q    Type
DOCKED: USER                           _______ _______ _______ _____ _____    ______ ____
DOCKED: ROOT
DOCKED: ATOM      1  C   UNL     1     140.032  73.790 221.794 -0.25 -0.01    +0.068 C  
DOCKED: ATOM      2  O   UNL     1     140.800  72.966 222.359 -0.59 +0.00    -0.319 OA 
DOCKED: ENDROOT
DOCKED: BRANCH   1   3
DOCKED: ATOM      3  N   UNL     1     139.812  75.078 222.368 -0.45 +0.05    -0.545 NA 
DOCKED: BRANCH   3   4
DOCKED: ATOM      4  N   UNL     1     140.813  76.058 222.347 -0.27 +0.09    -0.372 NA 
DOCKED: BRANCH   4   5
DOCKED: ATOM      5  C   UNL     1     140.630  77.174 221.717 -0.32 -0.03    +0.099 C  
DOCKED: BRANCH   5   6
DOCKED: ATOM      6  C   UNL     1     141.293  78.423 222.150 -0.40 -0.02    +0.046 A  
DOCKED: ATOM      7  C   UNL     1     141.679  79.434 221.244 -0.25 -0.11    +0.221 A  
DOCKED: ATOM      8  C   UNL     1     141.550  78.618 223.516 -0.58 -0.01    +0.016 A  
DOCKED: ATOM      9  N   UNL     1     142.283  80.564 221.703 -0.28 +0.08    -0.228 NA 
DOCKED: ATOM     10  C   UNL     1     142.171  79.789 223.955 -0.57 -0.01    +0.021 A  
DOCKED: ATOM     11  C   UNL     1     142.534  80.761 223.024 -0.53 -0.03    +0.114 A  
DOCKED: ATOM     12  F   UNL     1     141.460  79.307 219.912 -0.07 +0.09    -0.184 F  
DOCKED: ENDBRANCH   5   6
DOCKED: ENDBRANCH   4   5
DOCKED: ENDBRANCH   3   4
DOCKED: ENDBRANCH   1   3
DOCKED: BRANCH   1  13
DOCKED: ATOM     13  C   UNL     1     139.379  73.433 220.494 -0.11 -0.01    +0.060 C  
DOCKED: BRANCH  13  14
DOCKED: ATOM     14  C   UNL     1     139.114  74.673 219.627 -0.05 -0.01    +0.048 C  
DOCKED: BRANCH  14  15
DOCKED: ATOM     15  C   UNL     1     140.305  75.052 218.729 -0.02 -0.06    +0.230 C  
DOCKED: BRANCH  15  16
DOCKED: ATOM     16  O   UNL     1     141.275  74.005 218.646 +0.02 +0.12    -0.492 OA 
DOCKED: BRANCH  16  17
DOCKED: ATOM     17  C   UNL     1     142.485  73.932 219.358 -0.13 -0.04    +0.137 A  
DOCKED: ATOM     18  C   UNL     1     142.905  72.659 219.768 -0.18 -0.01    +0.049 A  
DOCKED: ATOM     19  C   UNL     1     143.296  75.055 219.662 -0.32 -0.04    +0.084 A  
DOCKED: ATOM     20  C   UNL     1     144.078  72.496 220.507 -0.36 -0.00    +0.024 A  
DOCKED: ATOM     21  C   UNL     1     144.471  74.878 220.406 -0.37 -0.02    +0.045 A  
DOCKED: ATOM     22  C   UNL     1     144.857  73.606 220.834 -0.53 -0.01    +0.042 A  
DOCKED: ATOM     23  Cl  UNL     1     142.966  76.673 219.063 -0.45 +0.05    -0.080 Cl 
DOCKED: ATOM     24  Cl  UNL     1     146.332  73.400 221.762 -0.85 +0.01    -0.084 Cl 
DOCKED: ENDBRANCH  16  17
DOCKED: ENDBRANCH  15  16
DOCKED: ENDBRANCH  14  15
DOCKED: ENDBRANCH  13  14
DOCKED: ENDBRANCH   1  13
DOCKED: TORSDOF 9
DOCKED: TER
DOCKED: ENDMDL
________________________________________________________________________________


    FINAL DOCKED STATE:
    ________________________


Run:   6 / 20
Time taken for this run:   0.042s

DOCKED: MODEL        6
DOCKED: USER    Run = 6
DOCKED: USER
DOCKED: USER    Estimated Free Energy of Binding    =  -6.39 kcal/mol  [=(1)+(2)+(3)-(4)]
DOCKED: USER
DOCKED: USER    (1) Final Intermolecular Energy     =  -9.08 kcal/mol
DOCKED: USER        vdW + Hbond + desolv Energy     =  -9.02 kcal/mol
DOCKED: USER        Electrostatic Energy            =  -0.05 kcal/mol
DOCKED: USER        Moving Ligand-Fixed Receptor    =  -9.08 kcal/mol
DOCKED: USER        Moving Ligand-Moving Receptor   =  +0.00 kcal/mol
DOCKED: USER    (2) Final Total Internal Energy     =  -0.93 kcal/mol
DOCKED: USER    (3) Torsional Free Energy           =  +2.68 kcal/mol
DOCKED: USER    (4) Unbound System's Energy         =  -0.93 kcal/mol
DOCKED: USER
DOCKED: USER
DOCKED: REMARK SMILES O=C(CCCOc1ccc(Cl)cc1Cl)[N-]/N=C/c1cccnc1F
DOCKED: REMARK SMILES IDX 2 1 1 2 15 3 16 4 17 5 18 6 23 7 19 8 22 9 20 10 21 11 24 12
DOCKED: REMARK SMILES IDX 3 13 4 14 5 15 6 16 7 17 8 18 13 19 9 20 12 21 10 22 14 23
DOCKED: REMARK SMILES IDX 11 24
DOCKED: REMARK H PARENT
DOCKED: USER                              x       y       z     vdW  Elec       q    Type
DOCKED: USER                           _______ _______ _______ _____ _____    ______ ____
DOCKED: ROOT
DOCKED: ATOM      1  C   UNL     1     137.871  68.993 224.093 -0.26 -0.01    +0.068 C  
DOCKED: ATOM      2  O   UNL     1     136.708  68.687 223.714 -0.15 +0.01    -0.319 OA 
DOCKED: ENDROOT
DOCKED: BRANCH   1   3
DOCKED: ATOM      3  N   UNL     1     138.825  67.972 224.377 -0.36 +0.01    -0.545 NA 
DOCKED: BRANCH   3   4
DOCKED: ATOM      4  N   UNL     1     139.208  67.688 225.694 -0.72 +0.01    -0.372 NA 
DOCKED: BRANCH   4   5
DOCKED: ATOM      5  C   UNL     1     140.315  68.157 226.176 -0.54 -0.02    +0.099 C  
DOCKED: BRANCH   5   6
DOCKED: ATOM      6  C   UNL     1     140.363  69.458 226.877 -0.53 -0.01    +0.046 A  
DOCKED: ATOM      7  C   UNL     1     141.182  70.525 226.449 -0.40 -0.03    +0.221 A  
DOCKED: ATOM      8  C   UNL     1     139.563  69.647 228.015 -0.60 -0.00    +0.016 A  
DOCKED: ATOM      9  N   UNL     1     141.182  71.700 227.135 -0.51 +0.04    -0.228 NA 
DOCKED: ATOM     10  C   UNL     1     139.585  70.866 228.696 -0.39 -0.00    +0.021 A  
DOCKED: ATOM     11  C   UNL     1     140.409  71.891 228.236 -0.65 -0.03    +0.114 A  
DOCKED: ATOM     12  F   UNL     1     141.979  70.406 225.359 -0.15 +0.02    -0.184 F  
DOCKED: ENDBRANCH   5   6
DOCKED: ENDBRANCH   4   5
DOCKED: ENDBRANCH   3   4
DOCKED: ENDBRANCH   1   3
DOCKED: BRANCH   1  13
DOCKED: ATOM     13  C   UNL     1     138.265  70.434 224.204 -0.28 -0.01    +0.060 C  
DOCKED: BRANCH  13  14
DOCKED: ATOM     14  C   UNL     1     139.377  70.801 223.210 -0.28 -0.01    +0.048 C  
DOCKED: BRANCH  14  15
DOCKED: ATOM     15  C   UNL     1     138.985  71.938 222.252 -0.16 -0.05    +0.230 C  
DOCKED: BRANCH  15  16
DOCKED: ATOM     16  O   UNL     1     139.869  73.059 222.350 -0.53 +0.07    -0.492 OA 
DOCKED: BRANCH  16  17
DOCKED: ATOM     17  C   UNL     1     141.104  73.205 221.694 -0.22 -0.01    +0.137 A  
DOCKED: ATOM     18  C   UNL     1     141.830  72.033 221.440 -0.20 -0.00    +0.049 A  
DOCKED: ATOM     19  C   UNL     1     141.634  74.449 221.269 -0.22 -0.02    +0.084 A  
DOCKED: ATOM     20  C   UNL     1     143.081  72.086 220.823 -0.27 -0.00    +0.024 A  
DOCKED: ATOM     21  C   UNL     1     142.892  74.490 220.651 -0.28 -0.02    +0.045 A  
DOCKED: ATOM     22  C   UNL     1     143.617  73.316 220.435 -0.34 -0.01    +0.042 A  
DOCKED: ATOM     23  Cl  UNL     1     140.749  75.963 221.379 -0.42 +0.02    -0.080 Cl 
DOCKED: ATOM     24  Cl  UNL     1     145.188  73.382 219.657 -0.57 +0.00    -0.084 Cl 
DOCKED: ENDBRANCH  16  17
DOCKED: ENDBRANCH  15  16
DOCKED: ENDBRANCH  14  15
DOCKED: ENDBRANCH  13  14
DOCKED: ENDBRANCH   1  13
DOCKED: TORSDOF 9
DOCKED: TER
DOCKED: ENDMDL
________________________________________________________________________________


    FINAL DOCKED STATE:
    ________________________


Run:   7 / 20
Time taken for this run:   0.042s

DOCKED: MODEL        7
DOCKED: USER    Run = 7
DOCKED: USER
DOCKED: USER    Estimated Free Energy of Binding    =  -6.18 kcal/mol  [=(1)+(2)+(3)-(4)]
DOCKED: USER
DOCKED: USER    (1) Final Intermolecular Energy     =  -8.87 kcal/mol
DOCKED: USER        vdW + Hbond + desolv Energy     =  -9.08 kcal/mol
DOCKED: USER        Electrostatic Energy            =  +0.22 kcal/mol
DOCKED: USER        Moving Ligand-Fixed Receptor    =  -8.87 kcal/mol
DOCKED: USER        Moving Ligand-Moving Receptor   =  +0.00 kcal/mol
DOCKED: USER    (2) Final Total Internal Energy     =  -0.33 kcal/mol
DOCKED: USER    (3) Torsional Free Energy           =  +2.68 kcal/mol
DOCKED: USER    (4) Unbound System's Energy         =  -0.33 kcal/mol
DOCKED: USER
DOCKED: USER
DOCKED: REMARK SMILES O=C(CCCOc1ccc(Cl)cc1Cl)[N-]/N=C/c1cccnc1F
DOCKED: REMARK SMILES IDX 2 1 1 2 15 3 16 4 17 5 18 6 23 7 19 8 22 9 20 10 21 11 24 12
DOCKED: REMARK SMILES IDX 3 13 4 14 5 15 6 16 7 17 8 18 13 19 9 20 12 21 10 22 14 23
DOCKED: REMARK SMILES IDX 11 24
DOCKED: REMARK H PARENT
DOCKED: USER                              x       y       z     vdW  Elec       q    Type
DOCKED: USER                           _______ _______ _______ _____ _____    ______ ____
DOCKED: ROOT
DOCKED: ATOM      1  C   UNL     1     141.058  74.021 221.296 -0.27 -0.01    +0.068 C  
DOCKED: ATOM      2  O   UNL     1     142.234  74.445 221.140 -0.19 +0.08    -0.319 OA 
DOCKED: ENDROOT
DOCKED: BRANCH   1   3
DOCKED: ATOM      3  N   UNL     1     140.093  74.813 221.987 -0.57 +0.06    -0.545 NA 
DOCKED: BRANCH   3   4
DOCKED: ATOM      4  N   UNL     1     140.433  76.062 222.520 -0.21 +0.07    -0.372 NA 
DOCKED: BRANCH   4   5
DOCKED: ATOM      5  C   UNL     1     140.403  77.125 221.782 -0.31 -0.03    +0.099 C  
DOCKED: BRANCH   5   6
DOCKED: ATOM      6  C   UNL     1     141.147  78.348 222.155 -0.40 -0.02    +0.046 A  
DOCKED: ATOM      7  C   UNL     1     141.561  79.307 221.207 -0.24 -0.10    +0.221 A  
DOCKED: ATOM      8  C   UNL     1     141.456  78.569 223.506 -0.57 -0.01    +0.016 A  
DOCKED: ATOM      9  N   UNL     1     142.241  80.414 221.610 -0.28 +0.09    -0.228 NA 
DOCKED: ATOM     10  C   UNL     1     142.155  79.715 223.889 -0.59 -0.01    +0.021 A  
DOCKED: ATOM     11  C   UNL     1     142.543  80.636 222.917 -0.53 -0.03    +0.114 A  
DOCKED: ATOM     12  F   UNL     1     141.295  79.152 219.886 -0.05 +0.09    -0.184 F  
DOCKED: ENDBRANCH   5   6
DOCKED: ENDBRANCH   4   5
DOCKED: ENDBRANCH   3   4
DOCKED: ENDBRANCH   1   3
DOCKED: BRANCH   1  13
DOCKED: ATOM     13  C   UNL     1     140.658  72.698 220.717 -0.17 -0.01    +0.060 C  
DOCKED: BRANCH  13  14
DOCKED: ATOM     14  C   UNL     1     140.742  71.570 221.757 -0.21 -0.01    +0.048 C  
DOCKED: BRANCH  14  15
DOCKED: ATOM     15  C   UNL     1     139.461  71.418 222.594 -0.19 -0.04    +0.230 C  
DOCKED: BRANCH  15  16
DOCKED: ATOM     16  O   UNL     1     139.649  71.831 223.951 -0.16 +0.13    -0.492 OA 
DOCKED: BRANCH  16  17
DOCKED: ATOM     17  C   UNL     1     139.893  70.991 225.051 -0.39 -0.02    +0.137 A  
DOCKED: ATOM     18  C   UNL     1     140.745  71.485 226.049 -0.60 -0.01    +0.049 A  
DOCKED: ATOM     19  C   UNL     1     139.322  69.703 225.209 -0.36 -0.01    +0.084 A  
DOCKED: ATOM     20  C   UNL     1     141.069  70.707 227.162 -0.62 -0.00    +0.024 A  
DOCKED: ATOM     21  C   UNL     1     139.657  68.931 226.330 -0.50 -0.01    +0.045 A  
DOCKED: ATOM     22  C   UNL     1     140.532  69.426 227.299 -0.57 -0.01    +0.042 A  
DOCKED: ATOM     23  Cl  UNL     1     138.116  69.043 224.116 -0.38 +0.01    -0.080 Cl 
DOCKED: ATOM     24  Cl  UNL     1     140.938  68.449 228.699 -0.71 +0.02    -0.084 Cl 
DOCKED: ENDBRANCH  16  17
DOCKED: ENDBRANCH  15  16
DOCKED: ENDBRANCH  14  15
DOCKED: ENDBRANCH  13  14
DOCKED: ENDBRANCH   1  13
DOCKED: TORSDOF 9
DOCKED: TER
DOCKED: ENDMDL
________________________________________________________________________________


    FINAL DOCKED STATE:
    ________________________


Run:   8 / 20
Time taken for this run:   0.042s

DOCKED: MODEL        8
DOCKED: USER    Run = 8
DOCKED: USER
DOCKED: USER    Estimated Free Energy of Binding    =  -6.28 kcal/mol  [=(1)+(2)+(3)-(4)]
DOCKED: USER
DOCKED: USER    (1) Final Intermolecular Energy     =  -8.97 kcal/mol
DOCKED: USER        vdW + Hbond + desolv Energy     =  -9.03 kcal/mol
DOCKED: USER        Electrostatic Energy            =  +0.06 kcal/mol
DOCKED: USER        Moving Ligand-Fixed Receptor    =  -8.97 kcal/mol
DOCKED: USER        Moving Ligand-Moving Receptor   =  +0.00 kcal/mol
DOCKED: USER    (2) Final Total Internal Energy     =  -0.61 kcal/mol
DOCKED: USER    (3) Torsional Free Energy           =  +2.68 kcal/mol
DOCKED: USER    (4) Unbound System's Energy         =  -0.61 kcal/mol
DOCKED: USER
DOCKED: USER
DOCKED: REMARK SMILES O=C(CCCOc1ccc(Cl)cc1Cl)[N-]/N=C/c1cccnc1F
DOCKED: REMARK SMILES IDX 2 1 1 2 15 3 16 4 17 5 18 6 23 7 19 8 22 9 20 10 21 11 24 12
DOCKED: REMARK SMILES IDX 3 13 4 14 5 15 6 16 7 17 8 18 13 19 9 20 12 21 10 22 14 23
DOCKED: REMARK SMILES IDX 11 24
DOCKED: REMARK H PARENT
DOCKED: USER                              x       y       z     vdW  Elec       q    Type
DOCKED: USER                           _______ _______ _______ _____ _____    ______ ____
DOCKED: ROOT
DOCKED: ATOM      1  C   UNL     1     140.364  73.993 221.938 -0.17 -0.00    +0.068 C  
DOCKED: ATOM      2  O   UNL     1     140.143  75.183 222.290 -0.61 +0.02    -0.319 OA 
DOCKED: ENDROOT
DOCKED: BRANCH   1   3
DOCKED: ATOM      3  N   UNL     1     139.857  72.908 222.713 -0.43 +0.08    -0.545 NA 
DOCKED: BRANCH   3   4
DOCKED: ATOM      4  N   UNL     1     140.720  72.047 223.402 -0.18 +0.02    -0.372 NA 
DOCKED: BRANCH   4   5
DOCKED: ATOM      5  C   UNL     1     140.259  71.014 224.032 -0.35 -0.02    +0.099 C  
DOCKED: BRANCH   5   6
DOCKED: ATOM      6  C   UNL     1     140.320  70.917 225.506 -0.52 -0.01    +0.046 A  
DOCKED: ATOM      7  C   UNL     1     139.714  69.866 226.226 -0.32 -0.03    +0.221 A  
DOCKED: ATOM      8  C   UNL     1     141.009  71.907 226.225 -0.63 -0.00    +0.016 A  
DOCKED: ATOM      9  N   UNL     1     139.806  69.829 227.584 -0.34 +0.04    -0.228 NA 
DOCKED: ATOM     10  C   UNL     1     141.086  71.840 227.617 -0.82 -0.00    +0.021 A  
DOCKED: ATOM     11  C   UNL     1     140.472  70.782 228.286 -0.52 -0.02    +0.114 A  
DOCKED: ATOM     12  F   UNL     1     139.034  68.879 225.592 -0.12 +0.02    -0.184 F  
DOCKED: ENDBRANCH   5   6
DOCKED: ENDBRANCH   4   5
DOCKED: ENDBRANCH   3   4
DOCKED: ENDBRANCH   1   3
DOCKED: BRANCH   1  13
DOCKED: ATOM     13  C   UNL     1     141.125  73.716 220.678 -0.22 -0.01    +0.060 C  
DOCKED: BRANCH  13  14
DOCKED: ATOM     14  C   UNL     1     140.817  74.750 219.584 -0.11 -0.01    +0.048 C  
DOCKED: BRANCH  14  15
DOCKED: ATOM     15  C   UNL     1     141.649  76.037 219.714 -0.15 -0.10    +0.230 C  
DOCKED: BRANCH  15  16
DOCKED: ATOM     16  O   UNL     1     140.870  77.141 220.185 -0.02 +0.20    -0.492 OA 
DOCKED: BRANCH  16  17
DOCKED: ATOM     17  C   UNL     1     141.300  78.150 221.063 -0.26 -0.07    +0.137 A  
DOCKED: ATOM     18  C   UNL     1     141.218  77.875 222.435 -0.40 -0.02    +0.049 A  
DOCKED: ATOM     19  C   UNL     1     141.819  79.401 220.642 -0.28 -0.05    +0.084 A  
DOCKED: ATOM     20  C   UNL     1     141.593  78.831 223.380 -0.58 -0.01    +0.024 A  
DOCKED: ATOM     21  C   UNL     1     142.191  80.353 221.600 -0.43 -0.02    +0.045 A  
DOCKED: ATOM     22  C   UNL     1     142.072  80.075 222.964 -0.57 -0.01    +0.042 A  
DOCKED: ATOM     23  Cl  UNL     1     142.127  79.799 218.959 -0.36 +0.05    -0.080 Cl 
DOCKED: ATOM     24  Cl  UNL     1     142.546  81.275 224.152 -0.65 +0.01    -0.084 Cl 
DOCKED: ENDBRANCH  16  17
DOCKED: ENDBRANCH  15  16
DOCKED: ENDBRANCH  14  15
DOCKED: ENDBRANCH  13  14
DOCKED: ENDBRANCH   1  13
DOCKED: TORSDOF 9
DOCKED: TER
DOCKED: ENDMDL
________________________________________________________________________________


    FINAL DOCKED STATE:
    ________________________


Run:   9 / 20
Time taken for this run:   0.042s

DOCKED: MODEL        9
DOCKED: USER    Run = 9
DOCKED: USER
DOCKED: USER    Estimated Free Energy of Binding    =  -6.15 kcal/mol  [=(1)+(2)+(3)-(4)]
DOCKED: USER
DOCKED: USER    (1) Final Intermolecular Energy     =  -8.83 kcal/mol
DOCKED: USER        vdW + Hbond + desolv Energy     =  -9.00 kcal/mol
DOCKED: USER        Electrostatic Energy            =  +0.16 kcal/mol
DOCKED: USER        Moving Ligand-Fixed Receptor    =  -8.83 kcal/mol
DOCKED: USER        Moving Ligand-Moving Receptor   =  +0.00 kcal/mol
DOCKED: USER    (2) Final Total Internal Energy     =  -0.42 kcal/mol
DOCKED: USER    (3) Torsional Free Energy           =  +2.68 kcal/mol
DOCKED: USER    (4) Unbound System's Energy         =  -0.42 kcal/mol
DOCKED: USER
DOCKED: USER
DOCKED: REMARK SMILES O=C(CCCOc1ccc(Cl)cc1Cl)[N-]/N=C/c1cccnc1F
DOCKED: REMARK SMILES IDX 2 1 1 2 15 3 16 4 17 5 18 6 23 7 19 8 22 9 20 10 21 11 24 12
DOCKED: REMARK SMILES IDX 3 13 4 14 5 15 6 16 7 17 8 18 13 19 9 20 12 21 10 22 14 23
DOCKED: REMARK SMILES IDX 11 24
DOCKED: REMARK H PARENT
DOCKED: USER                              x       y       z     vdW  Elec       q    Type
DOCKED: USER                           _______ _______ _______ _____ _____    ______ ____
DOCKED: ROOT
DOCKED: ATOM      1  C   UNL     1     139.714  72.974 222.270 -0.24 -0.01    +0.068 C  
DOCKED: ATOM      2  O   UNL     1     140.950  73.217 222.310 -0.58 -0.01    -0.319 OA 
DOCKED: ENDROOT
DOCKED: BRANCH   1   3
DOCKED: ATOM      3  N   UNL     1     139.173  71.876 223.003 -0.06 +0.14    -0.545 NA 
DOCKED: BRANCH   3   4
DOCKED: ATOM      4  N   UNL     1     139.989  71.080 223.817 -0.17 +0.06    -0.372 NA 
DOCKED: BRANCH   4   5
DOCKED: ATOM      5  C   UNL     1     140.279  71.451 225.023 -0.42 -0.02    +0.099 C  
DOCKED: BRANCH   5   6
DOCKED: ATOM      6  C   UNL     1     140.491  70.464 226.105 -0.53 -0.01    +0.046 A  
DOCKED: ATOM      7  C   UNL     1     140.957  70.827 227.386 -0.47 -0.04    +0.221 A  
DOCKED: ATOM      8  C   UNL     1     140.217  69.111 225.854 -0.49 -0.00    +0.016 A  
DOCKED: ATOM      9  N   UNL     1     141.131  69.875 228.343 -0.33 +0.05    -0.228 NA 
DOCKED: ATOM     10  C   UNL     1     140.405  68.157 226.856 -0.65 -0.00    +0.021 A  
DOCKED: ATOM     11  C   UNL     1     140.867  68.563 228.107 -0.56 -0.03    +0.114 A  
DOCKED: ATOM     12  F   UNL     1     141.241  72.117 227.693 -0.32 +0.04    -0.184 F  
DOCKED: ENDBRANCH   5   6
DOCKED: ENDBRANCH   4   5
DOCKED: ENDBRANCH   3   4
DOCKED: ENDBRANCH   1   3
DOCKED: BRANCH   1  13
DOCKED: ATOM     13  C   UNL     1     138.802  73.866 221.483 -0.19 -0.01    +0.060 C  
DOCKED: BRANCH  13  14
DOCKED: ATOM     14  C   UNL     1     138.883  75.326 221.956 -0.27 -0.01    +0.048 C  
DOCKED: BRANCH  14  15
DOCKED: ATOM     15  C   UNL     1     139.199  76.315 220.821 -0.10 -0.06    +0.230 C  
DOCKED: BRANCH  15  16
DOCKED: ATOM     16  O   UNL     1     140.562  76.748 220.844 -0.05 +0.17    -0.492 OA 
DOCKED: BRANCH  16  17
DOCKED: ATOM     17  C   UNL     1     141.077  77.840 221.564 -0.29 -0.06    +0.137 A  
DOCKED: ATOM     18  C   UNL     1     141.075  77.736 222.962 -0.41 -0.02    +0.049 A  
DOCKED: ATOM     19  C   UNL     1     141.602  79.011 220.962 -0.30 -0.04    +0.084 A  
DOCKED: ATOM     20  C   UNL     1     141.537  78.786 223.758 -0.58 -0.01    +0.024 A  
DOCKED: ATOM     21  C   UNL     1     142.063  80.058 221.772 -0.44 -0.02    +0.045 A  
DOCKED: ATOM     22  C   UNL     1     142.024  79.951 223.164 -0.58 -0.01    +0.042 A  
DOCKED: ATOM     23  Cl  UNL     1     141.812  79.192 219.227 -0.35 +0.05    -0.080 Cl 
DOCKED: ATOM     24  Cl  UNL     1     142.607  81.269 224.164 -0.64 +0.01    -0.084 Cl 
DOCKED: ENDBRANCH  16  17
DOCKED: ENDBRANCH  15  16
DOCKED: ENDBRANCH  14  15
DOCKED: ENDBRANCH  13  14
DOCKED: ENDBRANCH   1  13
DOCKED: TORSDOF 9
DOCKED: TER
DOCKED: ENDMDL
________________________________________________________________________________


    FINAL DOCKED STATE:
    ________________________


Run:   10 / 20
Time taken for this run:   0.042s

DOCKED: MODEL        10
DOCKED: USER    Run = 10
DOCKED: USER
DOCKED: USER    Estimated Free Energy of Binding    =  -6.14 kcal/mol  [=(1)+(2)+(3)-(4)]
DOCKED: USER
DOCKED: USER    (1) Final Intermolecular Energy     =  -8.83 kcal/mol
DOCKED: USER        vdW + Hbond + desolv Energy     =  -8.09 kcal/mol
DOCKED: USER        Electrostatic Energy            =  -0.74 kcal/mol
DOCKED: USER        Moving Ligand-Fixed Receptor    =  -8.83 kcal/mol
DOCKED: USER        Moving Ligand-Moving Receptor   =  +0.00 kcal/mol
DOCKED: USER    (2) Final Total Internal Energy     =  -0.70 kcal/mol
DOCKED: USER    (3) Torsional Free Energy           =  +2.68 kcal/mol
DOCKED: USER    (4) Unbound System's Energy         =  -0.70 kcal/mol
DOCKED: USER
DOCKED: USER
DOCKED: REMARK SMILES O=C(CCCOc1ccc(Cl)cc1Cl)[N-]/N=C/c1cccnc1F
DOCKED: REMARK SMILES IDX 2 1 1 2 15 3 16 4 17 5 18 6 23 7 19 8 22 9 20 10 21 11 24 12
DOCKED: REMARK SMILES IDX 3 13 4 14 5 15 6 16 7 17 8 18 13 19 9 20 12 21 10 22 14 23
DOCKED: REMARK SMILES IDX 11 24
DOCKED: REMARK H PARENT
DOCKED: USER                              x       y       z     vdW  Elec       q    Type
DOCKED: USER                           _______ _______ _______ _____ _____    ______ ____
DOCKED: ROOT
DOCKED: ATOM      1  C   UNL     1     145.779  73.421 220.446 -0.58 -0.00    +0.068 C  
DOCKED: ATOM      2  O   UNL     1     146.686  73.286 221.310 -0.50 -0.01    -0.319 OA 
DOCKED: ENDROOT
DOCKED: BRANCH   1   3
DOCKED: ATOM      3  N   UNL     1     145.935  72.857 219.145 -0.57 -0.36    -0.545 NA 
DOCKED: BRANCH   3   4
DOCKED: ATOM      4  N   UNL     1     145.973  71.470 218.959 -0.33 -0.39    -0.372 NA 
DOCKED: BRANCH   4   5
DOCKED: ATOM      5  C   UNL     1     144.892  70.762 219.046 -0.22 +0.03    +0.099 C  
DOCKED: BRANCH   5   6
DOCKED: ATOM      6  C   UNL     1     144.939  69.286 219.128 -0.29 +0.01    +0.046 A  
DOCKED: ATOM      7  C   UNL     1     143.780  68.493 219.261 -0.18 -0.02    +0.221 A  
DOCKED: ATOM      8  C   UNL     1     146.185  68.642 219.071 -0.40 +0.01    +0.016 A  
DOCKED: ATOM      9  N   UNL     1     143.886  67.139 219.330 -0.19 +0.06    -0.228 NA 
DOCKED: ATOM     10  C   UNL     1     146.260  67.250 219.143 -0.53 -0.00    +0.021 A  
DOCKED: ATOM     11  C   UNL     1     145.088  66.507 219.273 -0.41 -0.05    +0.114 A  
DOCKED: ATOM     12  F   UNL     1     142.547  69.054 219.324 -0.04 +0.03    -0.184 F  
DOCKED: ENDBRANCH   5   6
DOCKED: ENDBRANCH   4   5
DOCKED: ENDBRANCH   3   4
DOCKED: ENDBRANCH   1   3
DOCKED: BRANCH   1  13
DOCKED: ATOM     13  C   UNL     1     144.513  74.141 220.799 -0.37 -0.02    +0.060 C  
DOCKED: BRANCH  13  14
DOCKED: ATOM     14  C   UNL     1     143.271  73.410 220.265 -0.29 -0.01    +0.048 C  
DOCKED: BRANCH  14  15
DOCKED: ATOM     15  C   UNL     1     142.476  74.233 219.238 -0.11 -0.07    +0.230 C  
DOCKED: BRANCH  15  16
DOCKED: ATOM     16  O   UNL     1     141.358  74.902 219.828 -0.02 +0.15    -0.492 OA 
DOCKED: BRANCH  16  17
DOCKED: ATOM     17  C   UNL     1     141.399  76.086 220.584 -0.23 -0.06    +0.137 A  
DOCKED: ATOM     18  C   UNL     1     140.968  76.005 221.915 -0.35 -0.02    +0.049 A  
DOCKED: ATOM     19  C   UNL     1     141.861  77.330 220.085 -0.27 -0.05    +0.084 A  
DOCKED: ATOM     20  C   UNL     1     140.945  77.138 222.731 -0.39 -0.01    +0.024 A  
DOCKED: ATOM     21  C   UNL     1     141.831  78.461 220.913 -0.32 -0.03    +0.045 A  
DOCKED: ATOM     22  C   UNL     1     141.368  78.369 222.228 -0.42 -0.02    +0.042 A  
DOCKED: ATOM     23  Cl  UNL     1     142.579  77.525 218.494 -0.41 +0.05    -0.080 Cl 
DOCKED: ATOM     24  Cl  UNL     1     141.341  79.792 223.253 -0.68 +0.02    -0.084 Cl 
DOCKED: ENDBRANCH  16  17
DOCKED: ENDBRANCH  15  16
DOCKED: ENDBRANCH  14  15
DOCKED: ENDBRANCH  13  14
DOCKED: ENDBRANCH   1  13
DOCKED: TORSDOF 9
DOCKED: TER
DOCKED: ENDMDL
________________________________________________________________________________


    FINAL DOCKED STATE:
    ________________________


Run:   11 / 20
Time taken for this run:   0.042s

DOCKED: MODEL        11
DOCKED: USER    Run = 11
DOCKED: USER
DOCKED: USER    Estimated Free Energy of Binding    =  -6.11 kcal/mol  [=(1)+(2)+(3)-(4)]
DOCKED: USER
DOCKED: USER    (1) Final Intermolecular Energy     =  -8.79 kcal/mol
DOCKED: USER        vdW + Hbond + desolv Energy     =  -8.88 kcal/mol
DOCKED: USER        Electrostatic Energy            =  +0.08 kcal/mol
DOCKED: USER        Moving Ligand-Fixed Receptor    =  -8.79 kcal/mol
DOCKED: USER        Moving Ligand-Moving Receptor   =  +0.00 kcal/mol
DOCKED: USER    (2) Final Total Internal Energy     =  -0.76 kcal/mol
DOCKED: USER    (3) Torsional Free Energy           =  +2.68 kcal/mol
DOCKED: USER    (4) Unbound System's Energy         =  -0.76 kcal/mol
DOCKED: USER
DOCKED: USER
DOCKED: REMARK SMILES O=C(CCCOc1ccc(Cl)cc1Cl)[N-]/N=C/c1cccnc1F
DOCKED: REMARK SMILES IDX 2 1 1 2 15 3 16 4 17 5 18 6 23 7 19 8 22 9 20 10 21 11 24 12
DOCKED: REMARK SMILES IDX 3 13 4 14 5 15 6 16 7 17 8 18 13 19 9 20 12 21 10 22 14 23
DOCKED: REMARK SMILES IDX 11 24
DOCKED: REMARK H PARENT
DOCKED: USER                              x       y       z     vdW  Elec       q    Type
DOCKED: USER                           _______ _______ _______ _____ _____    ______ ____
DOCKED: ROOT
DOCKED: ATOM      1  C   UNL     1     140.013  73.923 221.891 -0.23 -0.01    +0.068 C  
DOCKED: ATOM      2  O   UNL     1     141.074  74.592 222.011 -0.58 +0.01    -0.319 OA 
DOCKED: ENDROOT
DOCKED: BRANCH   1   3
DOCKED: ATOM      3  N   UNL     1     139.953  72.579 222.366 -0.23 +0.08    -0.545 NA 
DOCKED: BRANCH   3   4
DOCKED: ATOM      4  N   UNL     1     140.325  72.260 223.678 -0.23 +0.05    -0.372 NA 
DOCKED: BRANCH   4   5
DOCKED: ATOM      5  C   UNL     1     139.900  71.174 224.239 -0.38 -0.02    +0.099 C  
DOCKED: BRANCH   5   6
DOCKED: ATOM      6  C   UNL     1     140.250  70.836 225.636 -0.52 -0.01    +0.046 A  
DOCKED: ATOM      7  C   UNL     1     140.120  69.533 226.161 -0.34 -0.04    +0.221 A  
DOCKED: ATOM      8  C   UNL     1     140.734  71.849 226.479 -0.65 -0.00    +0.016 A  
DOCKED: ATOM      9  N   UNL     1     140.461  69.282 227.454 -0.35 +0.04    -0.228 NA 
DOCKED: ATOM     10  C   UNL     1     141.076  71.560 227.801 -0.79 -0.00    +0.021 A  
DOCKED: ATOM     11  C   UNL     1     140.932  70.257 228.276 -0.47 -0.02    +0.114 A  
DOCKED: ATOM     12  F   UNL     1     139.658  68.511 225.399 -0.12 +0.03    -0.184 F  
DOCKED: ENDBRANCH   5   6
DOCKED: ENDBRANCH   4   5
DOCKED: ENDBRANCH   3   4
DOCKED: ENDBRANCH   1   3
DOCKED: BRANCH   1  13
DOCKED: ATOM     13  C   UNL     1     138.796  74.553 221.285 -0.18 -0.01    +0.060 C  
DOCKED: BRANCH  13  14
DOCKED: ATOM     14  C   UNL     1     137.919  75.237 222.344 -0.16 -0.01    +0.048 C  
DOCKED: BRANCH  14  15
DOCKED: ATOM     15  C   UNL     1     137.750  76.748 222.110 -0.17 -0.05    +0.230 C  
DOCKED: BRANCH  15  16
DOCKED: ATOM     16  O   UNL     1     138.864  77.316 221.415 -0.03 +0.11    -0.492 OA 
DOCKED: BRANCH  16  17
DOCKED: ATOM     17  C   UNL     1     139.881  78.109 221.977 -0.24 -0.04    +0.137 A  
DOCKED: ATOM     18  C   UNL     1     139.548  78.850 223.119 -0.34 -0.01    +0.049 A  
DOCKED: ATOM     19  C   UNL     1     141.202  78.183 221.469 -0.31 -0.04    +0.084 A  
DOCKED: ATOM     20  C   UNL     1     140.485  79.689 223.725 -0.47 -0.00    +0.024 A  
DOCKED: ATOM     21  C   UNL     1     142.133  79.030 222.085 -0.45 -0.02    +0.045 A  
DOCKED: ATOM     22  C   UNL     1     141.776  79.786 223.203 -0.56 -0.01    +0.042 A  
DOCKED: ATOM     23  Cl  UNL     1     141.785  77.180 220.149 -0.37 +0.04    -0.080 Cl 
DOCKED: ATOM     24  Cl  UNL     1     142.954  80.839 223.966 -0.71 +0.02    -0.084 Cl 
DOCKED: ENDBRANCH  16  17
DOCKED: ENDBRANCH  15  16
DOCKED: ENDBRANCH  14  15
DOCKED: ENDBRANCH  13  14
DOCKED: ENDBRANCH   1  13
DOCKED: TORSDOF 9
DOCKED: TER
DOCKED: ENDMDL
________________________________________________________________________________


    FINAL DOCKED STATE:
    ________________________


Run:   12 / 20
Time taken for this run:   0.042s

DOCKED: MODEL        12
DOCKED: USER    Run = 12
DOCKED: USER
DOCKED: USER    Estimated Free Energy of Binding    =  -6.25 kcal/mol  [=(1)+(2)+(3)-(4)]
DOCKED: USER
DOCKED: USER    (1) Final Intermolecular Energy     =  -8.93 kcal/mol
DOCKED: USER        vdW + Hbond + desolv Energy     =  -9.00 kcal/mol
DOCKED: USER        Electrostatic Energy            =  +0.07 kcal/mol
DOCKED: USER        Moving Ligand-Fixed Receptor    =  -8.93 kcal/mol
DOCKED: USER        Moving Ligand-Moving Receptor   =  +0.00 kcal/mol
DOCKED: USER    (2) Final Total Internal Energy     =  -0.70 kcal/mol
DOCKED: USER    (3) Torsional Free Energy           =  +2.68 kcal/mol
DOCKED: USER    (4) Unbound System's Energy         =  -0.70 kcal/mol
DOCKED: USER
DOCKED: USER
DOCKED: REMARK SMILES O=C(CCCOc1ccc(Cl)cc1Cl)[N-]/N=C/c1cccnc1F
DOCKED: REMARK SMILES IDX 2 1 1 2 15 3 16 4 17 5 18 6 23 7 19 8 22 9 20 10 21 11 24 12
DOCKED: REMARK SMILES IDX 3 13 4 14 5 15 6 16 7 17 8 18 13 19 9 20 12 21 10 22 14 23
DOCKED: REMARK SMILES IDX 11 24
DOCKED: REMARK H PARENT
DOCKED: USER                              x       y       z     vdW  Elec       q    Type
DOCKED: USER                           _______ _______ _______ _____ _____    ______ ____
DOCKED: ROOT
DOCKED: ATOM      1  C   UNL     1     139.949  73.109 222.321 -0.23 -0.01    +0.068 C  
DOCKED: ATOM      2  O   UNL     1     140.659  74.114 222.045 -0.75 -0.00    -0.319 OA 
DOCKED: ENDROOT
DOCKED: BRANCH   1   3
DOCKED: ATOM      3  N   UNL     1     140.516  71.997 223.011 -0.14 +0.05    -0.545 NA 
DOCKED: BRANCH   3   4
DOCKED: ATOM      4  N   UNL     1     139.973  71.543 224.219 -0.20 +0.07    -0.372 NA 
DOCKED: BRANCH   4   5
DOCKED: ATOM      5  C   UNL     1     140.697  71.491 225.291 -0.48 -0.01    +0.099 C  
DOCKED: BRANCH   5   6
DOCKED: ATOM      6  C   UNL     1     140.599  70.359 226.237 -0.53 -0.01    +0.046 A  
DOCKED: ATOM      7  C   UNL     1     140.661  70.527 227.636 -0.46 -0.04    +0.221 A  
DOCKED: ATOM      8  C   UNL     1     140.437  69.061 225.728 -0.47 -0.00    +0.016 A  
DOCKED: ATOM      9  N   UNL     1     140.562  69.447 228.457 -0.33 +0.04    -0.228 NA 
DOCKED: ATOM     10  C   UNL     1     140.338  67.972 226.597 -0.65 -0.00    +0.021 A  
DOCKED: ATOM     11  C   UNL     1     140.403  68.187 227.972 -0.54 -0.03    +0.114 A  
DOCKED: ATOM     12  F   UNL     1     140.817  71.755 228.191 -0.29 +0.04    -0.184 F  
DOCKED: ENDBRANCH   5   6
DOCKED: ENDBRANCH   4   5
DOCKED: ENDBRANCH   3   4
DOCKED: ENDBRANCH   1   3
DOCKED: BRANCH   1  13
DOCKED: ATOM     13  C   UNL     1     138.495  73.100 221.961 -0.17 -0.02    +0.060 C  
DOCKED: BRANCH  13  14
DOCKED: ATOM     14  C   UNL     1     138.064  74.412 221.287 -0.15 -0.01    +0.048 C  
DOCKED: BRANCH  14  15
DOCKED: ATOM     15  C   UNL     1     138.141  75.630 222.224 -0.18 -0.06    +0.230 C  
DOCKED: BRANCH  15  16
DOCKED: ATOM     16  O   UNL     1     138.650  76.791 221.561 -0.05 +0.11    -0.492 OA 
DOCKED: BRANCH  16  17
DOCKED: ATOM     17  C   UNL     1     139.624  77.674 222.059 -0.25 -0.03    +0.137 A  
DOCKED: ATOM     18  C   UNL     1     139.234  78.526 223.102 -0.30 -0.01    +0.049 A  
DOCKED: ATOM     19  C   UNL     1     140.957  77.736 221.583 -0.31 -0.04    +0.084 A  
DOCKED: ATOM     20  C   UNL     1     140.126  79.458 223.637 -0.45 -0.00    +0.024 A  
DOCKED: ATOM     21  C   UNL     1     141.844  78.677 222.126 -0.42 -0.02    +0.045 A  
DOCKED: ATOM     22  C   UNL     1     141.429  79.540 223.143 -0.52 -0.01    +0.042 A  
DOCKED: ATOM     23  Cl  UNL     1     141.612  76.613 220.400 -0.35 +0.04    -0.080 Cl 
DOCKED: ATOM     24  Cl  UNL     1     142.551  80.709 223.816 -0.81 +0.02    -0.084 Cl 
DOCKED: ENDBRANCH  16  17
DOCKED: ENDBRANCH  15  16
DOCKED: ENDBRANCH  14  15
DOCKED: ENDBRANCH  13  14
DOCKED: ENDBRANCH   1  13
DOCKED: TORSDOF 9
DOCKED: TER
DOCKED: ENDMDL
________________________________________________________________________________


    FINAL DOCKED STATE:
    ________________________


Run:   13 / 20
Time taken for this run:   0.042s

DOCKED: MODEL        13
DOCKED: USER    Run = 13
DOCKED: USER
DOCKED: USER    Estimated Free Energy of Binding    =  -6.08 kcal/mol  [=(1)+(2)+(3)-(4)]
DOCKED: USER
DOCKED: USER    (1) Final Intermolecular Energy     =  -8.77 kcal/mol
DOCKED: USER        vdW + Hbond + desolv Energy     =  -8.76 kcal/mol
DOCKED: USER        Electrostatic Energy            =  -0.01 kcal/mol
DOCKED: USER        Moving Ligand-Fixed Receptor    =  -8.77 kcal/mol
DOCKED: USER        Moving Ligand-Moving Receptor   =  +0.00 kcal/mol
DOCKED: USER    (2) Final Total Internal Energy     =  -0.97 kcal/mol
DOCKED: USER    (3) Torsional Free Energy           =  +2.68 kcal/mol
DOCKED: USER    (4) Unbound System's Energy         =  -0.97 kcal/mol
DOCKED: USER
DOCKED: USER
DOCKED: REMARK SMILES O=C(CCCOc1ccc(Cl)cc1Cl)[N-]/N=C/c1cccnc1F
DOCKED: REMARK SMILES IDX 2 1 1 2 15 3 16 4 17 5 18 6 23 7 19 8 22 9 20 10 21 11 24 12
DOCKED: REMARK SMILES IDX 3 13 4 14 5 15 6 16 7 17 8 18 13 19 9 20 12 21 10 22 14 23
DOCKED: REMARK SMILES IDX 11 24
DOCKED: REMARK H PARENT
DOCKED: USER                              x       y       z     vdW  Elec       q    Type
DOCKED: USER                           _______ _______ _______ _____ _____    ______ ____
DOCKED: ROOT
DOCKED: ATOM      1  C   UNL     1     138.099  68.856 224.039 -0.27 -0.01    +0.068 C  
DOCKED: ATOM      2  O   UNL     1     138.145  68.200 222.964 -0.15 +0.04    -0.319 OA 
DOCKED: ENDROOT
DOCKED: BRANCH   1   3
DOCKED: ATOM      3  N   UNL     1     138.361  68.212 225.285 -0.24 -0.02    -0.545 NA 
DOCKED: BRANCH   3   4
DOCKED: ATOM      4  N   UNL     1     139.576  67.555 225.517 -0.63 +0.03    -0.372 NA 
DOCKED: BRANCH   4   5
DOCKED: ATOM      5  C   UNL     1     140.349  67.920 226.488 -0.59 -0.02    +0.099 C  
DOCKED: BRANCH   5   6
DOCKED: ATOM      6  C   UNL     1     140.553  69.347 226.819 -0.54 -0.01    +0.046 A  
DOCKED: ATOM      7  C   UNL     1     140.078  69.928 228.015 -0.43 -0.04    +0.221 A  
DOCKED: ATOM      8  C   UNL     1     141.248  70.163 225.912 -0.53 -0.00    +0.016 A  
DOCKED: ATOM      9  N   UNL     1     140.299  71.247 228.265 -0.46 +0.05    -0.228 NA 
DOCKED: ATOM     10  C   UNL     1     141.459  71.513 226.199 -0.64 -0.00    +0.021 A  
DOCKED: ATOM     11  C   UNL     1     140.972  72.042 227.393 -0.70 -0.02    +0.114 A  
DOCKED: ATOM     12  F   UNL     1     139.399  69.195 228.931 -0.15 +0.02    -0.184 F  
DOCKED: ENDBRANCH   5   6
DOCKED: ENDBRANCH   4   5
DOCKED: ENDBRANCH   3   4
DOCKED: ENDBRANCH   1   3
DOCKED: BRANCH   1  13
DOCKED: ATOM     13  C   UNL     1     137.808  70.325 224.007 -0.25 -0.01    +0.060 C  
DOCKED: BRANCH  13  14
DOCKED: ATOM     14  C   UNL     1     139.086  71.157 223.819 -0.32 -0.01    +0.048 C  
DOCKED: BRANCH  14  15
DOCKED: ATOM     15  C   UNL     1     139.681  71.046 222.406 -0.17 -0.04    +0.230 C  
DOCKED: BRANCH  15  16
DOCKED: ATOM     16  O   UNL     1     140.092  72.315 221.890 -0.13 +0.07    -0.492 OA 
DOCKED: BRANCH  16  17
DOCKED: ATOM     17  C   UNL     1     141.383  72.657 221.449 -0.21 -0.01    +0.137 A  
DOCKED: ATOM     18  C   UNL     1     142.277  71.601 221.224 -0.12 -0.00    +0.049 A  
DOCKED: ATOM     19  C   UNL     1     141.813  73.986 221.209 -0.21 -0.01    +0.084 A  
DOCKED: ATOM     20  C   UNL     1     143.589  71.849 220.817 -0.30 -0.00    +0.024 A  
DOCKED: ATOM     21  C   UNL     1     143.134  74.223 220.801 -0.26 -0.01    +0.045 A  
DOCKED: ATOM     22  C   UNL     1     144.021  73.161 220.613 -0.37 -0.01    +0.042 A  
DOCKED: ATOM     23  Cl  UNL     1     140.743  75.377 221.293 -0.41 +0.02    -0.080 Cl 
DOCKED: ATOM     24  Cl  UNL     1     145.669  73.472 220.098 -0.69 -0.00    -0.084 Cl 
DOCKED: ENDBRANCH  16  17
DOCKED: ENDBRANCH  15  16
DOCKED: ENDBRANCH  14  15
DOCKED: ENDBRANCH  13  14
DOCKED: ENDBRANCH   1  13
DOCKED: TORSDOF 9
DOCKED: TER
DOCKED: ENDMDL
________________________________________________________________________________


    FINAL DOCKED STATE:
    ________________________


Run:   14 / 20
Time taken for this run:   0.042s

DOCKED: MODEL        14
DOCKED: USER    Run = 14
DOCKED: USER
DOCKED: USER    Estimated Free Energy of Binding    =  -6.57 kcal/mol  [=(1)+(2)+(3)-(4)]
DOCKED: USER
DOCKED: USER    (1) Final Intermolecular Energy     =  -9.25 kcal/mol
DOCKED: USER        vdW + Hbond + desolv Energy     =  -9.31 kcal/mol
DOCKED: USER        Electrostatic Energy            =  +0.06 kcal/mol
DOCKED: USER        Moving Ligand-Fixed Receptor    =  -9.25 kcal/mol
DOCKED: USER        Moving Ligand-Moving Receptor   =  +0.00 kcal/mol
DOCKED: USER    (2) Final Total Internal Energy     =  -0.55 kcal/mol
DOCKED: USER    (3) Torsional Free Energy           =  +2.68 kcal/mol
DOCKED: USER    (4) Unbound System's Energy         =  -0.55 kcal/mol
DOCKED: USER
DOCKED: USER
DOCKED: REMARK SMILES O=C(CCCOc1ccc(Cl)cc1Cl)[N-]/N=C/c1cccnc1F
DOCKED: REMARK SMILES IDX 2 1 1 2 15 3 16 4 17 5 18 6 23 7 19 8 22 9 20 10 21 11 24 12
DOCKED: REMARK SMILES IDX 3 13 4 14 5 15 6 16 7 17 8 18 13 19 9 20 12 21 10 22 14 23
DOCKED: REMARK SMILES IDX 11 24
DOCKED: REMARK H PARENT
DOCKED: USER                              x       y       z     vdW  Elec       q    Type
DOCKED: USER                           _______ _______ _______ _____ _____    ______ ____
DOCKED: ROOT
DOCKED: ATOM      1  C   UNL     1     140.600  73.073 221.962 -0.28 -0.01    +0.068 C  
DOCKED: ATOM      2  O   UNL     1     140.020  74.137 222.308 -0.82 +0.01    -0.319 OA 
DOCKED: ENDROOT
DOCKED: BRANCH   1   3
DOCKED: ATOM      3  N   UNL     1     140.202  71.822 222.522 -0.09 +0.08    -0.545 NA 
DOCKED: BRANCH   3   4
DOCKED: ATOM      4  N   UNL     1     140.714  71.386 223.751 -0.16 +0.04    -0.372 NA 
DOCKED: BRANCH   4   5
DOCKED: ATOM      5  C   UNL     1     140.003  71.471 224.830 -0.36 -0.02    +0.099 C  
DOCKED: BRANCH   5   6
DOCKED: ATOM      6  C   UNL     1     140.334  70.683 226.037 -0.54 -0.01    +0.046 A  
DOCKED: ATOM      7  C   UNL     1     140.860  71.268 227.208 -0.53 -0.04    +0.221 A  
DOCKED: ATOM      8  C   UNL     1     140.116  69.296 226.024 -0.49 -0.00    +0.016 A  
DOCKED: ATOM      9  N   UNL     1     141.142  70.492 228.290 -0.35 +0.04    -0.228 NA 
DOCKED: ATOM     10  C   UNL     1     140.416  68.527 227.150 -0.64 -0.00    +0.021 A  
DOCKED: ATOM     11  C   UNL     1     140.933  69.149 228.285 -0.52 -0.02    +0.114 A  
DOCKED: ATOM     12  F   UNL     1     141.094  72.602 227.285 -0.32 +0.04    -0.184 F  
DOCKED: ENDBRANCH   5   6
DOCKED: ENDBRANCH   4   5
DOCKED: ENDBRANCH   3   4
DOCKED: ENDBRANCH   1   3
DOCKED: BRANCH   1  13
DOCKED: ATOM     13  C   UNL     1     141.685  73.114 220.929 -0.24 -0.01    +0.060 C  
DOCKED: BRANCH  13  14
DOCKED: ATOM     14  C   UNL     1     142.311  74.513 220.813 -0.26 -0.01    +0.048 C  
DOCKED: BRANCH  14  15
DOCKED: ATOM     15  C   UNL     1     141.524  75.456 219.887 -0.14 -0.08    +0.230 C  
DOCKED: BRANCH  15  16
DOCKED: ATOM     16  O   UNL     1     140.692  76.362 220.617 -0.04 +0.17    -0.492 OA 
DOCKED: BRANCH  16  17
DOCKED: ATOM     17  C   UNL     1     141.119  77.505 221.316 -0.27 -0.06    +0.137 A  
DOCKED: ATOM     18  C   UNL     1     141.068  77.449 222.715 -0.42 -0.02    +0.049 A  
DOCKED: ATOM     19  C   UNL     1     141.603  78.682 220.691 -0.28 -0.05    +0.084 A  
DOCKED: ATOM     20  C   UNL     1     141.441  78.549 223.490 -0.56 -0.01    +0.024 A  
DOCKED: ATOM     21  C   UNL     1     141.974  79.781 221.480 -0.39 -0.02    +0.045 A  
DOCKED: ATOM     22  C   UNL     1     141.887  79.719 222.872 -0.54 -0.01    +0.042 A  
DOCKED: ATOM     23  Cl  UNL     1     141.871  78.816 218.960 -0.34 +0.05    -0.080 Cl 
DOCKED: ATOM     24  Cl  UNL     1     142.358  81.101 223.845 -0.75 +0.01    -0.084 Cl 
DOCKED: ENDBRANCH  16  17
DOCKED: ENDBRANCH  15  16
DOCKED: ENDBRANCH  14  15
DOCKED: ENDBRANCH  13  14
DOCKED: ENDBRANCH   1  13
DOCKED: TORSDOF 9
DOCKED: TER
DOCKED: ENDMDL
________________________________________________________________________________


    FINAL DOCKED STATE:
    ________________________


Run:   15 / 20
Time taken for this run:   0.042s

DOCKED: MODEL        15
DOCKED: USER    Run = 15
DOCKED: USER
DOCKED: USER    Estimated Free Energy of Binding    =  -5.84 kcal/mol  [=(1)+(2)+(3)-(4)]
DOCKED: USER
DOCKED: USER    (1) Final Intermolecular Energy     =  -8.52 kcal/mol
DOCKED: USER        vdW + Hbond + desolv Energy     =  -8.57 kcal/mol
DOCKED: USER        Electrostatic Energy            =  +0.05 kcal/mol
DOCKED: USER        Moving Ligand-Fixed Receptor    =  -8.52 kcal/mol
DOCKED: USER        Moving Ligand-Moving Receptor   =  +0.00 kcal/mol
DOCKED: USER    (2) Final Total Internal Energy     =  -0.93 kcal/mol
DOCKED: USER    (3) Torsional Free Energy           =  +2.68 kcal/mol
DOCKED: USER    (4) Unbound System's Energy         =  -0.93 kcal/mol
DOCKED: USER
DOCKED: USER
DOCKED: REMARK SMILES O=C(CCCOc1ccc(Cl)cc1Cl)[N-]/N=C/c1cccnc1F
DOCKED: REMARK SMILES IDX 2 1 1 2 15 3 16 4 17 5 18 6 23 7 19 8 22 9 20 10 21 11 24 12
DOCKED: REMARK SMILES IDX 3 13 4 14 5 15 6 16 7 17 8 18 13 19 9 20 12 21 10 22 14 23
DOCKED: REMARK SMILES IDX 11 24
DOCKED: REMARK H PARENT
DOCKED: USER                              x       y       z     vdW  Elec       q    Type
DOCKED: USER                           _______ _______ _______ _____ _____    ______ ____
DOCKED: ROOT
DOCKED: ATOM      1  C   UNL     1     140.405  74.089 221.678 -0.25 -0.01    +0.068 C  
DOCKED: ATOM      2  O   UNL     1     141.307  74.938 221.910 -0.45 +0.05    -0.319 OA 
DOCKED: ENDROOT
DOCKED: BRANCH   1   3
DOCKED: ATOM      3  N   UNL     1     139.940  73.231 222.719 -0.49 +0.05    -0.545 NA 
DOCKED: BRANCH   3   4
DOCKED: ATOM      4  N   UNL     1     140.692  72.124 223.131 -0.24 +0.02    -0.372 NA 
DOCKED: BRANCH   4   5
DOCKED: ATOM      5  C   UNL     1     140.125  71.127 223.732 -0.34 -0.02    +0.099 C  
DOCKED: BRANCH   5   6
DOCKED: ATOM      6  C   UNL     1     140.253  70.929 225.192 -0.49 -0.01    +0.046 A  
DOCKED: ATOM      7  C   UNL     1     139.662  69.841 225.868 -0.31 -0.03    +0.221 A  
DOCKED: ATOM      8  C   UNL     1     140.991  71.859 225.941 -0.57 -0.00    +0.016 A  
DOCKED: ATOM      9  N   UNL     1     139.817  69.710 227.214 -0.31 +0.04    -0.228 NA 
DOCKED: ATOM     10  C   UNL     1     141.132  71.697 227.321 -0.77 -0.00    +0.021 A  
DOCKED: ATOM     11  C   UNL     1     140.531  70.605 227.946 -0.58 -0.02    +0.114 A  
DOCKED: ATOM     12  F   UNL     1     138.936  68.909 225.203 -0.11 +0.02    -0.184 F  
DOCKED: ENDBRANCH   5   6
DOCKED: ENDBRANCH   4   5
DOCKED: ENDBRANCH   3   4
DOCKED: ENDBRANCH   1   3
DOCKED: BRANCH   1  13
DOCKED: ATOM     13  C   UNL     1     139.787  74.008 220.316 -0.12 -0.01    +0.060 C  
DOCKED: BRANCH  13  14
DOCKED: ATOM     14  C   UNL     1     138.601  74.973 220.167 -0.07 -0.01    +0.048 C  
DOCKED: BRANCH  14  15
DOCKED: ATOM     15  C   UNL     1     138.507  76.000 221.307 -0.13 -0.05    +0.230 C  
DOCKED: BRANCH  15  16
DOCKED: ATOM     16  O   UNL     1     138.980  77.292 220.914 -0.00 +0.12    -0.492 OA 
DOCKED: BRANCH  16  17
DOCKED: ATOM     17  C   UNL     1     139.964  78.053 221.570 -0.20 -0.04    +0.137 A  
DOCKED: ATOM     18  C   UNL     1     139.600  78.645 222.787 -0.33 -0.01    +0.049 A  
DOCKED: ATOM     19  C   UNL     1     141.282  78.236 221.082 -0.28 -0.04    +0.084 A  
DOCKED: ATOM     20  C   UNL     1     140.502  79.445 223.491 -0.48 -0.00    +0.024 A  
DOCKED: ATOM     21  C   UNL     1     142.179  79.042 221.798 -0.39 -0.03    +0.045 A  
DOCKED: ATOM     22  C   UNL     1     141.790  79.651 222.993 -0.54 -0.01    +0.042 A  
DOCKED: ATOM     23  Cl  UNL     1     141.907  77.414 219.661 -0.36 +0.05    -0.080 Cl 
DOCKED: ATOM     24  Cl  UNL     1     142.924  80.654 223.879 -0.76 +0.02    -0.084 Cl 
DOCKED: ENDBRANCH  16  17
DOCKED: ENDBRANCH  15  16
DOCKED: ENDBRANCH  14  15
DOCKED: ENDBRANCH  13  14
DOCKED: ENDBRANCH   1  13
DOCKED: TORSDOF 9
DOCKED: TER
DOCKED: ENDMDL
________________________________________________________________________________


    FINAL DOCKED STATE:
    ________________________


Run:   16 / 20
Time taken for this run:   0.042s

DOCKED: MODEL        16
DOCKED: USER    Run = 16
DOCKED: USER
DOCKED: USER    Estimated Free Energy of Binding    =  -6.00 kcal/mol  [=(1)+(2)+(3)-(4)]
DOCKED: USER
DOCKED: USER    (1) Final Intermolecular Energy     =  -8.68 kcal/mol
DOCKED: USER        vdW + Hbond + desolv Energy     =  -8.73 kcal/mol
DOCKED: USER        Electrostatic Energy            =  +0.05 kcal/mol
DOCKED: USER        Moving Ligand-Fixed Receptor    =  -8.68 kcal/mol
DOCKED: USER        Moving Ligand-Moving Receptor   =  +0.00 kcal/mol
DOCKED: USER    (2) Final Total Internal Energy     =  -0.76 kcal/mol
DOCKED: USER    (3) Torsional Free Energy           =  +2.68 kcal/mol
DOCKED: USER    (4) Unbound System's Energy         =  -0.76 kcal/mol
DOCKED: USER
DOCKED: USER
DOCKED: REMARK SMILES O=C(CCCOc1ccc(Cl)cc1Cl)[N-]/N=C/c1cccnc1F
DOCKED: REMARK SMILES IDX 2 1 1 2 15 3 16 4 17 5 18 6 23 7 19 8 22 9 20 10 21 11 24 12
DOCKED: REMARK SMILES IDX 3 13 4 14 5 15 6 16 7 17 8 18 13 19 9 20 12 21 10 22 14 23
DOCKED: REMARK SMILES IDX 11 24
DOCKED: REMARK H PARENT
DOCKED: USER                              x       y       z     vdW  Elec       q    Type
DOCKED: USER                           _______ _______ _______ _____ _____    ______ ____
DOCKED: ROOT
DOCKED: ATOM      1  C   UNL     1     138.698  69.243 223.909 -0.28 -0.01    +0.068 C  
DOCKED: ATOM      2  O   UNL     1     139.656  69.703 223.230 -0.11 +0.06    -0.319 OA 
DOCKED: ENDROOT
DOCKED: BRANCH   1   3
DOCKED: ATOM      3  N   UNL     1     138.789  67.944 224.491 -0.36 -0.00    -0.545 NA 
DOCKED: BRANCH   3   4
DOCKED: ATOM      4  N   UNL     1     139.116  67.779 225.842 -0.65 +0.01    -0.372 NA 
DOCKED: BRANCH   4   5
DOCKED: ATOM      5  C   UNL     1     140.266  68.164 226.295 -0.56 -0.02    +0.099 C  
DOCKED: BRANCH   5   6
DOCKED: ATOM      6  C   UNL     1     140.494  69.553 226.750 -0.52 -0.01    +0.046 A  
DOCKED: ATOM      7  C   UNL     1     140.009  70.039 227.983 -0.44 -0.04    +0.221 A  
DOCKED: ATOM      8  C   UNL     1     141.220  70.427 225.927 -0.55 -0.00    +0.016 A  
DOCKED: ATOM      9  N   UNL     1     140.252  71.327 228.349 -0.46 +0.05    -0.228 NA 
DOCKED: ATOM     10  C   UNL     1     141.453  71.743 226.331 -0.65 -0.00    +0.021 A  
DOCKED: ATOM     11  C   UNL     1     140.956  72.179 227.559 -0.71 -0.03    +0.114 A  
DOCKED: ATOM     12  F   UNL     1     139.299  69.246 228.823 -0.16 +0.02    -0.184 F  
DOCKED: ENDBRANCH   5   6
DOCKED: ENDBRANCH   4   5
DOCKED: ENDBRANCH   3   4
DOCKED: ENDBRANCH   1   3
DOCKED: BRANCH   1  13
DOCKED: ATOM     13  C   UNL     1     137.477  70.079 224.140 -0.25 -0.01    +0.060 C  
DOCKED: BRANCH  13  14
DOCKED: ATOM     14  C   UNL     1     136.351  69.274 224.808 -0.22 -0.00    +0.048 C  
DOCKED: BRANCH  14  15
DOCKED: ATOM     15  C   UNL     1     135.037  70.062 224.941 -0.15 -0.02    +0.230 C  
DOCKED: BRANCH  15  16
DOCKED: ATOM     16  O   UNL     1     135.244  71.476 224.872 -0.03 +0.05    -0.492 OA 
DOCKED: BRANCH  16  17
DOCKED: ATOM     17  C   UNL     1     134.449  72.465 225.477 -0.18 -0.01    +0.137 A  
DOCKED: ATOM     18  C   UNL     1     133.655  72.065 226.562 -0.37 -0.00    +0.049 A  
DOCKED: ATOM     19  C   UNL     1     134.420  73.821 225.067 -0.26 -0.01    +0.084 A  
DOCKED: ATOM     20  C   UNL     1     132.810  72.972 227.203 -0.41 -0.00    +0.024 A  
DOCKED: ATOM     21  C   UNL     1     133.566  74.723 225.718 -0.29 -0.00    +0.045 A  
DOCKED: ATOM     22  C   UNL     1     132.758  74.300 226.776 -0.36 -0.00    +0.042 A  
DOCKED: ATOM     23  Cl  UNL     1     135.486  74.479 223.835 -0.31 +0.02    -0.080 Cl 
DOCKED: ATOM     24  Cl  UNL     1     131.698  75.441 227.583 -0.45 +0.00    -0.084 Cl 
DOCKED: ENDBRANCH  16  17
DOCKED: ENDBRANCH  15  16
DOCKED: ENDBRANCH  14  15
DOCKED: ENDBRANCH  13  14
DOCKED: ENDBRANCH   1  13
DOCKED: TORSDOF 9
DOCKED: TER
DOCKED: ENDMDL
________________________________________________________________________________


    FINAL DOCKED STATE:
    ________________________


Run:   17 / 20
Time taken for this run:   0.042s

DOCKED: MODEL        17
DOCKED: USER    Run = 17
DOCKED: USER
DOCKED: USER    Estimated Free Energy of Binding    =  -6.34 kcal/mol  [=(1)+(2)+(3)-(4)]
DOCKED: USER
DOCKED: USER    (1) Final Intermolecular Energy     =  -9.02 kcal/mol
DOCKED: USER        vdW + Hbond + desolv Energy     =  -8.98 kcal/mol
DOCKED: USER        Electrostatic Energy            =  -0.04 kcal/mol
DOCKED: USER        Moving Ligand-Fixed Receptor    =  -9.02 kcal/mol
DOCKED: USER        Moving Ligand-Moving Receptor   =  +0.00 kcal/mol
DOCKED: USER    (2) Final Total Internal Energy     =  -0.97 kcal/mol
DOCKED: USER    (3) Torsional Free Energy           =  +2.68 kcal/mol
DOCKED: USER    (4) Unbound System's Energy         =  -0.97 kcal/mol
DOCKED: USER
DOCKED: USER
DOCKED: REMARK SMILES O=C(CCCOc1ccc(Cl)cc1Cl)[N-]/N=C/c1cccnc1F
DOCKED: REMARK SMILES IDX 2 1 1 2 15 3 16 4 17 5 18 6 23 7 19 8 22 9 20 10 21 11 24 12
DOCKED: REMARK SMILES IDX 3 13 4 14 5 15 6 16 7 17 8 18 13 19 9 20 12 21 10 22 14 23
DOCKED: REMARK SMILES IDX 11 24
DOCKED: REMARK H PARENT
DOCKED: USER                              x       y       z     vdW  Elec       q    Type
DOCKED: USER                           _______ _______ _______ _____ _____    ______ ____
DOCKED: ROOT
DOCKED: ATOM      1  C   UNL     1     138.532  68.745 223.718 -0.27 -0.01    +0.068 C  
DOCKED: ATOM      2  O   UNL     1     137.285  68.672 223.549 -0.11 +0.03    -0.319 OA 
DOCKED: ENDROOT
DOCKED: BRANCH   1   3
DOCKED: ATOM      3  N   UNL     1     139.193  67.834 224.595 -0.47 +0.03    -0.545 NA 
DOCKED: BRANCH   3   4
DOCKED: ATOM      4  N   UNL     1     138.968  67.870 225.976 -0.57 +0.01    -0.372 NA 
DOCKED: BRANCH   4   5
DOCKED: ATOM      5  C   UNL     1     139.919  68.199 226.792 -0.58 -0.02    +0.099 C  
DOCKED: BRANCH   5   6
DOCKED: ATOM      6  C   UNL     1     140.283  69.613 227.025 -0.54 -0.01    +0.046 A  
DOCKED: ATOM      7  C   UNL     1     141.088  70.350 226.130 -0.39 -0.03    +0.221 A  
DOCKED: ATOM      8  C   UNL     1     139.812  70.255 228.180 -0.60 -0.00    +0.016 A  
DOCKED: ATOM      9  N   UNL     1     141.389  71.650 226.397 -0.45 +0.03    -0.228 NA 
DOCKED: ATOM     10  C   UNL     1     140.137  71.590 228.426 -0.63 -0.01    +0.021 A  
DOCKED: ATOM     11  C   UNL     1     140.935  72.278 227.513 -0.69 -0.03    +0.114 A  
DOCKED: ATOM     12  F   UNL     1     141.577  69.788 224.996 +0.05 +0.03    -0.184 F  
DOCKED: ENDBRANCH   5   6
DOCKED: ENDBRANCH   4   5
DOCKED: ENDBRANCH   3   4
DOCKED: ENDBRANCH   1   3
DOCKED: BRANCH   1  13
DOCKED: ATOM     13  C   UNL     1     139.330  69.764 222.964 -0.19 -0.01    +0.060 C  
DOCKED: BRANCH  13  14
DOCKED: ATOM     14  C   UNL     1     139.073  71.188 223.480 -0.30 -0.01    +0.048 C  
DOCKED: BRANCH  14  15
DOCKED: ATOM     15  C   UNL     1     138.877  72.217 222.354 -0.15 -0.06    +0.230 C  
DOCKED: BRANCH  15  16
DOCKED: ATOM     16  O   UNL     1     139.858  73.257 222.395 -0.62 +0.06    -0.492 OA 
DOCKED: BRANCH  16  17
DOCKED: ATOM     17  C   UNL     1     141.081  73.277 221.701 -0.22 -0.01    +0.137 A  
DOCKED: ATOM     18  C   UNL     1     141.718  72.044 221.504 -0.20 -0.00    +0.049 A  
DOCKED: ATOM     19  C   UNL     1     141.682  74.453 221.186 -0.24 -0.02    +0.084 A  
DOCKED: ATOM     20  C   UNL     1     142.951  71.973 220.854 -0.27 -0.00    +0.024 A  
DOCKED: ATOM     21  C   UNL     1     142.922  74.368 220.536 -0.30 -0.01    +0.045 A  
DOCKED: ATOM     22  C   UNL     1     143.558  73.136 220.377 -0.32 -0.01    +0.042 A  
DOCKED: ATOM     23  Cl  UNL     1     140.906  76.028 221.222 -0.41 +0.03    -0.080 Cl 
DOCKED: ATOM     24  Cl  UNL     1     145.107  73.045 219.558 -0.52 -0.00    -0.084 Cl 
DOCKED: ENDBRANCH  16  17
DOCKED: ENDBRANCH  15  16
DOCKED: ENDBRANCH  14  15
DOCKED: ENDBRANCH  13  14
DOCKED: ENDBRANCH   1  13
DOCKED: TORSDOF 9
DOCKED: TER
DOCKED: ENDMDL
________________________________________________________________________________


    FINAL DOCKED STATE:
    ________________________


Run:   18 / 20
Time taken for this run:   0.042s

DOCKED: MODEL        18
DOCKED: USER    Run = 18
DOCKED: USER
DOCKED: USER    Estimated Free Energy of Binding    =  -5.58 kcal/mol  [=(1)+(2)+(3)-(4)]
DOCKED: USER
DOCKED: USER    (1) Final Intermolecular Energy     =  -8.27 kcal/mol
DOCKED: USER        vdW + Hbond + desolv Energy     =  -8.26 kcal/mol
DOCKED: USER        Electrostatic Energy            =  -0.01 kcal/mol
DOCKED: USER        Moving Ligand-Fixed Receptor    =  -8.27 kcal/mol
DOCKED: USER        Moving Ligand-Moving Receptor   =  +0.00 kcal/mol
DOCKED: USER    (2) Final Total Internal Energy     =  -1.17 kcal/mol
DOCKED: USER    (3) Torsional Free Energy           =  +2.68 kcal/mol
DOCKED: USER    (4) Unbound System's Energy         =  -1.17 kcal/mol
DOCKED: USER
DOCKED: USER
DOCKED: REMARK SMILES O=C(CCCOc1ccc(Cl)cc1Cl)[N-]/N=C/c1cccnc1F
DOCKED: REMARK SMILES IDX 2 1 1 2 15 3 16 4 17 5 18 6 23 7 19 8 22 9 20 10 21 11 24 12
DOCKED: REMARK SMILES IDX 3 13 4 14 5 15 6 16 7 17 8 18 13 19 9 20 12 21 10 22 14 23
DOCKED: REMARK SMILES IDX 11 24
DOCKED: REMARK H PARENT
DOCKED: USER                              x       y       z     vdW  Elec       q    Type
DOCKED: USER                           _______ _______ _______ _____ _____    ______ ____
DOCKED: ROOT
DOCKED: ATOM      1  C   UNL     1     138.681  68.132 223.725 -0.23 -0.01    +0.068 C  
DOCKED: ATOM      2  O   UNL     1     138.083  67.532 222.792 -0.15 +0.04    -0.319 OA 
DOCKED: ENDROOT
DOCKED: BRANCH   1   3
DOCKED: ATOM      3  N   UNL     1     139.255  67.394 224.803 -0.54 -0.01    -0.545 NA 
DOCKED: BRANCH   3   4
DOCKED: ATOM      4  N   UNL     1     138.956  67.710 226.134 -0.58 +0.00    -0.372 NA 
DOCKED: BRANCH   4   5
DOCKED: ATOM      5  C   UNL     1     139.894  68.062 226.955 -0.58 -0.02    +0.099 C  
DOCKED: BRANCH   5   6
DOCKED: ATOM      6  C   UNL     1     140.219  69.485 227.193 -0.55 -0.01    +0.046 A  
DOCKED: ATOM      7  C   UNL     1     141.133  70.202 226.391 -0.38 -0.04    +0.221 A  
DOCKED: ATOM      8  C   UNL     1     139.598  70.155 228.258 -0.59 -0.00    +0.016 A  
DOCKED: ATOM      9  N   UNL     1     141.391  71.511 226.657 -0.45 +0.03    -0.228 NA 
DOCKED: ATOM     10  C   UNL     1     139.883  71.499 228.505 -0.51 -0.00    +0.021 A  
DOCKED: ATOM     11  C   UNL     1     140.792  72.167 227.685 -0.68 -0.03    +0.114 A  
DOCKED: ATOM     12  F   UNL     1     141.767  69.612 225.348 -0.08 +0.03    -0.184 F  
DOCKED: ENDBRANCH   5   6
DOCKED: ENDBRANCH   4   5
DOCKED: ENDBRANCH   3   4
DOCKED: ENDBRANCH   1   3
DOCKED: BRANCH   1  13
DOCKED: ATOM     13  C   UNL     1     138.827  69.623 223.683 -0.26 -0.01    +0.060 C  
DOCKED: BRANCH  13  14
DOCKED: ATOM     14  C   UNL     1     137.797  70.324 224.581 -0.21 -0.01    +0.048 C  
DOCKED: BRANCH  14  15
DOCKED: ATOM     15  C   UNL     1     136.540  69.477 224.840 -0.15 -0.01    +0.230 C  
DOCKED: BRANCH  15  16
DOCKED: ATOM     16  O   UNL     1     135.342  70.148 224.439 -0.05 +0.05    -0.492 OA 
DOCKED: BRANCH  16  17
DOCKED: ATOM     17  C   UNL     1     134.857  71.364 224.951 -0.14 -0.01    +0.137 A  
DOCKED: ATOM     18  C   UNL     1     134.114  71.302 226.138 -0.30 -0.00    +0.049 A  
DOCKED: ATOM     19  C   UNL     1     135.089  72.627 224.350 -0.19 -0.01    +0.084 A  
DOCKED: ATOM     20  C   UNL     1     133.567  72.456 226.701 -0.39 -0.00    +0.024 A  
DOCKED: ATOM     21  C   UNL     1     134.534  73.779 224.924 -0.27 -0.00    +0.045 A  
DOCKED: ATOM     22  C   UNL     1     133.769  73.695 226.090 -0.32 +0.00    +0.042 A  
DOCKED: ATOM     23  Cl  UNL     1     136.139  72.856 222.960 -0.20 +0.02    -0.080 Cl 
DOCKED: ATOM     24  Cl  UNL     1     133.083  75.145 226.799 -0.45 -0.00    -0.084 Cl 
DOCKED: ENDBRANCH  16  17
DOCKED: ENDBRANCH  15  16
DOCKED: ENDBRANCH  14  15
DOCKED: ENDBRANCH  13  14
DOCKED: ENDBRANCH   1  13
DOCKED: TORSDOF 9
DOCKED: TER
DOCKED: ENDMDL
________________________________________________________________________________


    FINAL DOCKED STATE:
    ________________________


Run:   19 / 20
Time taken for this run:   0.042s

DOCKED: MODEL        19
DOCKED: USER    Run = 19
DOCKED: USER
DOCKED: USER    Estimated Free Energy of Binding    =  -6.59 kcal/mol  [=(1)+(2)+(3)-(4)]
DOCKED: USER
DOCKED: USER    (1) Final Intermolecular Energy     =  -9.27 kcal/mol
DOCKED: USER        vdW + Hbond + desolv Energy     =  -9.33 kcal/mol
DOCKED: USER        Electrostatic Energy            =  +0.06 kcal/mol
DOCKED: USER        Moving Ligand-Fixed Receptor    =  -9.27 kcal/mol
DOCKED: USER        Moving Ligand-Moving Receptor   =  +0.00 kcal/mol
DOCKED: USER    (2) Final Total Internal Energy     =  -0.42 kcal/mol
DOCKED: USER    (3) Torsional Free Energy           =  +2.68 kcal/mol
DOCKED: USER    (4) Unbound System's Energy         =  -0.42 kcal/mol
DOCKED: USER
DOCKED: USER
DOCKED: REMARK SMILES O=C(CCCOc1ccc(Cl)cc1Cl)[N-]/N=C/c1cccnc1F
DOCKED: REMARK SMILES IDX 2 1 1 2 15 3 16 4 17 5 18 6 23 7 19 8 22 9 20 10 21 11 24 12
DOCKED: REMARK SMILES IDX 3 13 4 14 5 15 6 16 7 17 8 18 13 19 9 20 12 21 10 22 14 23
DOCKED: REMARK SMILES IDX 11 24
DOCKED: REMARK H PARENT
DOCKED: USER                              x       y       z     vdW  Elec       q    Type
DOCKED: USER                           _______ _______ _______ _____ _____    ______ ____
DOCKED: ROOT
DOCKED: ATOM      1  C   UNL     1     140.624  73.015 221.964 -0.28 -0.01    +0.068 C  
DOCKED: ATOM      2  O   UNL     1     140.010  74.049 222.342 -0.82 +0.01    -0.319 OA 
DOCKED: ENDROOT
DOCKED: BRANCH   1   3
DOCKED: ATOM      3  N   UNL     1     140.301  71.742 222.522 -0.09 +0.07    -0.545 NA 
DOCKED: BRANCH   3   4
DOCKED: ATOM      4  N   UNL     1     139.729  71.637 223.796 -0.18 +0.08    -0.372 NA 
DOCKED: BRANCH   4   5
DOCKED: ATOM      5  C   UNL     1     140.436  71.237 224.805 -0.44 -0.02    +0.099 C  
DOCKED: BRANCH   5   6
DOCKED: ATOM      6  C   UNL     1     140.267  69.885 225.380 -0.43 -0.01    +0.046 A  
DOCKED: ATOM      7  C   UNL     1     139.349  68.946 224.863 -0.26 -0.03    +0.221 A  
DOCKED: ATOM      8  C   UNL     1     141.049  69.514 226.485 -0.54 -0.00    +0.016 A  
DOCKED: ATOM      9  N   UNL     1     139.239  67.716 225.433 -0.82 +0.00    -0.228 NA 
DOCKED: ATOM     10  C   UNL     1     140.913  68.243 227.047 -0.64 -0.01    +0.021 A  
DOCKED: ATOM     11  C   UNL     1     139.994  67.348 226.501 -0.55 -0.02    +0.114 A  
DOCKED: ATOM     12  F   UNL     1     138.563  69.243 223.798 -0.07 +0.03    -0.184 F  
DOCKED: ENDBRANCH   5   6
DOCKED: ENDBRANCH   4   5
DOCKED: ENDBRANCH   3   4
DOCKED: ENDBRANCH   1   3
DOCKED: BRANCH   1  13
DOCKED: ATOM     13  C   UNL     1     141.669  73.115 220.895 -0.24 -0.01    +0.060 C  
DOCKED: BRANCH  13  14
DOCKED: ATOM     14  C   UNL     1     142.253  74.533 220.797 -0.26 -0.01    +0.048 C  
DOCKED: BRANCH  14  15
DOCKED: ATOM     15  C   UNL     1     141.450  75.458 219.866 -0.13 -0.08    +0.230 C  
DOCKED: BRANCH  15  16
DOCKED: ATOM     16  O   UNL     1     140.647  76.393 220.593 -0.04 +0.17    -0.492 OA 
DOCKED: BRANCH  16  17
DOCKED: ATOM     17  C   UNL     1     141.110  77.517 221.299 -0.27 -0.06    +0.137 A  
DOCKED: ATOM     18  C   UNL     1     141.063  77.450 222.699 -0.42 -0.02    +0.049 A  
DOCKED: ATOM     19  C   UNL     1     141.627  78.684 220.683 -0.28 -0.05    +0.084 A  
DOCKED: ATOM     20  C   UNL     1     141.472  78.531 223.481 -0.56 -0.01    +0.024 A  
DOCKED: ATOM     21  C   UNL     1     142.034  79.764 221.479 -0.38 -0.02    +0.045 A  
DOCKED: ATOM     22  C   UNL     1     141.950  79.693 222.871 -0.55 -0.01    +0.042 A  
DOCKED: ATOM     23  Cl  UNL     1     141.892  78.824 218.952 -0.34 +0.05    -0.080 Cl 
DOCKED: ATOM     24  Cl  UNL     1     142.467  81.051 223.854 -0.76 +0.01    -0.084 Cl 
DOCKED: ENDBRANCH  16  17
DOCKED: ENDBRANCH  15  16
DOCKED: ENDBRANCH  14  15
DOCKED: ENDBRANCH  13  14
DOCKED: ENDBRANCH   1  13
DOCKED: TORSDOF 9
DOCKED: TER
DOCKED: ENDMDL
________________________________________________________________________________


    FINAL DOCKED STATE:
    ________________________


Run:   20 / 20
Time taken for this run:   0.042s

DOCKED: MODEL        20
DOCKED: USER    Run = 20
DOCKED: USER
DOCKED: USER    Estimated Free Energy of Binding    =  -6.24 kcal/mol  [=(1)+(2)+(3)-(4)]
DOCKED: USER
DOCKED: USER    (1) Final Intermolecular Energy     =  -8.92 kcal/mol
DOCKED: USER        vdW + Hbond + desolv Energy     =  -8.93 kcal/mol
DOCKED: USER        Electrostatic Energy            =  +0.01 kcal/mol
DOCKED: USER        Moving Ligand-Fixed Receptor    =  -8.92 kcal/mol
DOCKED: USER        Moving Ligand-Moving Receptor   =  +0.00 kcal/mol
DOCKED: USER    (2) Final Total Internal Energy     =  -0.83 kcal/mol
DOCKED: USER    (3) Torsional Free Energy           =  +2.68 kcal/mol
DOCKED: USER    (4) Unbound System's Energy         =  -0.83 kcal/mol
DOCKED: USER
DOCKED: USER
DOCKED: REMARK SMILES O=C(CCCOc1ccc(Cl)cc1Cl)[N-]/N=C/c1cccnc1F
DOCKED: REMARK SMILES IDX 2 1 1 2 15 3 16 4 17 5 18 6 23 7 19 8 22 9 20 10 21 11 24 12
DOCKED: REMARK SMILES IDX 3 13 4 14 5 15 6 16 7 17 8 18 13 19 9 20 12 21 10 22 14 23
DOCKED: REMARK SMILES IDX 11 24
DOCKED: REMARK H PARENT
DOCKED: USER                              x       y       z     vdW  Elec       q    Type
DOCKED: USER                           _______ _______ _______ _____ _____    ______ ____
DOCKED: ROOT
DOCKED: ATOM      1  C   UNL     1     138.520  68.792 224.182 -0.30 -0.01    +0.068 C  
DOCKED: ATOM      2  O   UNL     1     137.301  69.103 224.126 -0.14 +0.02    -0.319 OA 
DOCKED: ENDROOT
DOCKED: BRANCH   1   3
DOCKED: ATOM      3  N   UNL     1     138.931  67.619 224.883 -0.43 -0.05    -0.545 NA 
DOCKED: BRANCH   3   4
DOCKED: ATOM      4  N   UNL     1     140.012  67.651 225.773 -0.35 +0.06    -0.372 NA 
DOCKED: BRANCH   4   5
DOCKED: ATOM      5  C   UNL     1     139.884  68.181 226.948 -0.58 -0.02    +0.099 C  
DOCKED: BRANCH   5   6
DOCKED: ATOM      6  C   UNL     1     140.237  69.595 227.200 -0.55 -0.01    +0.046 A  
DOCKED: ATOM      7  C   UNL     1     139.727  70.323 228.296 -0.40 -0.04    +0.221 A  
DOCKED: ATOM      8  C   UNL     1     141.116  70.244 226.319 -0.56 -0.00    +0.016 A  
DOCKED: ATOM      9  N   UNL     1     140.091  71.622 228.479 -0.43 +0.06    -0.228 NA 
DOCKED: ATOM     10  C   UNL     1     141.470  71.577 226.534 -0.65 -0.00    +0.021 A  
DOCKED: ATOM     11  C   UNL     1     140.942  72.256 227.631 -0.70 -0.03    +0.114 A  
DOCKED: ATOM     12  F   UNL     1     138.873  69.755 229.183 -0.14 +0.02    -0.184 F  
DOCKED: ENDBRANCH   5   6
DOCKED: ENDBRANCH   4   5
DOCKED: ENDBRANCH   3   4
DOCKED: ENDBRANCH   1   3
DOCKED: BRANCH   1  13
DOCKED: ATOM     13  C   UNL     1     139.540  69.632 223.476 -0.19 -0.01    +0.060 C  
DOCKED: BRANCH  13  14
DOCKED: ATOM     14  C   UNL     1     139.331  71.131 223.745 -0.34 -0.01    +0.048 C  
DOCKED: BRANCH  14  15
DOCKED: ATOM     15  C   UNL     1     139.299  71.980 222.464 -0.19 -0.05    +0.230 C  
DOCKED: BRANCH  15  16
DOCKED: ATOM     16  O   UNL     1     139.703  73.332 222.699 -0.58 +0.07    -0.492 OA 
DOCKED: BRANCH  16  17
DOCKED: ATOM     17  C   UNL     1     140.498  74.124 221.852 -0.19 -0.01    +0.137 A  
DOCKED: ATOM     18  C   UNL     1     141.514  73.470 221.141 -0.26 -0.01    +0.049 A  
DOCKED: ATOM     19  C   UNL     1     140.319  75.518 221.670 -0.31 -0.02    +0.084 A  
DOCKED: ATOM     20  C   UNL     1     142.372  74.182 220.301 -0.27 -0.01    +0.024 A  
DOCKED: ATOM     21  C   UNL     1     141.188  76.223 220.825 -0.28 -0.02    +0.045 A  
DOCKED: ATOM     22  C   UNL     1     142.215  75.561 220.149 -0.28 -0.02    +0.042 A  
DOCKED: ATOM     23  Cl  UNL     1     138.984  76.419 222.372 -0.38 +0.02    -0.080 Cl 
DOCKED: ATOM     24  Cl  UNL     1     143.292  76.455 219.092 -0.46 +0.05    -0.084 Cl 
DOCKED: ENDBRANCH  16  17
DOCKED: ENDBRANCH  15  16
DOCKED: ENDBRANCH  14  15
DOCKED: ENDBRANCH  13  14
DOCKED: ENDBRANCH   1  13
DOCKED: TORSDOF 9
DOCKED: TER
DOCKED: ENDMDL
________________________________________________________________________________


    CLUSTERING HISTOGRAM
    ____________________


________________________________________________________________________________
     |           |     |           |     |
Clus | Lowest    | Run | Mean      | Num | Histogram
-ter | Binding   |     | Binding   | in  |
Rank | Energy    |     | Energy    | Clus|    5    10   15   20   25   30   35
_____|___________|_____|___________|_____|____:____|____:____|____:____|____:___
   1 |     -6.59 |  19 |     -6.20 |   7 |#######
   2 |     -6.58 |   3 |     -6.58 |   1 |#
   3 |     -6.39 |   6 |     -6.29 |   5 |#####
   4 |     -6.25 |  12 |     -6.25 |   1 |#
   5 |     -6.18 |   7 |     -6.10 |   2 |##
   6 |     -6.14 |  10 |     -6.14 |   1 |#
   7 |     -6.00 |  16 |     -5.79 |   2 |##
   8 |     -5.12 |   5 |     -5.12 |   1 |#
_____|___________|_____|___________|_____|______________________________________


    RMSD TABLE
    __________


_______________________________________________________________________
     |      |      |           |         |                 |
Rank | Sub- | Run  | Binding   | Cluster | Reference       | Grep
     | Rank |      | Energy    | RMSD    | RMSD            | Pattern
_____|______|______|___________|_________|_________________|___________
   1      1     19       -6.59      0.00    270.42           RANKING
   1      2     14       -6.57      1.57    271.04           RANKING
   1      3      8       -6.28      1.35    270.87           RANKING
   1      4      9       -6.15      1.80    271.07           RANKING
   1      5     11       -6.11      1.96    270.89           RANKING
   1      6      1       -5.87      1.23    270.62           RANKING
   1      7     15       -5.84      1.73    270.59           RANKING
   2      1      3       -6.58      0.00    269.49           RANKING
   3      1      6       -6.39      0.00    270.34           RANKING
   3      2      2       -6.38      1.21    270.38           RANKING
   3      3     17       -6.34      0.54    270.30           RANKING
   3      4     20       -6.24      1.61    270.49           RANKING
   3      5     13       -6.08      1.22    270.41           RANKING
   4      1     12       -6.25      0.00    270.94           RANKING
   5      1      7       -6.18      0.00    270.75           RANKING
   5      2      4       -6.01      1.38    271.03           RANKING
   6      1     10       -6.14      0.00    269.33           RANKING
   7      1     16       -6.00      0.00    270.24           RANKING
   7      2     18       -5.58      1.45    270.05           RANKING
   8      1      5       -5.12      0.00    269.92           RANKING

Run time 0.811 sec
Idle time 0.000 sec
