AutoDock-GPU version: v1.6

**********************************************************
**    AutoDock-GPU AUTODOCKTOOLS-COMPATIBLE DLG FILE    **
**********************************************************


    DOCKING PARAMETERS
    ________________________


Ligand file:                               /home/a/REINVENT4/ReinventStudies/scoringData/graph-dock-h4r84i/graph-DockGPU/node-autodockgpu/inputs/AQNDWTVLZSMOQU-FMIVXFBMNA-N.pdbqt
Grid fld file:                             /home/a/REINVENT4/ReinventStudies/mols/Rad51/maps/rad51_receptor.maps.fld

Random seed:                               42
Number of runs:                            20
Number of energy evaluations:              1132076
Number of generations:                     42000
Size of population:                        150
Rate of crossover:                         80.000000%
Tournament selection probability limit:    60.000000%
Rate of mutation:                          2.000000%
Maximal allowed delta movement:            +/- 6.000000A
Maximal allowed delta angle:               +/- 90.000000

Rate of local search:                      100.000000%
Maximal number of local search iterations: 300
Rho lower bound:                           0.010000
Spread of local search delta movement:     2.000000A
Spread of local search delta angle:        74.999999
Limit of consecutive successes/failures:   4

Handle symmetry during clustering:         YES
RMSD tolerance:                            2.000000A

Program call in command line was:          /home/a/REINVENT4/ReinventStudies/adgpu-v1.6_linux_x64_cuda12_128wi --filelist batch.txt --heuristics 1 --nrun 20 --psize 150 --lsit 300 --seed 42 --heurmax 12000000 


    GRID PARAMETERS
    ________________________


Receptor name:                             rad51_receptor
Number of grid points (x, y, z):           53, 53, 53
Grid center (x, y, z):                     139.950000, 75.640000, 221.970000A
Grid size (x, y, z):                       19.500000, 19.500000, 19.500000A
Grid spacing:                              0.375000A


    LIGAND PARAMETERS
    ________________________


Ligand name:                               /home/a/REINVENT4/ReinventStudies/scoringData/graph-dock-h4r84i/graph-DockGPU/node-autodockgpu/inputs/AQNDWTVLZSMOQU-FMIVXFBMNA-N
Number of atoms:                           27
Number of rotatable bonds:                 5
Number of atom types:                      6


    DUMMY DATA (only for ADT-compatibility)
    ________________________


DPF> outlev 1
DPF> ga_run 20
DPF> fld /home/a/REINVENT4/ReinventStudies/mols/Rad51/maps/rad51_receptor.maps.fld
DPF> move /home/a/REINVENT4/ReinventStudies/scoringData/graph-dock-h4r84i/graph-DockGPU/node-autodockgpu/inputs/AQNDWTVLZSMOQU-FMIVXFBMNA-N.pdbqt


    COUNTER STATES
    ________________________


Number of energy evaluations performed:    523625
Number of generations used:                25


    INPUT LIGAND PDBQT FILE:
    ________________________


INPUT-LIGAND-PDBQT: REMARK SMILES O=c1c2ccccc2nc(/C=C/c2cccnc2)n1Cc1ccc(Cl)cc1
INPUT-LIGAND-PDBQT: REMARK SMILES IDX 10 1 9 2 8 3 7 4 6 5 5 6 4 7 3 8 2 9 1 10 19 11 11 12 12 13
INPUT-LIGAND-PDBQT: REMARK SMILES IDX 13 14 18 15 14 16 17 17 15 18 16 19 20 20 21 21 22 22 27 23
INPUT-LIGAND-PDBQT: REMARK SMILES IDX 23 24 26 25 24 26 25 27
INPUT-LIGAND-PDBQT: REMARK H PARENT
INPUT-LIGAND-PDBQT: ROOT
INPUT-LIGAND-PDBQT: ATOM      1  C   UNL     1       1.472   0.345   0.451  1.00  0.00     0.136 A 
INPUT-LIGAND-PDBQT: ATOM      2  N   UNL     1       2.429  -0.441   1.008  1.00  0.00    -0.230 NA
INPUT-LIGAND-PDBQT: ATOM      3  C   UNL     1       2.722  -0.380   2.326  1.00  0.00     0.078 A 
INPUT-LIGAND-PDBQT: ATOM      4  C   UNL     1       3.728  -1.199   2.858  1.00  0.00     0.029 A 
INPUT-LIGAND-PDBQT: ATOM      5  C   UNL     1       4.040  -1.128   4.218  1.00  0.00     0.002 A 
INPUT-LIGAND-PDBQT: ATOM      6  C   UNL     1       3.346  -0.245   5.050  1.00  0.00     0.001 A 
INPUT-LIGAND-PDBQT: ATOM      7  C   UNL     1       2.337   0.571   4.527  1.00  0.00     0.016 A 
INPUT-LIGAND-PDBQT: ATOM      8  C   UNL     1       2.019   0.510   3.156  1.00  0.00     0.066 A 
INPUT-LIGAND-PDBQT: ATOM      9  C   UNL     1       1.016   1.308   2.578  1.00  0.00     0.261 A 
INPUT-LIGAND-PDBQT: ATOM     10  O   UNL     1       0.361   2.101   3.310  1.00  0.00    -0.269 OA
INPUT-LIGAND-PDBQT: ATOM     11  N   UNL     1       0.749   1.221   1.230  1.00  0.00    -0.288 N 
INPUT-LIGAND-PDBQT: ENDROOT
INPUT-LIGAND-PDBQT: BRANCH   1  12
INPUT-LIGAND-PDBQT: ATOM     12  C   UNL     1       1.238   0.217  -0.997  1.00  0.00     0.048 C 
INPUT-LIGAND-PDBQT: BRANCH  12  13
INPUT-LIGAND-PDBQT: ATOM     13  C   UNL     1       0.713  -0.904  -1.501  1.00  0.00     0.013 C 
INPUT-LIGAND-PDBQT: BRANCH  13  14
INPUT-LIGAND-PDBQT: ATOM     14  C   UNL     1       0.434  -1.081  -2.940  1.00  0.00    -0.007 A 
INPUT-LIGAND-PDBQT: ATOM     15  C   UNL     1       1.247  -0.498  -3.930  1.00  0.00     0.119 A 
INPUT-LIGAND-PDBQT: ATOM     16  C   UNL     1      -0.629  -1.903  -3.343  1.00  0.00     0.011 A 
INPUT-LIGAND-PDBQT: ATOM     17  N   UNL     1       1.001  -0.740  -5.247  1.00  0.00    -0.264 NA
INPUT-LIGAND-PDBQT: ATOM     18  C   UNL     1      -0.870  -2.119  -4.703  1.00  0.00     0.021 A 
INPUT-LIGAND-PDBQT: ATOM     19  C   UNL     1      -0.035  -1.525  -5.650  1.00  0.00     0.111 A 
INPUT-LIGAND-PDBQT: ENDBRANCH  13  14
INPUT-LIGAND-PDBQT: ENDBRANCH  12  13
INPUT-LIGAND-PDBQT: ENDBRANCH   1  12
INPUT-LIGAND-PDBQT: BRANCH  11  20
INPUT-LIGAND-PDBQT: ATOM     20  C   UNL     1      -0.338   2.030   0.628  1.00  0.00     0.163 C 
INPUT-LIGAND-PDBQT: BRANCH  20  21
INPUT-LIGAND-PDBQT: ATOM     21  C   UNL     1      -1.464   1.151   0.140  1.00  0.00    -0.028 A 
INPUT-LIGAND-PDBQT: ATOM     22  C   UNL     1      -2.004   0.156   0.972  1.00  0.00     0.007 A 
INPUT-LIGAND-PDBQT: ATOM     23  C   UNL     1      -1.953   1.292  -1.173  1.00  0.00     0.007 A 
INPUT-LIGAND-PDBQT: ATOM     24  C   UNL     1      -2.990  -0.708   0.487  1.00  0.00     0.021 A 
INPUT-LIGAND-PDBQT: ATOM     25  C   UNL     1      -2.932   0.422  -1.654  1.00  0.00     0.021 A 
INPUT-LIGAND-PDBQT: ATOM     26  C   UNL     1      -3.450  -0.580  -0.826  1.00  0.00     0.041 A 
INPUT-LIGAND-PDBQT: ATOM     27  Cl  UNL     1      -4.665  -1.684  -1.442  1.00  0.00    -0.084 Cl
INPUT-LIGAND-PDBQT: ENDBRANCH  20  21
INPUT-LIGAND-PDBQT: ENDBRANCH  11  20
INPUT-LIGAND-PDBQT: TORSDOF 5


    FINAL DOCKED STATE:
    ________________________


Run:   1 / 20
Time taken for this run:   0.019s

DOCKED: MODEL        1
DOCKED: USER    Run = 1
DOCKED: USER
DOCKED: USER    Estimated Free Energy of Binding    =  -7.61 kcal/mol  [=(1)+(2)+(3)-(4)]
DOCKED: USER
DOCKED: USER    (1) Final Intermolecular Energy     =  -9.10 kcal/mol
DOCKED: USER        vdW + Hbond + desolv Energy     =  -8.94 kcal/mol
DOCKED: USER        Electrostatic Energy            =  -0.17 kcal/mol
DOCKED: USER        Moving Ligand-Fixed Receptor    =  -9.10 kcal/mol
DOCKED: USER        Moving Ligand-Moving Receptor   =  +0.00 kcal/mol
DOCKED: USER    (2) Final Total Internal Energy     =  -1.25 kcal/mol
DOCKED: USER    (3) Torsional Free Energy           =  +1.49 kcal/mol
DOCKED: USER    (4) Unbound System's Energy         =  -1.25 kcal/mol
DOCKED: USER
DOCKED: USER
DOCKED: REMARK SMILES O=c1c2ccccc2nc(/C=C/c2cccnc2)n1Cc1ccc(Cl)cc1
DOCKED: REMARK SMILES IDX 10 1 9 2 8 3 7 4 6 5 5 6 4 7 3 8 2 9 1 10 19 11 11 12 12 13
DOCKED: REMARK SMILES IDX 13 14 18 15 14 16 17 17 15 18 16 19 20 20 21 21 22 22 27 23
DOCKED: REMARK SMILES IDX 23 24 26 25 24 26 25 27
DOCKED: REMARK H PARENT
DOCKED: USER                              x       y       z     vdW  Elec       q    Type
DOCKED: USER                           _______ _______ _______ _____ _____    ______ ____
DOCKED: ROOT
DOCKED: ATOM      1  C   UNL     1     141.149  72.911 221.398 -0.22 -0.01    +0.136 A  
DOCKED: ATOM      2  N   UNL     1     141.620  74.176 221.248 -0.22 +0.04    -0.230 NA 
DOCKED: ATOM      3  C   UNL     1     140.831  75.256 221.438 -0.31 -0.02    +0.078 A  
DOCKED: ATOM      4  C   UNL     1     141.354  76.545 221.258 -0.27 -0.01    +0.029 A  
DOCKED: ATOM      5  C   UNL     1     140.536  77.662 221.442 -0.30 -0.00    +0.002 A  
DOCKED: ATOM      6  C   UNL     1     139.198  77.497 221.811 -0.25 -0.00    +0.001 A  
DOCKED: ATOM      7  C   UNL     1     138.671  76.215 221.998 -0.28 -0.00    +0.016 A  
DOCKED: ATOM      8  C   UNL     1     139.487  75.082 221.810 -0.27 -0.01    +0.066 A  
DOCKED: ATOM      9  C   UNL     1     139.009  73.771 221.983 -0.14 -0.06    +0.261 A  
DOCKED: ATOM     10  O   UNL     1     137.810  73.593 222.334 -0.10 +0.10    -0.269 OA 
DOCKED: ATOM     11  N   UNL     1     139.842  72.694 221.775 -0.15 +0.05    -0.288 N  
DOCKED: ENDROOT
DOCKED: BRANCH   1  12
DOCKED: ATOM     12  C   UNL     1     142.082  71.799 221.152 -0.17 -0.00    +0.048 C  
DOCKED: BRANCH  12  13
DOCKED: ATOM     13  C   UNL     1     142.875  71.806 220.076 -0.22 -0.00    +0.013 C  
DOCKED: BRANCH  13  14
DOCKED: ATOM     14  C   UNL     1     144.216  72.425 220.075 -0.34 +0.00    -0.007 A  
DOCKED: ATOM     15  C   UNL     1     145.053  72.377 218.944 -0.23 +0.03    +0.119 A  
DOCKED: ATOM     16  C   UNL     1     144.651  73.137 221.202 -0.37 -0.00    +0.011 A  
DOCKED: ATOM     17  N   UNL     1     146.254  73.018 218.955 -0.69 -0.26    -0.264 NA 
DOCKED: ATOM     18  C   UNL     1     145.898  73.770 221.192 -0.69 -0.00    +0.021 A  
DOCKED: ATOM     19  C   UNL     1     146.692  73.701 220.047 -0.28 +0.03    +0.111 A  
DOCKED: ENDBRANCH  13  14
DOCKED: ENDBRANCH  12  13
DOCKED: ENDBRANCH   1  12
DOCKED: BRANCH  11  20
DOCKED: ATOM     20  C   UNL     1     139.351  71.313 222.000 -0.16 -0.03    +0.163 C  
DOCKED: BRANCH  20  21
DOCKED: ATOM     21  C   UNL     1     139.565  70.886 223.432 -0.32 +0.01    -0.028 A  
DOCKED: ATOM     22  C   UNL     1     140.448  71.595 224.263 -0.43 -0.00    +0.007 A  
DOCKED: ATOM     23  C   UNL     1     138.912  69.743 223.934 -0.30 -0.00    +0.007 A  
DOCKED: ATOM     24  C   UNL     1     140.704  71.147 225.563 -0.58 -0.00    +0.021 A  
DOCKED: ATOM     25  C   UNL     1     139.177  69.297 225.229 -0.40 -0.00    +0.021 A  
DOCKED: ATOM     26  C   UNL     1     140.074  69.996 226.044 -0.48 -0.01    +0.041 A  
DOCKED: ATOM     27  Cl  UNL     1     140.419  69.419 227.663 -0.78 +0.02    -0.084 Cl 
DOCKED: ENDBRANCH  20  21
DOCKED: ENDBRANCH  11  20
DOCKED: TORSDOF 5
DOCKED: TER
DOCKED: ENDMDL
________________________________________________________________________________


    FINAL DOCKED STATE:
    ________________________


Run:   2 / 20
Time taken for this run:   0.019s

DOCKED: MODEL        2
DOCKED: USER    Run = 2
DOCKED: USER
DOCKED: USER    Estimated Free Energy of Binding    =  -7.49 kcal/mol  [=(1)+(2)+(3)-(4)]
DOCKED: USER
DOCKED: USER    (1) Final Intermolecular Energy     =  -8.98 kcal/mol
DOCKED: USER        vdW + Hbond + desolv Energy     =  -8.84 kcal/mol
DOCKED: USER        Electrostatic Energy            =  -0.14 kcal/mol
DOCKED: USER        Moving Ligand-Fixed Receptor    =  -8.98 kcal/mol
DOCKED: USER        Moving Ligand-Moving Receptor   =  +0.00 kcal/mol
DOCKED: USER    (2) Final Total Internal Energy     =  -1.31 kcal/mol
DOCKED: USER    (3) Torsional Free Energy           =  +1.49 kcal/mol
DOCKED: USER    (4) Unbound System's Energy         =  -1.31 kcal/mol
DOCKED: USER
DOCKED: USER
DOCKED: REMARK SMILES O=c1c2ccccc2nc(/C=C/c2cccnc2)n1Cc1ccc(Cl)cc1
DOCKED: REMARK SMILES IDX 10 1 9 2 8 3 7 4 6 5 5 6 4 7 3 8 2 9 1 10 19 11 11 12 12 13
DOCKED: REMARK SMILES IDX 13 14 18 15 14 16 17 17 15 18 16 19 20 20 21 21 22 22 27 23
DOCKED: REMARK SMILES IDX 23 24 26 25 24 26 25 27
DOCKED: REMARK H PARENT
DOCKED: USER                              x       y       z     vdW  Elec       q    Type
DOCKED: USER                           _______ _______ _______ _____ _____    ______ ____
DOCKED: ROOT
DOCKED: ATOM      1  C   UNL     1     141.313  72.783 221.189 -0.21 -0.02    +0.136 A  
DOCKED: ATOM      2  N   UNL     1     141.876  73.983 220.894 -0.18 +0.05    -0.230 NA 
DOCKED: ATOM      3  C   UNL     1     141.204  75.144 221.057 -0.28 -0.02    +0.078 A  
DOCKED: ATOM      4  C   UNL     1     141.818  76.361 220.726 -0.22 -0.02    +0.029 A  
DOCKED: ATOM      5  C   UNL     1     141.120  77.561 220.882 -0.30 -0.00    +0.002 A  
DOCKED: ATOM      6  C   UNL     1     139.811  77.550 221.373 -0.23 -0.00    +0.001 A  
DOCKED: ATOM      7  C   UNL     1     139.194  76.340 221.710 -0.27 -0.00    +0.016 A  
DOCKED: ATOM      8  C   UNL     1     139.889  75.125 221.551 -0.28 -0.01    +0.066 A  
DOCKED: ATOM      9  C   UNL     1     139.316  73.882 221.872 -0.17 -0.05    +0.261 A  
DOCKED: ATOM     10  O   UNL     1     138.142  73.844 222.334 -0.10 +0.10    -0.269 OA 
DOCKED: ATOM     11  N   UNL     1     140.031  72.719 221.689 -0.15 +0.04    -0.288 N  
DOCKED: ENDROOT
DOCKED: BRANCH   1  12
DOCKED: ATOM     12  C   UNL     1     142.120  71.573 220.962 -0.14 -0.01    +0.048 C  
DOCKED: BRANCH  12  13
DOCKED: ATOM     13  C   UNL     1     143.006  71.529 219.962 -0.21 -0.00    +0.013 C  
DOCKED: BRANCH  13  14
DOCKED: ATOM     14  C   UNL     1     144.294  72.250 220.000 -0.33 +0.00    -0.007 A  
DOCKED: ATOM     15  C   UNL     1     145.103  72.382 218.857 -0.23 +0.04    +0.119 A  
DOCKED: ATOM     16  C   UNL     1     144.699  72.880 221.186 -0.38 -0.00    +0.011 A  
DOCKED: ATOM     17  N   UNL     1     146.250  73.114 218.911 -0.67 -0.24    -0.264 NA 
DOCKED: ATOM     18  C   UNL     1     145.891  73.610 221.219 -0.70 -0.00    +0.021 A  
DOCKED: ATOM     19  C   UNL     1     146.660  73.719 220.060 -0.30 +0.03    +0.111 A  
DOCKED: ENDBRANCH  13  14
DOCKED: ENDBRANCH  12  13
DOCKED: ENDBRANCH   1  12
DOCKED: BRANCH  11  20
DOCKED: ATOM     20  C   UNL     1     139.445  71.411 222.069 -0.17 -0.03    +0.163 C  
DOCKED: BRANCH  20  21
DOCKED: ATOM     21  C   UNL     1     139.685  71.111 223.528 -0.35 +0.01    -0.028 A  
DOCKED: ATOM     22  C   UNL     1     140.652  71.826 224.254 -0.36 -0.00    +0.007 A  
DOCKED: ATOM     23  C   UNL     1     138.971  70.077 224.164 -0.33 -0.00    +0.007 A  
DOCKED: ATOM     24  C   UNL     1     140.927  71.488 225.582 -0.58 -0.00    +0.021 A  
DOCKED: ATOM     25  C   UNL     1     139.255  69.739 225.488 -0.41 -0.00    +0.021 A  
DOCKED: ATOM     26  C   UNL     1     140.235  70.443 226.198 -0.52 -0.01    +0.041 A  
DOCKED: ATOM     27  Cl  UNL     1     140.603  70.001 227.854 -0.78 +0.02    -0.084 Cl 
DOCKED: ENDBRANCH  20  21
DOCKED: ENDBRANCH  11  20
DOCKED: TORSDOF 5
DOCKED: TER
DOCKED: ENDMDL
________________________________________________________________________________


    FINAL DOCKED STATE:
    ________________________


Run:   3 / 20
Time taken for this run:   0.019s

DOCKED: MODEL        3
DOCKED: USER    Run = 3
DOCKED: USER
DOCKED: USER    Estimated Free Energy of Binding    =  -7.42 kcal/mol  [=(1)+(2)+(3)-(4)]
DOCKED: USER
DOCKED: USER    (1) Final Intermolecular Energy     =  -8.91 kcal/mol
DOCKED: USER        vdW + Hbond + desolv Energy     =  -8.85 kcal/mol
DOCKED: USER        Electrostatic Energy            =  -0.07 kcal/mol
DOCKED: USER        Moving Ligand-Fixed Receptor    =  -8.91 kcal/mol
DOCKED: USER        Moving Ligand-Moving Receptor   =  +0.00 kcal/mol
DOCKED: USER    (2) Final Total Internal Energy     =  -1.20 kcal/mol
DOCKED: USER    (3) Torsional Free Energy           =  +1.49 kcal/mol
DOCKED: USER    (4) Unbound System's Energy         =  -1.20 kcal/mol
DOCKED: USER
DOCKED: USER
DOCKED: REMARK SMILES O=c1c2ccccc2nc(/C=C/c2cccnc2)n1Cc1ccc(Cl)cc1
DOCKED: REMARK SMILES IDX 10 1 9 2 8 3 7 4 6 5 5 6 4 7 3 8 2 9 1 10 19 11 11 12 12 13
DOCKED: REMARK SMILES IDX 13 14 18 15 14 16 17 17 15 18 16 19 20 20 21 21 22 22 27 23
DOCKED: REMARK SMILES IDX 23 24 26 25 24 26 25 27
DOCKED: REMARK H PARENT
DOCKED: USER                              x       y       z     vdW  Elec       q    Type
DOCKED: USER                           _______ _______ _______ _____ _____    ______ ____
DOCKED: ROOT
DOCKED: ATOM      1  C   UNL     1     139.605  70.368 223.471 -0.23 -0.02    +0.136 A  
DOCKED: ATOM      2  N   UNL     1     140.133  71.250 224.358 -0.29 +0.04    -0.230 NA 
DOCKED: ATOM      3  C   UNL     1     140.340  70.921 225.652 -0.51 -0.01    +0.078 A  
DOCKED: ATOM      4  C   UNL     1     140.875  71.867 226.538 -0.67 -0.00    +0.029 A  
DOCKED: ATOM      5  C   UNL     1     141.078  71.531 227.879 -0.81 -0.00    +0.002 A  
DOCKED: ATOM      6  C   UNL     1     140.754  70.251 228.337 -0.57 -0.00    +0.001 A  
DOCKED: ATOM      7  C   UNL     1     140.226  69.300 227.457 -0.60 -0.00    +0.016 A  
DOCKED: ATOM      8  C   UNL     1     140.013  69.631 226.105 -0.45 -0.01    +0.066 A  
DOCKED: ATOM      9  C   UNL     1     139.483  68.715 225.178 -0.26 -0.04    +0.261 A  
DOCKED: ATOM     10  O   UNL     1     139.199  67.546 225.561 -0.90 -0.00    -0.269 OA 
DOCKED: ATOM     11  N   UNL     1     139.282  69.089 223.868 -0.12 +0.05    -0.288 N  
DOCKED: ENDROOT
DOCKED: BRANCH   1  12
DOCKED: ATOM     12  C   UNL     1     139.401  70.827 222.087 -0.19 -0.01    +0.048 C  
DOCKED: BRANCH  12  13
DOCKED: ATOM     13  C   UNL     1     140.396  71.416 221.417 -0.19 -0.00    +0.013 C  
DOCKED: BRANCH  13  14
DOCKED: ATOM     14  C   UNL     1     140.604  72.878 221.413 -0.26 +0.00    -0.007 A  
DOCKED: ATOM     15  C   UNL     1     139.689  73.758 222.021 -0.22 -0.02    +0.119 A  
DOCKED: ATOM     16  C   UNL     1     141.772  73.410 220.847 -0.27 -0.00    +0.011 A  
DOCKED: ATOM     17  N   UNL     1     139.948  75.094 222.060 -0.61 +0.03    -0.264 NA 
DOCKED: ATOM     18  C   UNL     1     142.003  74.788 220.884 -0.29 -0.01    +0.021 A  
DOCKED: ATOM     19  C   UNL     1     141.071  75.623 221.503 -0.31 -0.03    +0.111 A  
DOCKED: ENDBRANCH  13  14
DOCKED: ENDBRANCH  12  13
DOCKED: ENDBRANCH   1  12
DOCKED: BRANCH  11  20
DOCKED: ATOM     20  C   UNL     1     138.765  68.111 222.881 -0.19 -0.03    +0.163 C  
DOCKED: BRANCH  20  21
DOCKED: ATOM     21  C   UNL     1     137.257  68.141 222.825 -0.13 +0.00    -0.028 A  
DOCKED: ATOM     22  C   UNL     1     136.529  69.015 223.649 -0.19 -0.00    +0.007 A  
DOCKED: ATOM     23  C   UNL     1     136.563  67.258 221.974 -0.14 -0.00    +0.007 A  
DOCKED: ATOM     24  C   UNL     1     135.132  68.981 223.652 -0.15 -0.00    +0.021 A  
DOCKED: ATOM     25  C   UNL     1     135.169  67.223 221.986 -0.12 -0.00    +0.021 A  
DOCKED: ATOM     26  C   UNL     1     134.451  68.082 222.826 -0.11 -0.00    +0.041 A  
DOCKED: ATOM     27  Cl  UNL     1     132.699  68.020 222.852 -0.07 +0.01    -0.084 Cl 
DOCKED: ENDBRANCH  20  21
DOCKED: ENDBRANCH  11  20
DOCKED: TORSDOF 5
DOCKED: TER
DOCKED: ENDMDL
________________________________________________________________________________


    FINAL DOCKED STATE:
    ________________________


Run:   4 / 20
Time taken for this run:   0.019s

DOCKED: MODEL        4
DOCKED: USER    Run = 4
DOCKED: USER
DOCKED: USER    Estimated Free Energy of Binding    =  -7.45 kcal/mol  [=(1)+(2)+(3)-(4)]
DOCKED: USER
DOCKED: USER    (1) Final Intermolecular Energy     =  -8.94 kcal/mol
DOCKED: USER        vdW + Hbond + desolv Energy     =  -8.75 kcal/mol
DOCKED: USER        Electrostatic Energy            =  -0.19 kcal/mol
DOCKED: USER        Moving Ligand-Fixed Receptor    =  -8.94 kcal/mol
DOCKED: USER        Moving Ligand-Moving Receptor   =  +0.00 kcal/mol
DOCKED: USER    (2) Final Total Internal Energy     =  -1.32 kcal/mol
DOCKED: USER    (3) Torsional Free Energy           =  +1.49 kcal/mol
DOCKED: USER    (4) Unbound System's Energy         =  -1.32 kcal/mol
DOCKED: USER
DOCKED: USER
DOCKED: REMARK SMILES O=c1c2ccccc2nc(/C=C/c2cccnc2)n1Cc1ccc(Cl)cc1
DOCKED: REMARK SMILES IDX 10 1 9 2 8 3 7 4 6 5 5 6 4 7 3 8 2 9 1 10 19 11 11 12 12 13
DOCKED: REMARK SMILES IDX 13 14 18 15 14 16 17 17 15 18 16 19 20 20 21 21 22 22 27 23
DOCKED: REMARK SMILES IDX 23 24 26 25 24 26 25 27
DOCKED: REMARK H PARENT
DOCKED: USER                              x       y       z     vdW  Elec       q    Type
DOCKED: USER                           _______ _______ _______ _____ _____    ______ ____
DOCKED: ROOT
DOCKED: ATOM      1  C   UNL     1     141.467  75.055 220.718 -0.23 -0.04    +0.136 A  
DOCKED: ATOM      2  N   UNL     1     141.693  73.766 221.080 -0.19 +0.04    -0.230 NA 
DOCKED: ATOM      3  C   UNL     1     140.718  72.994 221.609 -0.26 -0.01    +0.078 A  
DOCKED: ATOM      4  C   UNL     1     140.997  71.671 221.982 -0.22 -0.00    +0.029 A  
DOCKED: ATOM      5  C   UNL     1     139.994  70.876 222.541 -0.24 -0.00    +0.002 A  
DOCKED: ATOM      6  C   UNL     1     138.709  71.396 222.722 -0.23 -0.00    +0.001 A  
DOCKED: ATOM      7  C   UNL     1     138.422  72.713 222.347 -0.14 -0.01    +0.016 A  
DOCKED: ATOM      8  C   UNL     1     139.429  73.524 221.788 -0.23 -0.01    +0.066 A  
DOCKED: ATOM      9  C   UNL     1     139.195  74.853 221.395 -0.16 -0.06    +0.261 A  
DOCKED: ATOM     10  O   UNL     1     138.039  75.343 221.531 -0.12 +0.06    -0.269 OA 
DOCKED: ATOM     11  N   UNL     1     140.215  75.611 220.863 -0.11 +0.07    -0.288 N  
DOCKED: ENDROOT
DOCKED: BRANCH   1  12
DOCKED: ATOM     12  C   UNL     1     142.598  75.820 220.167 -0.24 -0.03    +0.048 C  
DOCKED: BRANCH  12  13
DOCKED: ATOM     13  C   UNL     1     143.397  75.275 219.245 -0.34 -0.01    +0.013 C  
DOCKED: BRANCH  13  14
DOCKED: ATOM     14  C   UNL     1     144.381  74.220 219.560 -0.35 +0.00    -0.007 A  
DOCKED: ATOM     15  C   UNL     1     144.783  73.271 218.602 -0.20 -0.00    +0.119 A  
DOCKED: ATOM     16  C   UNL     1     144.985  74.193 220.826 -0.51 -0.00    +0.011 A  
DOCKED: ATOM     17  N   UNL     1     145.744  72.356 218.907 -0.66 -0.21    -0.264 NA 
DOCKED: ATOM     18  C   UNL     1     145.955  73.230 221.118 -0.69 -0.00    +0.021 A  
DOCKED: ATOM     19  C   UNL     1     146.328  72.312 220.136 -0.23 +0.06    +0.111 A  
DOCKED: ENDBRANCH  13  14
DOCKED: ENDBRANCH  12  13
DOCKED: ENDBRANCH   1  12
DOCKED: BRANCH  11  20
DOCKED: ATOM     20  C   UNL     1     139.959  76.998 220.408 -0.11 -0.05    +0.163 C  
DOCKED: BRANCH  20  21
DOCKED: ATOM     21  C   UNL     1     140.643  78.000 221.306 -0.27 +0.01    -0.028 A  
DOCKED: ATOM     22  C   UNL     1     141.215  79.166 220.768 -0.29 -0.00    +0.007 A  
DOCKED: ATOM     23  C   UNL     1     140.753  77.752 222.687 -0.45 -0.00    +0.007 A  
DOCKED: ATOM     24  C   UNL     1     141.918  80.049 221.592 -0.43 -0.01    +0.021 A  
DOCKED: ATOM     25  C   UNL     1     141.462  78.634 223.504 -0.58 -0.01    +0.021 A  
DOCKED: ATOM     26  C   UNL     1     142.047  79.782 222.958 -0.57 -0.01    +0.041 A  
DOCKED: ATOM     27  Cl  UNL     1     142.955  80.876 223.984 -0.70 +0.01    -0.084 Cl 
DOCKED: ENDBRANCH  20  21
DOCKED: ENDBRANCH  11  20
DOCKED: TORSDOF 5
DOCKED: TER
DOCKED: ENDMDL
________________________________________________________________________________


    FINAL DOCKED STATE:
    ________________________


Run:   5 / 20
Time taken for this run:   0.019s

DOCKED: MODEL        5
DOCKED: USER    Run = 5
DOCKED: USER
DOCKED: USER    Estimated Free Energy of Binding    =  -7.38 kcal/mol  [=(1)+(2)+(3)-(4)]
DOCKED: USER
DOCKED: USER    (1) Final Intermolecular Energy     =  -8.87 kcal/mol
DOCKED: USER        vdW + Hbond + desolv Energy     =  -8.84 kcal/mol
DOCKED: USER        Electrostatic Energy            =  -0.03 kcal/mol
DOCKED: USER        Moving Ligand-Fixed Receptor    =  -8.87 kcal/mol
DOCKED: USER        Moving Ligand-Moving Receptor   =  +0.00 kcal/mol
DOCKED: USER    (2) Final Total Internal Energy     =  -1.33 kcal/mol
DOCKED: USER    (3) Torsional Free Energy           =  +1.49 kcal/mol
DOCKED: USER    (4) Unbound System's Energy         =  -1.33 kcal/mol
DOCKED: USER
DOCKED: USER
DOCKED: REMARK SMILES O=c1c2ccccc2nc(/C=C/c2cccnc2)n1Cc1ccc(Cl)cc1
DOCKED: REMARK SMILES IDX 10 1 9 2 8 3 7 4 6 5 5 6 4 7 3 8 2 9 1 10 19 11 11 12 12 13
DOCKED: REMARK SMILES IDX 13 14 18 15 14 16 17 17 15 18 16 19 20 20 21 21 22 22 27 23
DOCKED: REMARK SMILES IDX 23 24 26 25 24 26 25 27
DOCKED: REMARK H PARENT
DOCKED: USER                              x       y       z     vdW  Elec       q    Type
DOCKED: USER                           _______ _______ _______ _____ _____    ______ ____
DOCKED: ROOT
DOCKED: ATOM      1  C   UNL     1     138.142  69.302 224.200 -0.25 -0.02    +0.136 A  
DOCKED: ATOM      2  N   UNL     1     138.437  68.453 225.218 -0.46 +0.00    -0.230 NA 
DOCKED: ATOM      3  C   UNL     1     139.372  68.754 226.147 -0.46 -0.01    +0.078 A  
DOCKED: ATOM      4  C   UNL     1     139.657  67.842 227.174 -0.58 -0.01    +0.029 A  
DOCKED: ATOM      5  C   UNL     1     140.631  68.147 228.128 -0.65 -0.00    +0.002 A  
DOCKED: ATOM      6  C   UNL     1     141.318  69.362 228.063 -0.47 -0.00    +0.001 A  
DOCKED: ATOM      7  C   UNL     1     141.034  70.279 227.045 -0.58 -0.00    +0.016 A  
DOCKED: ATOM      8  C   UNL     1     140.057  69.978 226.076 -0.46 -0.01    +0.066 A  
DOCKED: ATOM      9  C   UNL     1     139.734  70.862 225.031 -0.29 -0.05    +0.261 A  
DOCKED: ATOM     10  O   UNL     1     140.326  71.975 224.959 -0.30 +0.05    -0.269 OA 
DOCKED: ATOM     11  N   UNL     1     138.780  70.518 224.100 -0.16 +0.06    -0.288 N  
DOCKED: ENDROOT
DOCKED: BRANCH   1  12
DOCKED: ATOM     12  C   UNL     1     137.121  68.876 223.228 -0.18 -0.00    +0.048 C  
DOCKED: BRANCH  12  13
DOCKED: ATOM     13  C   UNL     1     135.920  69.464 223.208 -0.15 -0.00    +0.013 C  
DOCKED: BRANCH  13  14
DOCKED: ATOM     14  C   UNL     1     135.164  69.784 224.435 -0.20 +0.00    -0.007 A  
DOCKED: ATOM     15  C   UNL     1     134.660  68.777 225.279 -0.21 -0.00    +0.119 A  
DOCKED: ATOM     16  C   UNL     1     134.995  71.124 224.813 -0.19 -0.00    +0.011 A  
DOCKED: ATOM     17  N   UNL     1     134.028  69.110 226.438 -0.67 -0.01    -0.264 NA 
DOCKED: ATOM     18  C   UNL     1     134.325  71.437 226.000 -0.28 -0.00    +0.021 A  
DOCKED: ATOM     19  C   UNL     1     133.846  70.406 226.809 -0.32 -0.00    +0.111 A  
DOCKED: ENDBRANCH  13  14
DOCKED: ENDBRANCH  12  13
DOCKED: ENDBRANCH   1  12
DOCKED: BRANCH  11  20
DOCKED: ATOM     20  C   UNL     1     138.407  71.468 223.024 -0.18 -0.04    +0.163 C  
DOCKED: BRANCH  20  21
DOCKED: ATOM     21  C   UNL     1     139.631  71.987 222.309 -0.27 +0.01    -0.028 A  
DOCKED: ATOM     22  C   UNL     1     140.593  71.097 221.804 -0.15 -0.00    +0.007 A  
DOCKED: ATOM     23  C   UNL     1     139.840  73.374 222.181 -0.25 -0.00    +0.007 A  
DOCKED: ATOM     24  C   UNL     1     141.764  71.585 221.215 -0.17 -0.00    +0.021 A  
DOCKED: ATOM     25  C   UNL     1     141.014  73.855 221.599 -0.29 -0.00    +0.021 A  
DOCKED: ATOM     26  C   UNL     1     141.977  72.962 221.118 -0.23 -0.00    +0.041 A  
DOCKED: ATOM     27  Cl  UNL     1     143.459  73.572 220.407 -0.43 +0.02    -0.084 Cl 
DOCKED: ENDBRANCH  20  21
DOCKED: ENDBRANCH  11  20
DOCKED: TORSDOF 5
DOCKED: TER
DOCKED: ENDMDL
________________________________________________________________________________


    FINAL DOCKED STATE:
    ________________________


Run:   6 / 20
Time taken for this run:   0.019s

DOCKED: MODEL        6
DOCKED: USER    Run = 6
DOCKED: USER
DOCKED: USER    Estimated Free Energy of Binding    =  -7.48 kcal/mol  [=(1)+(2)+(3)-(4)]
DOCKED: USER
DOCKED: USER    (1) Final Intermolecular Energy     =  -8.97 kcal/mol
DOCKED: USER        vdW + Hbond + desolv Energy     =  -8.96 kcal/mol
DOCKED: USER        Electrostatic Energy            =  -0.01 kcal/mol
DOCKED: USER        Moving Ligand-Fixed Receptor    =  -8.97 kcal/mol
DOCKED: USER        Moving Ligand-Moving Receptor   =  +0.00 kcal/mol
DOCKED: USER    (2) Final Total Internal Energy     =  -1.10 kcal/mol
DOCKED: USER    (3) Torsional Free Energy           =  +1.49 kcal/mol
DOCKED: USER    (4) Unbound System's Energy         =  -1.10 kcal/mol
DOCKED: USER
DOCKED: USER
DOCKED: REMARK SMILES O=c1c2ccccc2nc(/C=C/c2cccnc2)n1Cc1ccc(Cl)cc1
DOCKED: REMARK SMILES IDX 10 1 9 2 8 3 7 4 6 5 5 6 4 7 3 8 2 9 1 10 19 11 11 12 12 13
DOCKED: REMARK SMILES IDX 13 14 18 15 14 16 17 17 15 18 16 19 20 20 21 21 22 22 27 23
DOCKED: REMARK SMILES IDX 23 24 26 25 24 26 25 27
DOCKED: REMARK H PARENT
DOCKED: USER                              x       y       z     vdW  Elec       q    Type
DOCKED: USER                           _______ _______ _______ _____ _____    ______ ____
DOCKED: ROOT
DOCKED: ATOM      1  C   UNL     1     140.974  74.502 221.583 -0.26 -0.02    +0.136 A  
DOCKED: ATOM      2  N   UNL     1     142.192  74.954 221.188 -0.14 +0.08    -0.230 NA 
DOCKED: ATOM      3  C   UNL     1     143.179  74.108 220.819 -0.25 -0.02    +0.078 A  
DOCKED: ATOM      4  C   UNL     1     144.428  74.616 220.431 -0.44 -0.01    +0.029 A  
DOCKED: ATOM      5  C   UNL     1     145.453  73.742 220.061 -0.53 -0.00    +0.002 A  
DOCKED: ATOM      6  C   UNL     1     145.233  72.362 220.071 -0.43 +0.00    +0.001 A  
DOCKED: ATOM      7  C   UNL     1     143.988  71.848 220.451 -0.31 -0.00    +0.016 A  
DOCKED: ATOM      8  C   UNL     1     142.950  72.722 220.830 -0.25 -0.01    +0.066 A  
DOCKED: ATOM      9  C   UNL     1     141.681  72.260 221.222 -0.15 -0.03    +0.261 A  
DOCKED: ATOM     10  O   UNL     1     141.450  71.019 221.222 -0.04 +0.03    -0.269 OA 
DOCKED: ATOM     11  N   UNL     1     140.702  73.152 221.596 -0.17 +0.03    -0.288 N  
DOCKED: ENDROOT
DOCKED: BRANCH   1  12
DOCKED: ATOM     12  C   UNL     1     139.969  75.502 221.983 -0.30 -0.01    +0.048 C  
DOCKED: BRANCH  12  13
DOCKED: ATOM     13  C   UNL     1     139.971  76.720 221.433 -0.29 -0.00    +0.013 C  
DOCKED: BRANCH  13  14
DOCKED: ATOM     14  C   UNL     1     140.524  77.907 222.116 -0.38 +0.00    -0.007 A  
DOCKED: ATOM     15  C   UNL     1     139.801  78.593 223.110 -0.30 -0.02    +0.119 A  
DOCKED: ATOM     16  C   UNL     1     141.828  78.331 221.821 -0.33 -0.01    +0.011 A  
DOCKED: ATOM     17  N   UNL     1     140.370  79.641 223.768 -0.27 +0.04    -0.264 NA 
DOCKED: ATOM     18  C   UNL     1     142.380  79.421 222.499 -0.55 -0.01    +0.021 A  
DOCKED: ATOM     19  C   UNL     1     141.629  80.069 223.481 -0.50 -0.03    +0.111 A  
DOCKED: ENDBRANCH  13  14
DOCKED: ENDBRANCH  12  13
DOCKED: ENDBRANCH   1  12
DOCKED: BRANCH  11  20
DOCKED: ATOM     20  C   UNL     1     139.350  72.669 221.967 -0.20 -0.03    +0.163 C  
DOCKED: BRANCH  20  21
DOCKED: ATOM     21  C   UNL     1     139.401  71.812 223.209 -0.29 +0.01    -0.028 A  
DOCKED: ATOM     22  C   UNL     1     140.500  71.883 224.080 -0.36 -0.00    +0.007 A  
DOCKED: ATOM     23  C   UNL     1     138.363  70.899 223.481 -0.26 -0.00    +0.007 A  
DOCKED: ATOM     24  C   UNL     1     140.580  71.029 225.184 -0.53 -0.00    +0.021 A  
DOCKED: ATOM     25  C   UNL     1     138.452  70.044 224.580 -0.33 -0.00    +0.021 A  
DOCKED: ATOM     26  C   UNL     1     139.560  70.107 225.431 -0.42 -0.01    +0.041 A  
DOCKED: ATOM     27  Cl  UNL     1     139.676  69.016 226.799 -0.70 +0.01    -0.084 Cl 
DOCKED: ENDBRANCH  20  21
DOCKED: ENDBRANCH  11  20
DOCKED: TORSDOF 5
DOCKED: TER
DOCKED: ENDMDL
________________________________________________________________________________


    FINAL DOCKED STATE:
    ________________________


Run:   7 / 20
Time taken for this run:   0.019s

DOCKED: MODEL        7
DOCKED: USER    Run = 7
DOCKED: USER
DOCKED: USER    Estimated Free Energy of Binding    =  -7.21 kcal/mol  [=(1)+(2)+(3)-(4)]
DOCKED: USER
DOCKED: USER    (1) Final Intermolecular Energy     =  -8.71 kcal/mol
DOCKED: USER        vdW + Hbond + desolv Energy     =  -8.68 kcal/mol
DOCKED: USER        Electrostatic Energy            =  -0.03 kcal/mol
DOCKED: USER        Moving Ligand-Fixed Receptor    =  -8.71 kcal/mol
DOCKED: USER        Moving Ligand-Moving Receptor   =  +0.00 kcal/mol
DOCKED: USER    (2) Final Total Internal Energy     =  -1.43 kcal/mol
DOCKED: USER    (3) Torsional Free Energy           =  +1.49 kcal/mol
DOCKED: USER    (4) Unbound System's Energy         =  -1.43 kcal/mol
DOCKED: USER
DOCKED: USER
DOCKED: REMARK SMILES O=c1c2ccccc2nc(/C=C/c2cccnc2)n1Cc1ccc(Cl)cc1
DOCKED: REMARK SMILES IDX 10 1 9 2 8 3 7 4 6 5 5 6 4 7 3 8 2 9 1 10 19 11 11 12 12 13
DOCKED: REMARK SMILES IDX 13 14 18 15 14 16 17 17 15 18 16 19 20 20 21 21 22 22 27 23
DOCKED: REMARK SMILES IDX 23 24 26 25 24 26 25 27
DOCKED: REMARK H PARENT
DOCKED: USER                              x       y       z     vdW  Elec       q    Type
DOCKED: USER                           _______ _______ _______ _____ _____    ______ ____
DOCKED: ROOT
DOCKED: ATOM      1  C   UNL     1     138.175  69.321 223.926 -0.23 -0.02    +0.136 A  
DOCKED: ATOM      2  N   UNL     1     138.432  68.459 224.943 -0.44 +0.00    -0.230 NA 
DOCKED: ATOM      3  C   UNL     1     139.309  68.758 225.926 -0.44 -0.01    +0.078 A  
DOCKED: ATOM      4  C   UNL     1     139.556  67.832 226.950 -0.59 -0.00    +0.029 A  
DOCKED: ATOM      5  C   UNL     1     140.473  68.136 227.960 -0.65 -0.00    +0.002 A  
DOCKED: ATOM      6  C   UNL     1     141.139  69.365 227.954 -0.57 -0.00    +0.001 A  
DOCKED: ATOM      7  C   UNL     1     140.893  70.296 226.939 -0.58 -0.00    +0.016 A  
DOCKED: ATOM      8  C   UNL     1     139.975  69.996 225.914 -0.45 -0.01    +0.066 A  
DOCKED: ATOM      9  C   UNL     1     139.691  70.894 224.869 -0.29 -0.05    +0.261 A  
DOCKED: ATOM     10  O   UNL     1     140.265  72.018 224.850 -0.25 +0.05    -0.269 OA 
DOCKED: ATOM     11  N   UNL     1     138.794  70.551 223.882 -0.15 +0.06    -0.288 N  
DOCKED: ENDROOT
DOCKED: BRANCH   1  12
DOCKED: ATOM     12  C   UNL     1     137.215  68.897 222.894 -0.17 -0.01    +0.048 C  
DOCKED: BRANCH  12  13
DOCKED: ATOM     13  C   UNL     1     135.945  68.637 223.217 -0.10 -0.00    +0.013 C  
DOCKED: BRANCH  13  14
DOCKED: ATOM     14  C   UNL     1     135.252  69.299 224.340 -0.21 +0.00    -0.007 A  
DOCKED: ATOM     15  C   UNL     1     134.614  68.563 225.355 -0.21 -0.00    +0.119 A  
DOCKED: ATOM     16  C   UNL     1     135.281  70.698 224.442 -0.19 -0.00    +0.011 A  
DOCKED: ATOM     17  N   UNL     1     134.047  69.205 226.413 -0.65 -0.00    -0.264 NA 
DOCKED: ATOM     18  C   UNL     1     134.673  71.333 225.529 -0.18 -0.00    +0.021 A  
DOCKED: ATOM     19  C   UNL     1     134.056  70.562 226.516 -0.32 -0.01    +0.111 A  
DOCKED: ENDBRANCH  13  14
DOCKED: ENDBRANCH  12  13
DOCKED: ENDBRANCH   1  12
DOCKED: BRANCH  11  20
DOCKED: ATOM     20  C   UNL     1     138.461  71.514 222.805 -0.17 -0.04    +0.163 C  
DOCKED: BRANCH  20  21
DOCKED: ATOM     21  C   UNL     1     139.710  72.026 222.128 -0.26 +0.00    -0.028 A  
DOCKED: ATOM     22  C   UNL     1     140.693  71.130 221.675 -0.16 -0.00    +0.007 A  
DOCKED: ATOM     23  C   UNL     1     139.920  73.411 221.986 -0.29 -0.00    +0.007 A  
DOCKED: ATOM     24  C   UNL     1     141.883  71.613 221.123 -0.17 -0.00    +0.021 A  
DOCKED: ATOM     25  C   UNL     1     141.113  73.887 221.441 -0.28 -0.00    +0.021 A  
DOCKED: ATOM     26  C   UNL     1     142.097  72.989 221.011 -0.23 -0.01    +0.041 A  
DOCKED: ATOM     27  Cl  UNL     1     143.603  73.593 220.346 -0.45 +0.02    -0.084 Cl 
DOCKED: ENDBRANCH  20  21
DOCKED: ENDBRANCH  11  20
DOCKED: TORSDOF 5
DOCKED: TER
DOCKED: ENDMDL
________________________________________________________________________________


    FINAL DOCKED STATE:
    ________________________


Run:   8 / 20
Time taken for this run:   0.019s

DOCKED: MODEL        8
DOCKED: USER    Run = 8
DOCKED: USER
DOCKED: USER    Estimated Free Energy of Binding    =  -7.45 kcal/mol  [=(1)+(2)+(3)-(4)]
DOCKED: USER
DOCKED: USER    (1) Final Intermolecular Energy     =  -8.94 kcal/mol
DOCKED: USER        vdW + Hbond + desolv Energy     =  -8.92 kcal/mol
DOCKED: USER        Electrostatic Energy            =  -0.02 kcal/mol
DOCKED: USER        Moving Ligand-Fixed Receptor    =  -8.94 kcal/mol
DOCKED: USER        Moving Ligand-Moving Receptor   =  +0.00 kcal/mol
DOCKED: USER    (2) Final Total Internal Energy     =  -1.17 kcal/mol
DOCKED: USER    (3) Torsional Free Energy           =  +1.49 kcal/mol
DOCKED: USER    (4) Unbound System's Energy         =  -1.17 kcal/mol
DOCKED: USER
DOCKED: USER
DOCKED: REMARK SMILES O=c1c2ccccc2nc(/C=C/c2cccnc2)n1Cc1ccc(Cl)cc1
DOCKED: REMARK SMILES IDX 10 1 9 2 8 3 7 4 6 5 5 6 4 7 3 8 2 9 1 10 19 11 11 12 12 13
DOCKED: REMARK SMILES IDX 13 14 18 15 14 16 17 17 15 18 16 19 20 20 21 21 22 22 27 23
DOCKED: REMARK SMILES IDX 23 24 26 25 24 26 25 27
DOCKED: REMARK H PARENT
DOCKED: USER                              x       y       z     vdW  Elec       q    Type
DOCKED: USER                           _______ _______ _______ _____ _____    ______ ____
DOCKED: ROOT
DOCKED: ATOM      1  C   UNL     1     140.650  74.428 221.626 -0.26 -0.02    +0.136 A  
DOCKED: ATOM      2  N   UNL     1     141.815  74.995 221.220 -0.22 +0.07    -0.230 NA 
DOCKED: ATOM      3  C   UNL     1     142.875  74.247 220.839 -0.24 -0.02    +0.078 A  
DOCKED: ATOM      4  C   UNL     1     144.066  74.872 220.441 -0.36 -0.01    +0.029 A  
DOCKED: ATOM      5  C   UNL     1     145.166  74.101 220.059 -0.44 -0.00    +0.002 A  
DOCKED: ATOM      6  C   UNL     1     145.079  72.706 220.068 -0.45 +0.00    +0.001 A  
DOCKED: ATOM      7  C   UNL     1     143.893  72.075 220.459 -0.32 -0.00    +0.016 A  
DOCKED: ATOM      8  C   UNL     1     142.780  72.845 220.850 -0.25 -0.01    +0.066 A  
DOCKED: ATOM      9  C   UNL     1     141.564  72.264 221.253 -0.15 -0.03    +0.261 A  
DOCKED: ATOM     10  O   UNL     1     141.453  71.007 221.253 -0.02 +0.03    -0.269 OA 
DOCKED: ATOM     11  N   UNL     1     140.508  73.059 221.639 -0.16 +0.03    -0.288 N  
DOCKED: ENDROOT
DOCKED: BRANCH   1  12
DOCKED: ATOM     12  C   UNL     1     139.559  75.327 222.037 -0.28 -0.01    +0.048 C  
DOCKED: BRANCH  12  13
DOCKED: ATOM     13  C   UNL     1     139.505  76.581 221.577 -0.28 -0.00    +0.013 C  
DOCKED: BRANCH  13  14
DOCKED: ATOM     14  C   UNL     1     140.036  77.734 222.331 -0.37 +0.00    -0.007 A  
DOCKED: ATOM     15  C   UNL     1     139.199  78.569 223.095 -0.27 -0.02    +0.119 A  
DOCKED: ATOM     16  C   UNL     1     141.418  77.975 222.346 -0.40 -0.01    +0.011 A  
DOCKED: ATOM     17  N   UNL     1     139.732  79.581 223.833 -0.26 +0.04    -0.264 NA 
DOCKED: ATOM     18  C   UNL     1     141.936  79.033 223.098 -0.57 -0.01    +0.021 A  
DOCKED: ATOM     19  C   UNL     1     141.069  79.832 223.845 -0.44 -0.02    +0.111 A  
DOCKED: ENDBRANCH  13  14
DOCKED: ENDBRANCH  12  13
DOCKED: ENDBRANCH   1  12
DOCKED: BRANCH  11  20
DOCKED: ATOM     20  C   UNL     1     139.212  72.448 222.022 -0.19 -0.04    +0.163 C  
DOCKED: BRANCH  20  21
DOCKED: ATOM     21  C   UNL     1     139.358  71.593 223.257 -0.30 +0.01    -0.028 A  
DOCKED: ATOM     22  C   UNL     1     140.348  71.881 224.211 -0.39 -0.00    +0.007 A  
DOCKED: ATOM     23  C   UNL     1     138.528  70.470 223.442 -0.26 -0.00    +0.007 A  
DOCKED: ATOM     24  C   UNL     1     140.531  71.038 225.311 -0.54 -0.00    +0.021 A  
DOCKED: ATOM     25  C   UNL     1     138.721  69.629 224.538 -0.34 -0.00    +0.021 A  
DOCKED: ATOM     26  C   UNL     1     139.723  69.910 225.473 -0.42 -0.01    +0.041 A  
DOCKED: ATOM     27  Cl  UNL     1     139.974  68.838 226.837 -0.75 +0.01    -0.084 Cl 
DOCKED: ENDBRANCH  20  21
DOCKED: ENDBRANCH  11  20
DOCKED: TORSDOF 5
DOCKED: TER
DOCKED: ENDMDL
________________________________________________________________________________


    FINAL DOCKED STATE:
    ________________________


Run:   9 / 20
Time taken for this run:   0.019s

DOCKED: MODEL        9
DOCKED: USER    Run = 9
DOCKED: USER
DOCKED: USER    Estimated Free Energy of Binding    =  -7.36 kcal/mol  [=(1)+(2)+(3)-(4)]
DOCKED: USER
DOCKED: USER    (1) Final Intermolecular Energy     =  -8.85 kcal/mol
DOCKED: USER        vdW + Hbond + desolv Energy     =  -8.82 kcal/mol
DOCKED: USER        Electrostatic Energy            =  -0.03 kcal/mol
DOCKED: USER        Moving Ligand-Fixed Receptor    =  -8.85 kcal/mol
DOCKED: USER        Moving Ligand-Moving Receptor   =  +0.00 kcal/mol
DOCKED: USER    (2) Final Total Internal Energy     =  -1.35 kcal/mol
DOCKED: USER    (3) Torsional Free Energy           =  +1.49 kcal/mol
DOCKED: USER    (4) Unbound System's Energy         =  -1.35 kcal/mol
DOCKED: USER
DOCKED: USER
DOCKED: REMARK SMILES O=c1c2ccccc2nc(/C=C/c2cccnc2)n1Cc1ccc(Cl)cc1
DOCKED: REMARK SMILES IDX 10 1 9 2 8 3 7 4 6 5 5 6 4 7 3 8 2 9 1 10 19 11 11 12 12 13
DOCKED: REMARK SMILES IDX 13 14 18 15 14 16 17 17 15 18 16 19 20 20 21 21 22 22 27 23
DOCKED: REMARK SMILES IDX 23 24 26 25 24 26 25 27
DOCKED: REMARK H PARENT
DOCKED: USER                              x       y       z     vdW  Elec       q    Type
DOCKED: USER                           _______ _______ _______ _____ _____    ______ ____
DOCKED: ROOT
DOCKED: ATOM      1  C   UNL     1     137.379  73.640 222.340 -0.04 -0.05    +0.136 A  
DOCKED: ATOM      2  N   UNL     1     137.201  74.986 222.305 -0.13 +0.07    -0.230 NA 
DOCKED: ATOM      3  C   UNL     1     138.242  75.838 222.174 -0.25 -0.02    +0.078 A  
DOCKED: ATOM      4  C   UNL     1     138.016  77.222 222.156 -0.23 -0.01    +0.029 A  
DOCKED: ATOM      5  C   UNL     1     139.092  78.104 222.033 -0.25 -0.00    +0.002 A  
DOCKED: ATOM      6  C   UNL     1     140.394  77.609 221.922 -0.35 -0.00    +0.001 A  
DOCKED: ATOM      7  C   UNL     1     140.627  76.229 221.932 -0.38 -0.00    +0.016 A  
DOCKED: ATOM      8  C   UNL     1     139.548  75.332 222.061 -0.28 -0.01    +0.066 A  
DOCKED: ATOM      9  C   UNL     1     139.725  73.937 222.079 -0.11 -0.04    +0.261 A  
DOCKED: ATOM     10  O   UNL     1     140.889  73.462 221.962 -0.63 +0.01    -0.269 OA 
DOCKED: ATOM     11  N   UNL     1     138.641  73.100 222.219 -0.08 +0.09    -0.288 N  
DOCKED: ENDROOT
DOCKED: BRANCH   1  12
DOCKED: ATOM     12  C   UNL     1     136.184  72.795 222.503 -0.13 -0.01    +0.048 C  
DOCKED: BRANCH  12  13
DOCKED: ATOM     13  C   UNL     1     135.768  72.440 223.722 -0.20 -0.00    +0.013 C  
DOCKED: BRANCH  13  14
DOCKED: ATOM     14  C   UNL     1     135.065  73.368 224.630 -0.26 +0.00    -0.007 A  
DOCKED: ATOM     15  C   UNL     1     134.178  72.906 225.621 -0.24 -0.00    +0.119 A  
DOCKED: ATOM     16  C   UNL     1     135.329  74.744 224.555 -0.33 -0.00    +0.011 A  
DOCKED: ATOM     17  N   UNL     1     133.601  73.785 226.486 -0.80 -0.02    -0.264 NA 
DOCKED: ATOM     18  C   UNL     1     134.708  75.626 225.444 -0.39 -0.00    +0.021 A  
DOCKED: ATOM     19  C   UNL     1     133.840  75.123 226.414 -0.31 +0.01    +0.111 A  
DOCKED: ENDBRANCH  13  14
DOCKED: ENDBRANCH  12  13
DOCKED: ENDBRANCH   1  12
DOCKED: BRANCH  11  20
DOCKED: ATOM     20  C   UNL     1     138.822  71.629 222.194 -0.16 -0.04    +0.163 C  
DOCKED: BRANCH  20  21
DOCKED: ATOM     21  C   UNL     1     139.230  71.108 223.551 -0.32 +0.01    -0.028 A  
DOCKED: ATOM     22  C   UNL     1     138.496  70.084 224.172 -0.31 -0.00    +0.007 A  
DOCKED: ATOM     23  C   UNL     1     140.326  71.678 224.227 -0.43 -0.00    +0.007 A  
DOCKED: ATOM     24  C   UNL     1     138.829  69.662 225.462 -0.38 -0.00    +0.021 A  
DOCKED: ATOM     25  C   UNL     1     140.650  71.258 225.517 -0.57 -0.00    +0.021 A  
DOCKED: ATOM     26  C   UNL     1     139.901  70.252 226.137 -0.47 -0.01    +0.041 A  
DOCKED: ATOM     27  Cl  UNL     1     140.298  69.742 227.768 -0.78 +0.01    -0.084 Cl 
DOCKED: ENDBRANCH  20  21
DOCKED: ENDBRANCH  11  20
DOCKED: TORSDOF 5
DOCKED: TER
DOCKED: ENDMDL
________________________________________________________________________________


    FINAL DOCKED STATE:
    ________________________


Run:   10 / 20
Time taken for this run:   0.019s

DOCKED: MODEL        10
DOCKED: USER    Run = 10
DOCKED: USER
DOCKED: USER    Estimated Free Energy of Binding    =  -7.44 kcal/mol  [=(1)+(2)+(3)-(4)]
DOCKED: USER
DOCKED: USER    (1) Final Intermolecular Energy     =  -8.93 kcal/mol
DOCKED: USER        vdW + Hbond + desolv Energy     =  -8.74 kcal/mol
DOCKED: USER        Electrostatic Energy            =  -0.19 kcal/mol
DOCKED: USER        Moving Ligand-Fixed Receptor    =  -8.93 kcal/mol
DOCKED: USER        Moving Ligand-Moving Receptor   =  +0.00 kcal/mol
DOCKED: USER    (2) Final Total Internal Energy     =  -1.31 kcal/mol
DOCKED: USER    (3) Torsional Free Energy           =  +1.49 kcal/mol
DOCKED: USER    (4) Unbound System's Energy         =  -1.31 kcal/mol
DOCKED: USER
DOCKED: USER
DOCKED: REMARK SMILES O=c1c2ccccc2nc(/C=C/c2cccnc2)n1Cc1ccc(Cl)cc1
DOCKED: REMARK SMILES IDX 10 1 9 2 8 3 7 4 6 5 5 6 4 7 3 8 2 9 1 10 19 11 11 12 12 13
DOCKED: REMARK SMILES IDX 13 14 18 15 14 16 17 17 15 18 16 19 20 20 21 21 22 22 27 23
DOCKED: REMARK SMILES IDX 23 24 26 25 24 26 25 27
DOCKED: REMARK H PARENT
DOCKED: USER                              x       y       z     vdW  Elec       q    Type
DOCKED: USER                           _______ _______ _______ _____ _____    ______ ____
DOCKED: ROOT
DOCKED: ATOM      1  C   UNL     1     141.604  75.290 220.619 -0.23 -0.05    +0.136 A  
DOCKED: ATOM      2  N   UNL     1     141.844  73.987 220.918 -0.18 +0.05    -0.230 NA 
DOCKED: ATOM      3  C   UNL     1     140.898  73.198 221.473 -0.26 -0.01    +0.078 A  
DOCKED: ATOM      4  C   UNL     1     141.192  71.862 221.780 -0.23 -0.00    +0.029 A  
DOCKED: ATOM      5  C   UNL     1     140.218  71.049 222.365 -0.22 -0.00    +0.002 A  
DOCKED: ATOM      6  C   UNL     1     138.949  71.565 222.640 -0.24 -0.00    +0.001 A  
DOCKED: ATOM      7  C   UNL     1     138.646  72.896 222.332 -0.13 -0.00    +0.016 A  
DOCKED: ATOM      8  C   UNL     1     139.623  73.724 221.746 -0.25 -0.01    +0.066 A  
DOCKED: ATOM      9  C   UNL     1     139.374  75.069 221.418 -0.17 -0.05    +0.261 A  
DOCKED: ATOM     10  O   UNL     1     138.230  75.555 221.639 -0.14 +0.06    -0.269 OA 
DOCKED: ATOM     11  N   UNL     1     140.365  75.843 220.857 -0.11 +0.08    -0.288 N  
DOCKED: ENDROOT
DOCKED: BRANCH   1  12
DOCKED: ATOM     12  C   UNL     1     142.705  76.072 220.032 -0.27 -0.03    +0.048 C  
DOCKED: BRANCH  12  13
DOCKED: ATOM     13  C   UNL     1     143.548  75.506 219.163 -0.33 -0.01    +0.013 C  
DOCKED: BRANCH  13  14
DOCKED: ATOM     14  C   UNL     1     144.466  74.412 219.535 -0.29 +0.00    -0.007 A  
DOCKED: ATOM     15  C   UNL     1     144.845  73.416 218.615 -0.20 -0.00    +0.119 A  
DOCKED: ATOM     16  C   UNL     1     145.033  74.390 220.818 -0.44 -0.00    +0.011 A  
DOCKED: ATOM     17  N   UNL     1     145.748  72.462 218.972 -0.67 -0.19    -0.264 NA 
DOCKED: ATOM     18  C   UNL     1     145.944  73.387 221.164 -0.71 -0.00    +0.021 A  
DOCKED: ATOM     19  C   UNL     1     146.294  72.423 220.218 -0.28 +0.05    +0.111 A  
DOCKED: ENDBRANCH  13  14
DOCKED: ENDBRANCH  12  13
DOCKED: ENDBRANCH   1  12
DOCKED: BRANCH  11  20
DOCKED: ATOM     20  C   UNL     1     140.089  77.247 220.470 -0.12 -0.05    +0.163 C  
DOCKED: BRANCH  20  21
DOCKED: ATOM     21  C   UNL     1     140.772  78.214 221.407 -0.29 +0.01    -0.028 A  
DOCKED: ATOM     22  C   UNL     1     140.625  78.083 222.798 -0.43 -0.00    +0.007 A  
DOCKED: ATOM     23  C   UNL     1     141.527  79.285 220.891 -0.33 -0.00    +0.007 A  
DOCKED: ATOM     24  C   UNL     1     141.192  79.028 223.658 -0.55 -0.01    +0.021 A  
DOCKED: ATOM     25  C   UNL     1     142.084  80.229 221.754 -0.46 -0.01    +0.021 A  
DOCKED: ATOM     26  C   UNL     1     141.916  80.103 223.137 -0.57 -0.01    +0.041 A  
DOCKED: ATOM     27  Cl  UNL     1     142.601  81.304 224.216 -0.62 +0.01    -0.084 Cl 
DOCKED: ENDBRANCH  20  21
DOCKED: ENDBRANCH  11  20
DOCKED: TORSDOF 5
DOCKED: TER
DOCKED: ENDMDL
________________________________________________________________________________


    FINAL DOCKED STATE:
    ________________________


Run:   11 / 20
Time taken for this run:   0.019s

DOCKED: MODEL        11
DOCKED: USER    Run = 11
DOCKED: USER
DOCKED: USER    Estimated Free Energy of Binding    =  -7.23 kcal/mol  [=(1)+(2)+(3)-(4)]
DOCKED: USER
DOCKED: USER    (1) Final Intermolecular Energy     =  -8.72 kcal/mol
DOCKED: USER        vdW + Hbond + desolv Energy     =  -8.64 kcal/mol
DOCKED: USER        Electrostatic Energy            =  -0.08 kcal/mol
DOCKED: USER        Moving Ligand-Fixed Receptor    =  -8.72 kcal/mol
DOCKED: USER        Moving Ligand-Moving Receptor   =  +0.00 kcal/mol
DOCKED: USER    (2) Final Total Internal Energy     =  -1.30 kcal/mol
DOCKED: USER    (3) Torsional Free Energy           =  +1.49 kcal/mol
DOCKED: USER    (4) Unbound System's Energy         =  -1.30 kcal/mol
DOCKED: USER
DOCKED: USER
DOCKED: REMARK SMILES O=c1c2ccccc2nc(/C=C/c2cccnc2)n1Cc1ccc(Cl)cc1
DOCKED: REMARK SMILES IDX 10 1 9 2 8 3 7 4 6 5 5 6 4 7 3 8 2 9 1 10 19 11 11 12 12 13
DOCKED: REMARK SMILES IDX 13 14 18 15 14 16 17 17 15 18 16 19 20 20 21 21 22 22 27 23
DOCKED: REMARK SMILES IDX 23 24 26 25 24 26 25 27
DOCKED: REMARK H PARENT
DOCKED: USER                              x       y       z     vdW  Elec       q    Type
DOCKED: USER                           _______ _______ _______ _____ _____    ______ ____
DOCKED: ROOT
DOCKED: ATOM      1  C   UNL     1     138.809  70.697 223.939 -0.26 -0.03    +0.136 A  
DOCKED: ATOM      2  N   UNL     1     139.534  71.344 224.888 -0.24 +0.05    -0.230 NA 
DOCKED: ATOM      3  C   UNL     1     140.031  70.699 225.966 -0.47 -0.01    +0.078 A  
DOCKED: ATOM      4  C   UNL     1     140.762  71.408 226.930 -0.70 -0.00    +0.029 A  
DOCKED: ATOM      5  C   UNL     1     141.266  70.745 228.052 -0.54 -0.00    +0.002 A  
DOCKED: ATOM      6  C   UNL     1     141.047  69.374 228.211 -0.61 -0.00    +0.001 A  
DOCKED: ATOM      7  C   UNL     1     140.324  68.659 227.251 -0.63 -0.00    +0.016 A  
DOCKED: ATOM      8  C   UNL     1     139.807  69.320 226.119 -0.45 -0.01    +0.066 A  
DOCKED: ATOM      9  C   UNL     1     139.072  68.651 225.124 -0.26 -0.03    +0.261 A  
DOCKED: ATOM     10  O   UNL     1     138.876  67.409 225.234 -0.75 -0.05    -0.269 OA 
DOCKED: ATOM     11  N   UNL     1     138.578  69.343 224.042 -0.15 +0.04    -0.288 N  
DOCKED: ENDROOT
DOCKED: BRANCH   1  12
DOCKED: ATOM     12  C   UNL     1     138.296  71.490 222.810 -0.20 -0.01    +0.048 C  
DOCKED: BRANCH  12  13
DOCKED: ATOM     13  C   UNL     1     139.085  71.776 221.770 -0.18 -0.00    +0.013 C  
DOCKED: BRANCH  13  14
DOCKED: ATOM     14  C   UNL     1     139.810  73.056 221.642 -0.25 +0.00    -0.007 A  
DOCKED: ATOM     15  C   UNL     1     139.247  74.273 222.071 -0.17 -0.03    +0.119 A  
DOCKED: ATOM     16  C   UNL     1     141.120  73.062 221.141 -0.26 -0.00    +0.011 A  
DOCKED: ATOM     17  N   UNL     1     139.971  75.423 222.002 -0.49 +0.04    -0.264 NA 
DOCKED: ATOM     18  C   UNL     1     141.834  74.262 221.064 -0.26 -0.00    +0.021 A  
DOCKED: ATOM     19  C   UNL     1     141.238  75.444 221.506 -0.28 -0.03    +0.111 A  
DOCKED: ENDBRANCH  13  14
DOCKED: ENDBRANCH  12  13
DOCKED: ENDBRANCH   1  12
DOCKED: BRANCH  11  20
DOCKED: ATOM     20  C   UNL     1     137.840  68.631 222.971 -0.17 -0.02    +0.163 C  
DOCKED: BRANCH  20  21
DOCKED: ATOM     21  C   UNL     1     138.791  67.948 222.017 -0.21 +0.01    -0.028 A  
DOCKED: ATOM     22  C   UNL     1     138.943  66.551 222.040 -0.29 -0.00    +0.007 A  
DOCKED: ATOM     23  C   UNL     1     139.569  68.711 221.126 -0.14 -0.00    +0.007 A  
DOCKED: ATOM     24  C   UNL     1     139.884  65.932 221.212 -0.23 -0.01    +0.021 A  
DOCKED: ATOM     25  C   UNL     1     140.512  68.089 220.307 -0.12 -0.00    +0.021 A  
DOCKED: ATOM     26  C   UNL     1     140.672  66.699 220.351 -0.09 -0.01    +0.041 A  
DOCKED: ATOM     27  Cl  UNL     1     141.872  65.924 219.335 -0.22 +0.04    -0.084 Cl 
DOCKED: ENDBRANCH  20  21
DOCKED: ENDBRANCH  11  20
DOCKED: TORSDOF 5
DOCKED: TER
DOCKED: ENDMDL
________________________________________________________________________________


    FINAL DOCKED STATE:
    ________________________


Run:   12 / 20
Time taken for this run:   0.019s

DOCKED: MODEL        12
DOCKED: USER    Run = 12
DOCKED: USER
DOCKED: USER    Estimated Free Energy of Binding    =  -7.21 kcal/mol  [=(1)+(2)+(3)-(4)]
DOCKED: USER
DOCKED: USER    (1) Final Intermolecular Energy     =  -8.70 kcal/mol
DOCKED: USER        vdW + Hbond + desolv Energy     =  -8.53 kcal/mol
DOCKED: USER        Electrostatic Energy            =  -0.17 kcal/mol
DOCKED: USER        Moving Ligand-Fixed Receptor    =  -8.70 kcal/mol
DOCKED: USER        Moving Ligand-Moving Receptor   =  +0.00 kcal/mol
DOCKED: USER    (2) Final Total Internal Energy     =  -1.46 kcal/mol
DOCKED: USER    (3) Torsional Free Energy           =  +1.49 kcal/mol
DOCKED: USER    (4) Unbound System's Energy         =  -1.46 kcal/mol
DOCKED: USER
DOCKED: USER
DOCKED: REMARK SMILES O=c1c2ccccc2nc(/C=C/c2cccnc2)n1Cc1ccc(Cl)cc1
DOCKED: REMARK SMILES IDX 10 1 9 2 8 3 7 4 6 5 5 6 4 7 3 8 2 9 1 10 19 11 11 12 12 13
DOCKED: REMARK SMILES IDX 13 14 18 15 14 16 17 17 15 18 16 19 20 20 21 21 22 22 27 23
DOCKED: REMARK SMILES IDX 23 24 26 25 24 26 25 27
DOCKED: REMARK H PARENT
DOCKED: USER                              x       y       z     vdW  Elec       q    Type
DOCKED: USER                           _______ _______ _______ _____ _____    ______ ____
DOCKED: ROOT
DOCKED: ATOM      1  C   UNL     1     141.486  72.779 220.315 -0.14 -0.02    +0.136 A  
DOCKED: ATOM      2  N   UNL     1     142.114  73.959 220.073 -0.12 +0.06    -0.230 NA 
DOCKED: ATOM      3  C   UNL     1     141.647  75.127 220.566 -0.25 -0.03    +0.078 A  
DOCKED: ATOM      4  C   UNL     1     142.317  76.325 220.280 -0.21 -0.02    +0.029 A  
DOCKED: ATOM      5  C   UNL     1     141.829  77.535 220.779 -0.30 -0.00    +0.002 A  
DOCKED: ATOM      6  C   UNL     1     140.676  77.552 221.569 -0.33 -0.00    +0.001 A  
DOCKED: ATOM      7  C   UNL     1     140.005  76.360 221.863 -0.35 -0.00    +0.016 A  
DOCKED: ATOM      8  C   UNL     1     140.487  75.136 221.360 -0.29 -0.01    +0.066 A  
DOCKED: ATOM      9  C   UNL     1     139.852  73.909 221.623 -0.19 -0.04    +0.261 A  
DOCKED: ATOM     10  O   UNL     1     138.819  73.894 222.349 -0.28 +0.09    -0.269 OA 
DOCKED: ATOM     11  N   UNL     1     140.355  72.739 221.099 -0.10 +0.04    -0.288 N  
DOCKED: ENDROOT
DOCKED: BRANCH   1  12
DOCKED: ATOM     12  C   UNL     1     142.062  71.562 219.720 -0.12 -0.01    +0.048 C  
DOCKED: BRANCH  12  13
DOCKED: ATOM     13  C   UNL     1     143.271  71.132 220.096 -0.23 -0.00    +0.013 C  
DOCKED: BRANCH  13  14
DOCKED: ATOM     14  C   UNL     1     144.468  71.996 220.083 -0.34 +0.00    -0.007 A  
DOCKED: ATOM     15  C   UNL     1     145.248  72.165 218.924 -0.23 +0.05    +0.119 A  
DOCKED: ATOM     16  C   UNL     1     144.809  72.722 221.234 -0.37 -0.00    +0.011 A  
DOCKED: ATOM     17  N   UNL     1     146.305  73.024 218.931 -0.67 -0.27    -0.264 NA 
DOCKED: ATOM     18  C   UNL     1     145.910  73.583 221.218 -0.70 -0.00    +0.021 A  
DOCKED: ATOM     19  C   UNL     1     146.653  73.724 220.044 -0.29 +0.03    +0.111 A  
DOCKED: ENDBRANCH  13  14
DOCKED: ENDBRANCH  12  13
DOCKED: ENDBRANCH   1  12
DOCKED: BRANCH  11  20
DOCKED: ATOM     20  C   UNL     1     139.711  71.441 221.413 -0.13 -0.03    +0.163 C  
DOCKED: BRANCH  20  21
DOCKED: ATOM     21  C   UNL     1     139.873  71.092 222.872 -0.29 +0.00    -0.028 A  
DOCKED: ATOM     22  C   UNL     1     139.109  70.063 223.448 -0.27 -0.00    +0.007 A  
DOCKED: ATOM     23  C   UNL     1     140.761  71.827 223.681 -0.26 -0.00    +0.007 A  
DOCKED: ATOM     24  C   UNL     1     139.204  69.798 224.818 -0.37 -0.00    +0.021 A  
DOCKED: ATOM     25  C   UNL     1     140.845  71.563 225.049 -0.46 -0.00    +0.021 A  
DOCKED: ATOM     26  C   UNL     1     140.066  70.551 225.619 -0.49 -0.01    +0.041 A  
DOCKED: ATOM     27  Cl  UNL     1     140.161  70.237 227.342 -0.74 +0.01    -0.084 Cl 
DOCKED: ENDBRANCH  20  21
DOCKED: ENDBRANCH  11  20
DOCKED: TORSDOF 5
DOCKED: TER
DOCKED: ENDMDL
________________________________________________________________________________


    FINAL DOCKED STATE:
    ________________________


Run:   13 / 20
Time taken for this run:   0.019s

DOCKED: MODEL        13
DOCKED: USER    Run = 13
DOCKED: USER
DOCKED: USER    Estimated Free Energy of Binding    =  -7.29 kcal/mol  [=(1)+(2)+(3)-(4)]
DOCKED: USER
DOCKED: USER    (1) Final Intermolecular Energy     =  -8.78 kcal/mol
DOCKED: USER        vdW + Hbond + desolv Energy     =  -8.74 kcal/mol
DOCKED: USER        Electrostatic Energy            =  -0.04 kcal/mol
DOCKED: USER        Moving Ligand-Fixed Receptor    =  -8.78 kcal/mol
DOCKED: USER        Moving Ligand-Moving Receptor   =  +0.00 kcal/mol
DOCKED: USER    (2) Final Total Internal Energy     =  -1.39 kcal/mol
DOCKED: USER    (3) Torsional Free Energy           =  +1.49 kcal/mol
DOCKED: USER    (4) Unbound System's Energy         =  -1.39 kcal/mol
DOCKED: USER
DOCKED: USER
DOCKED: REMARK SMILES O=c1c2ccccc2nc(/C=C/c2cccnc2)n1Cc1ccc(Cl)cc1
DOCKED: REMARK SMILES IDX 10 1 9 2 8 3 7 4 6 5 5 6 4 7 3 8 2 9 1 10 19 11 11 12 12 13
DOCKED: REMARK SMILES IDX 13 14 18 15 14 16 17 17 15 18 16 19 20 20 21 21 22 22 27 23
DOCKED: REMARK SMILES IDX 23 24 26 25 24 26 25 27
DOCKED: REMARK H PARENT
DOCKED: USER                              x       y       z     vdW  Elec       q    Type
DOCKED: USER                           _______ _______ _______ _____ _____    ______ ____
DOCKED: ROOT
DOCKED: ATOM      1  C   UNL     1     137.442  74.484 222.279 -0.07 -0.05    +0.136 A  
DOCKED: ATOM      2  N   UNL     1     137.378  75.823 222.495 -0.17 +0.06    -0.230 NA 
DOCKED: ATOM      3  C   UNL     1     138.485  76.598 222.488 -0.28 -0.02    +0.078 A  
DOCKED: ATOM      4  C   UNL     1     138.377  77.975 222.730 -0.27 -0.00    +0.029 A  
DOCKED: ATOM      5  C   UNL     1     139.522  78.775 222.735 -0.34 -0.00    +0.002 A  
DOCKED: ATOM      6  C   UNL     1     140.776  78.205 222.495 -0.44 -0.00    +0.001 A  
DOCKED: ATOM      7  C   UNL     1     140.890  76.833 222.247 -0.40 -0.01    +0.016 A  
DOCKED: ATOM      8  C   UNL     1     139.742  76.017 222.245 -0.33 -0.01    +0.066 A  
DOCKED: ATOM      9  C   UNL     1     139.800  74.633 222.004 -0.14 -0.03    +0.261 A  
DOCKED: ATOM     10  O   UNL     1     140.917  74.095 221.766 -0.60 +0.02    -0.269 OA 
DOCKED: ATOM     11  N   UNL     1     138.650  73.875 222.023 -0.10 +0.08    -0.288 N  
DOCKED: ENDROOT
DOCKED: BRANCH   1  12
DOCKED: ATOM     12  C   UNL     1     136.182  73.723 222.323 -0.14 -0.01    +0.048 C  
DOCKED: BRANCH  12  13
DOCKED: ATOM     13  C   UNL     1     135.776  73.150 223.461 -0.19 -0.00    +0.013 C  
DOCKED: BRANCH  13  14
DOCKED: ATOM     14  C   UNL     1     135.012  73.877 224.494 -0.28 +0.00    -0.007 A  
DOCKED: ATOM     15  C   UNL     1     134.317  73.200 225.515 -0.25 -0.00    +0.119 A  
DOCKED: ATOM     16  C   UNL     1     135.025  75.279 224.507 -0.32 -0.00    +0.011 A  
DOCKED: ATOM     17  N   UNL     1     133.681  73.904 226.491 -0.79 -0.03    -0.264 NA 
DOCKED: ATOM     18  C   UNL     1     134.347  75.976 225.512 -0.33 -0.00    +0.021 A  
DOCKED: ATOM     19  C   UNL     1     133.675  75.265 226.506 -0.32 +0.00    +0.111 A  
DOCKED: ENDBRANCH  13  14
DOCKED: ENDBRANCH  12  13
DOCKED: ENDBRANCH   1  12
DOCKED: BRANCH  11  20
DOCKED: ATOM     20  C   UNL     1     138.705  72.424 221.726 -0.14 -0.04    +0.163 C  
DOCKED: BRANCH  20  21
DOCKED: ATOM     21  C   UNL     1     139.058  71.629 222.959 -0.26 +0.01    -0.028 A  
DOCKED: ATOM     22  C   UNL     1     138.144  70.709 223.501 -0.25 -0.00    +0.007 A  
DOCKED: ATOM     23  C   UNL     1     140.292  71.836 223.605 -0.39 -0.00    +0.007 A  
DOCKED: ATOM     24  C   UNL     1     138.443  70.036 224.689 -0.33 -0.00    +0.021 A  
DOCKED: ATOM     25  C   UNL     1     140.583  71.166 224.794 -0.50 -0.00    +0.021 A  
DOCKED: ATOM     26  C   UNL     1     139.658  70.268 225.339 -0.42 -0.01    +0.041 A  
DOCKED: ATOM     27  Cl  UNL     1     140.019  69.446 226.845 -0.71 +0.01    -0.084 Cl 
DOCKED: ENDBRANCH  20  21
DOCKED: ENDBRANCH  11  20
DOCKED: TORSDOF 5
DOCKED: TER
DOCKED: ENDMDL
________________________________________________________________________________


    FINAL DOCKED STATE:
    ________________________


Run:   14 / 20
Time taken for this run:   0.019s

DOCKED: MODEL        14
DOCKED: USER    Run = 14
DOCKED: USER
DOCKED: USER    Estimated Free Energy of Binding    =  -7.59 kcal/mol  [=(1)+(2)+(3)-(4)]
DOCKED: USER
DOCKED: USER    (1) Final Intermolecular Energy     =  -9.08 kcal/mol
DOCKED: USER        vdW + Hbond + desolv Energy     =  -8.89 kcal/mol
DOCKED: USER        Electrostatic Energy            =  -0.18 kcal/mol
DOCKED: USER        Moving Ligand-Fixed Receptor    =  -9.08 kcal/mol
DOCKED: USER        Moving Ligand-Moving Receptor   =  +0.00 kcal/mol
DOCKED: USER    (2) Final Total Internal Energy     =  -1.11 kcal/mol
DOCKED: USER    (3) Torsional Free Energy           =  +1.49 kcal/mol
DOCKED: USER    (4) Unbound System's Energy         =  -1.11 kcal/mol
DOCKED: USER
DOCKED: USER
DOCKED: REMARK SMILES O=c1c2ccccc2nc(/C=C/c2cccnc2)n1Cc1ccc(Cl)cc1
DOCKED: REMARK SMILES IDX 10 1 9 2 8 3 7 4 6 5 5 6 4 7 3 8 2 9 1 10 19 11 11 12 12 13
DOCKED: REMARK SMILES IDX 13 14 18 15 14 16 17 17 15 18 16 19 20 20 21 21 22 22 27 23
DOCKED: REMARK SMILES IDX 23 24 26 25 24 26 25 27
DOCKED: REMARK H PARENT
DOCKED: USER                              x       y       z     vdW  Elec       q    Type
DOCKED: USER                           _______ _______ _______ _____ _____    ______ ____
DOCKED: ROOT
DOCKED: ATOM      1  C   UNL     1     140.535  72.948 221.769 -0.25 -0.01    +0.136 A  
DOCKED: ATOM      2  N   UNL     1     140.730  74.292 221.738 -0.60 +0.02    -0.230 NA 
DOCKED: ATOM      3  C   UNL     1     139.713  75.163 221.923 -0.28 -0.01    +0.078 A  
DOCKED: ATOM      4  C   UNL     1     139.955  76.543 221.869 -0.34 -0.01    +0.029 A  
DOCKED: ATOM      5  C   UNL     1     138.902  77.444 222.049 -0.27 -0.00    +0.002 A  
DOCKED: ATOM      6  C   UNL     1     137.609  76.971 222.288 -0.24 -0.00    +0.001 A  
DOCKED: ATOM      7  C   UNL     1     137.362  75.595 222.349 -0.24 -0.00    +0.016 A  
DOCKED: ATOM      8  C   UNL     1     138.416  74.679 222.165 -0.08 -0.02    +0.066 A  
DOCKED: ATOM      9  C   UNL     1     138.223  73.287 222.214 +0.03 -0.09    +0.261 A  
DOCKED: ATOM     10  O   UNL     1     137.069  72.832 222.447 -0.10 +0.08    -0.269 OA 
DOCKED: ATOM     11  N   UNL     1     139.283  72.431 222.016 -0.13 +0.06    -0.288 N  
DOCKED: ENDROOT
DOCKED: BRANCH   1  12
DOCKED: ATOM     12  C   UNL     1     141.703  72.082 221.539 -0.17 -0.00    +0.048 C  
DOCKED: BRANCH  12  13
DOCKED: ATOM     13  C   UNL     1     142.347  72.112 220.368 -0.21 -0.00    +0.013 C  
DOCKED: BRANCH  13  14
DOCKED: ATOM     14  C   UNL     1     143.759  72.526 220.240 -0.32 +0.00    -0.007 A  
DOCKED: ATOM     15  C   UNL     1     144.681  71.791 219.472 -0.24 +0.01    +0.119 A  
DOCKED: ATOM     16  C   UNL     1     144.187  73.718 220.844 -0.42 -0.00    +0.011 A  
DOCKED: ATOM     17  N   UNL     1     145.957  72.240 219.320 -0.64 -0.22    -0.264 NA 
DOCKED: ATOM     18  C   UNL     1     145.509  74.146 220.686 -0.58 -0.01    +0.021 A  
DOCKED: ATOM     19  C   UNL     1     146.387  73.388 219.912 -0.38 +0.04    +0.111 A  
DOCKED: ENDBRANCH  13  14
DOCKED: ENDBRANCH  12  13
DOCKED: ENDBRANCH   1  12
DOCKED: BRANCH  11  20
DOCKED: ATOM     20  C   UNL     1     139.090  70.964 222.112 -0.15 -0.03    +0.163 C  
DOCKED: BRANCH  20  21
DOCKED: ATOM     21  C   UNL     1     139.354  70.471 223.514 -0.29 +0.01    -0.028 A  
DOCKED: ATOM     22  C   UNL     1     140.071  71.264 224.425 -0.46 -0.00    +0.007 A  
DOCKED: ATOM     23  C   UNL     1     138.921  69.190 223.906 -0.30 -0.00    +0.007 A  
DOCKED: ATOM     24  C   UNL     1     140.383  70.769 225.695 -0.55 -0.00    +0.021 A  
DOCKED: ATOM     25  C   UNL     1     139.242  68.698 225.172 -0.42 -0.00    +0.021 A  
DOCKED: ATOM     26  C   UNL     1     139.975  69.485 226.067 -0.46 -0.01    +0.041 A  
DOCKED: ATOM     27  Cl  UNL     1     140.393  68.855 227.649 -0.80 +0.02    -0.084 Cl 
DOCKED: ENDBRANCH  20  21
DOCKED: ENDBRANCH  11  20
DOCKED: TORSDOF 5
DOCKED: TER
DOCKED: ENDMDL
________________________________________________________________________________


    FINAL DOCKED STATE:
    ________________________


Run:   15 / 20
Time taken for this run:   0.019s

DOCKED: MODEL        15
DOCKED: USER    Run = 15
DOCKED: USER
DOCKED: USER    Estimated Free Energy of Binding    =  -7.38 kcal/mol  [=(1)+(2)+(3)-(4)]
DOCKED: USER
DOCKED: USER    (1) Final Intermolecular Energy     =  -8.87 kcal/mol
DOCKED: USER        vdW + Hbond + desolv Energy     =  -8.83 kcal/mol
DOCKED: USER        Electrostatic Energy            =  -0.04 kcal/mol
DOCKED: USER        Moving Ligand-Fixed Receptor    =  -8.87 kcal/mol
DOCKED: USER        Moving Ligand-Moving Receptor   =  +0.00 kcal/mol
DOCKED: USER    (2) Final Total Internal Energy     =  -1.33 kcal/mol
DOCKED: USER    (3) Torsional Free Energy           =  +1.49 kcal/mol
DOCKED: USER    (4) Unbound System's Energy         =  -1.33 kcal/mol
DOCKED: USER
DOCKED: USER
DOCKED: REMARK SMILES O=c1c2ccccc2nc(/C=C/c2cccnc2)n1Cc1ccc(Cl)cc1
DOCKED: REMARK SMILES IDX 10 1 9 2 8 3 7 4 6 5 5 6 4 7 3 8 2 9 1 10 19 11 11 12 12 13
DOCKED: REMARK SMILES IDX 13 14 18 15 14 16 17 17 15 18 16 19 20 20 21 21 22 22 27 23
DOCKED: REMARK SMILES IDX 23 24 26 25 24 26 25 27
DOCKED: REMARK H PARENT
DOCKED: USER                              x       y       z     vdW  Elec       q    Type
DOCKED: USER                           _______ _______ _______ _____ _____    ______ ____
DOCKED: ROOT
DOCKED: ATOM      1  C   UNL     1     138.098  69.308 224.240 -0.25 -0.02    +0.136 A  
DOCKED: ATOM      2  N   UNL     1     138.402  68.457 225.254 -0.45 +0.00    -0.230 NA 
DOCKED: ATOM      3  C   UNL     1     139.340  68.758 226.179 -0.46 -0.01    +0.078 A  
DOCKED: ATOM      4  C   UNL     1     139.634  67.845 227.201 -0.58 -0.01    +0.029 A  
DOCKED: ATOM      5  C   UNL     1     140.612  68.149 228.150 -0.65 -0.00    +0.002 A  
DOCKED: ATOM      6  C   UNL     1     141.295  69.367 228.085 -0.49 -0.00    +0.001 A  
DOCKED: ATOM      7  C   UNL     1     141.003  70.286 227.071 -0.58 -0.00    +0.016 A  
DOCKED: ATOM      8  C   UNL     1     140.022  69.985 226.107 -0.46 -0.01    +0.066 A  
DOCKED: ATOM      9  C   UNL     1     139.690  70.871 225.066 -0.29 -0.05    +0.261 A  
DOCKED: ATOM     10  O   UNL     1     140.278  71.986 224.994 -0.26 +0.05    -0.269 OA 
DOCKED: ATOM     11  N   UNL     1     138.731  70.527 224.140 -0.16 +0.06    -0.288 N  
DOCKED: ENDROOT
DOCKED: BRANCH   1  12
DOCKED: ATOM     12  C   UNL     1     137.073  68.882 223.273 -0.18 -0.00    +0.048 C  
DOCKED: BRANCH  12  13
DOCKED: ATOM     13  C   UNL     1     135.875  69.476 223.250 -0.15 -0.00    +0.013 C  
DOCKED: BRANCH  13  14
DOCKED: ATOM     14  C   UNL     1     135.118  69.798 224.476 -0.20 +0.00    -0.007 A  
DOCKED: ATOM     15  C   UNL     1     134.604  68.792 225.316 -0.22 -0.00    +0.119 A  
DOCKED: ATOM     16  C   UNL     1     134.957  71.138 224.858 -0.19 -0.00    +0.011 A  
DOCKED: ATOM     17  N   UNL     1     133.972  69.126 226.474 -0.70 -0.01    -0.264 NA 
DOCKED: ATOM     18  C   UNL     1     134.287  71.452 226.045 -0.28 -0.00    +0.021 A  
DOCKED: ATOM     19  C   UNL     1     133.798  70.422 226.849 -0.31 -0.00    +0.111 A  
DOCKED: ENDBRANCH  13  14
DOCKED: ENDBRANCH  12  13
DOCKED: ENDBRANCH   1  12
DOCKED: BRANCH  11  20
DOCKED: ATOM     20  C   UNL     1     138.350  71.479 223.068 -0.18 -0.04    +0.163 C  
DOCKED: BRANCH  20  21
DOCKED: ATOM     21  C   UNL     1     139.567  71.993 222.339 -0.27 +0.01    -0.028 A  
DOCKED: ATOM     22  C   UNL     1     140.526  71.099 221.833 -0.16 -0.00    +0.007 A  
DOCKED: ATOM     23  C   UNL     1     139.774  73.379 222.198 -0.25 -0.00    +0.007 A  
DOCKED: ATOM     24  C   UNL     1     141.691  71.584 221.231 -0.17 -0.00    +0.021 A  
DOCKED: ATOM     25  C   UNL     1     140.942  73.856 221.603 -0.29 -0.00    +0.021 A  
DOCKED: ATOM     26  C   UNL     1     141.902  72.960 221.120 -0.24 -0.00    +0.041 A  
DOCKED: ATOM     27  Cl  UNL     1     143.377  73.566 220.392 -0.42 +0.02    -0.084 Cl 
DOCKED: ENDBRANCH  20  21
DOCKED: ENDBRANCH  11  20
DOCKED: TORSDOF 5
DOCKED: TER
DOCKED: ENDMDL
________________________________________________________________________________


    FINAL DOCKED STATE:
    ________________________


Run:   16 / 20
Time taken for this run:   0.019s

DOCKED: MODEL        16
DOCKED: USER    Run = 16
DOCKED: USER
DOCKED: USER    Estimated Free Energy of Binding    =  -7.30 kcal/mol  [=(1)+(2)+(3)-(4)]
DOCKED: USER
DOCKED: USER    (1) Final Intermolecular Energy     =  -8.79 kcal/mol
DOCKED: USER        vdW + Hbond + desolv Energy     =  -8.77 kcal/mol
DOCKED: USER        Electrostatic Energy            =  -0.03 kcal/mol
DOCKED: USER        Moving Ligand-Fixed Receptor    =  -8.79 kcal/mol
DOCKED: USER        Moving Ligand-Moving Receptor   =  +0.00 kcal/mol
DOCKED: USER    (2) Final Total Internal Energy     =  -1.38 kcal/mol
DOCKED: USER    (3) Torsional Free Energy           =  +1.49 kcal/mol
DOCKED: USER    (4) Unbound System's Energy         =  -1.38 kcal/mol
DOCKED: USER
DOCKED: USER
DOCKED: REMARK SMILES O=c1c2ccccc2nc(/C=C/c2cccnc2)n1Cc1ccc(Cl)cc1
DOCKED: REMARK SMILES IDX 10 1 9 2 8 3 7 4 6 5 5 6 4 7 3 8 2 9 1 10 19 11 11 12 12 13
DOCKED: REMARK SMILES IDX 13 14 18 15 14 16 17 17 15 18 16 19 20 20 21 21 22 22 27 23
DOCKED: REMARK SMILES IDX 23 24 26 25 24 26 25 27
DOCKED: REMARK H PARENT
DOCKED: USER                              x       y       z     vdW  Elec       q    Type
DOCKED: USER                           _______ _______ _______ _____ _____    ______ ____
DOCKED: ROOT
DOCKED: ATOM      1  C   UNL     1     137.432  73.881 222.297 -0.02 -0.05    +0.136 A  
DOCKED: ATOM      2  N   UNL     1     137.282  75.231 222.291 -0.14 +0.07    -0.230 NA 
DOCKED: ATOM      3  C   UNL     1     138.341  76.064 222.178 -0.26 -0.02    +0.078 A  
DOCKED: ATOM      4  C   UNL     1     138.144  77.452 222.190 -0.23 -0.01    +0.029 A  
DOCKED: ATOM      5  C   UNL     1     139.238  78.314 222.086 -0.26 -0.00    +0.002 A  
DOCKED: ATOM      6  C   UNL     1     140.530  77.793 221.963 -0.36 -0.00    +0.001 A  
DOCKED: ATOM      7  C   UNL     1     140.733  76.409 221.944 -0.39 -0.01    +0.016 A  
DOCKED: ATOM      8  C   UNL     1     139.636  75.532 222.054 -0.30 -0.01    +0.066 A  
DOCKED: ATOM      9  C   UNL     1     139.784  74.134 222.042 -0.11 -0.03    +0.261 A  
DOCKED: ATOM     10  O   UNL     1     140.937  73.637 221.914 -0.63 +0.01    -0.269 OA 
DOCKED: ATOM     11  N   UNL     1     138.681  73.318 222.164 -0.08 +0.09    -0.288 N  
DOCKED: ENDROOT
DOCKED: BRANCH   1  12
DOCKED: ATOM     12  C   UNL     1     136.219  73.059 222.442 -0.13 -0.01    +0.048 C  
DOCKED: BRANCH  12  13
DOCKED: ATOM     13  C   UNL     1     135.824  72.643 223.649 -0.20 -0.00    +0.013 C  
DOCKED: BRANCH  13  14
DOCKED: ATOM     14  C   UNL     1     135.074  73.503 224.586 -0.27 +0.00    -0.007 A  
DOCKED: ATOM     15  C   UNL     1     134.209  72.965 225.557 -0.24 -0.00    +0.119 A  
DOCKED: ATOM     16  C   UNL     1     135.272  74.892 224.560 -0.34 -0.00    +0.011 A  
DOCKED: ATOM     17  N   UNL     1     133.588  73.783 226.450 -0.79 -0.02    -0.264 NA 
DOCKED: ATOM     18  C   UNL     1     134.607  75.711 225.477 -0.37 -0.00    +0.021 A  
DOCKED: ATOM     19  C   UNL     1     133.762  75.133 226.426 -0.31 +0.01    +0.111 A  
DOCKED: ENDBRANCH  13  14
DOCKED: ENDBRANCH  12  13
DOCKED: ENDBRANCH   1  12
DOCKED: BRANCH  11  20
DOCKED: ATOM     20  C   UNL     1     138.831  71.844 222.108 -0.15 -0.04    +0.163 C  
DOCKED: BRANCH  20  21
DOCKED: ATOM     21  C   UNL     1     139.224  71.285 223.454 -0.32 +0.01    -0.028 A  
DOCKED: ATOM     22  C   UNL     1     138.471  70.257 224.047 -0.30 -0.00    +0.007 A  
DOCKED: ATOM     23  C   UNL     1     140.325  71.822 224.149 -0.40 -0.00    +0.007 A  
DOCKED: ATOM     24  C   UNL     1     138.791  69.800 225.328 -0.36 -0.00    +0.021 A  
DOCKED: ATOM     25  C   UNL     1     140.635  71.367 225.431 -0.56 -0.00    +0.021 A  
DOCKED: ATOM     26  C   UNL     1     139.867  70.358 226.023 -0.47 -0.01    +0.041 A  
DOCKED: ATOM     27  Cl  UNL     1     140.248  69.804 227.643 -0.77 +0.01    -0.084 Cl 
DOCKED: ENDBRANCH  20  21
DOCKED: ENDBRANCH  11  20
DOCKED: TORSDOF 5
DOCKED: TER
DOCKED: ENDMDL
________________________________________________________________________________


    FINAL DOCKED STATE:
    ________________________


Run:   17 / 20
Time taken for this run:   0.019s

DOCKED: MODEL        17
DOCKED: USER    Run = 17
DOCKED: USER
DOCKED: USER    Estimated Free Energy of Binding    =  -7.45 kcal/mol  [=(1)+(2)+(3)-(4)]
DOCKED: USER
DOCKED: USER    (1) Final Intermolecular Energy     =  -8.94 kcal/mol
DOCKED: USER        vdW + Hbond + desolv Energy     =  -8.97 kcal/mol
DOCKED: USER        Electrostatic Energy            =  +0.04 kcal/mol
DOCKED: USER        Moving Ligand-Fixed Receptor    =  -8.94 kcal/mol
DOCKED: USER        Moving Ligand-Moving Receptor   =  +0.00 kcal/mol
DOCKED: USER    (2) Final Total Internal Energy     =  -1.08 kcal/mol
DOCKED: USER    (3) Torsional Free Energy           =  +1.49 kcal/mol
DOCKED: USER    (4) Unbound System's Energy         =  -1.08 kcal/mol
DOCKED: USER
DOCKED: USER
DOCKED: REMARK SMILES O=c1c2ccccc2nc(/C=C/c2cccnc2)n1Cc1ccc(Cl)cc1
DOCKED: REMARK SMILES IDX 10 1 9 2 8 3 7 4 6 5 5 6 4 7 3 8 2 9 1 10 19 11 11 12 12 13
DOCKED: REMARK SMILES IDX 13 14 18 15 14 16 17 17 15 18 16 19 20 20 21 21 22 22 27 23
DOCKED: REMARK SMILES IDX 23 24 26 25 24 26 25 27
DOCKED: REMARK H PARENT
DOCKED: USER                              x       y       z     vdW  Elec       q    Type
DOCKED: USER                           _______ _______ _______ _____ _____    ______ ____
DOCKED: ROOT
DOCKED: ATOM      1  C   UNL     1     141.032  74.599 221.301 -0.26 -0.03    +0.136 A  
DOCKED: ATOM      2  N   UNL     1     142.244  75.029 220.866 -0.19 +0.09    -0.230 NA 
DOCKED: ATOM      3  C   UNL     1     143.241  74.166 220.567 -0.29 -0.02    +0.078 A  
DOCKED: ATOM      4  C   UNL     1     144.483  74.653 220.136 -0.42 -0.01    +0.029 A  
DOCKED: ATOM      5  C   UNL     1     145.517  73.762 219.839 -0.43 -0.00    +0.002 A  
DOCKED: ATOM      6  C   UNL     1     145.313  72.385 219.965 -0.43 +0.00    +0.001 A  
DOCKED: ATOM      7  C   UNL     1     144.074  71.892 220.390 -0.32 -0.00    +0.016 A  
DOCKED: ATOM      8  C   UNL     1     143.027  72.783 220.697 -0.26 -0.01    +0.066 A  
DOCKED: ATOM      9  C   UNL     1     141.764  72.342 221.129 -0.15 -0.03    +0.261 A  
DOCKED: ATOM     10  O   UNL     1     141.546  71.103 221.234 -0.05 +0.03    -0.269 OA 
DOCKED: ATOM     11  N   UNL     1     140.775  73.252 221.428 -0.15 +0.03    -0.288 N  
DOCKED: ENDROOT
DOCKED: BRANCH   1  12
DOCKED: ATOM     12  C   UNL     1     140.017  75.618 221.617 -0.31 -0.01    +0.048 C  
DOCKED: BRANCH  12  13
DOCKED: ATOM     13  C   UNL     1     140.230  76.505 222.594 -0.22 -0.00    +0.013 C  
DOCKED: BRANCH  13  14
DOCKED: ATOM     14  C   UNL     1     140.999  77.749 222.391 -0.45 +0.00    -0.007 A  
DOCKED: ATOM     15  C   UNL     1     141.180  78.309 221.113 -0.26 -0.05    +0.119 A  
DOCKED: ATOM     16  C   UNL     1     141.512  78.435 223.503 -0.55 -0.00    +0.011 A  
DOCKED: ATOM     17  N   UNL     1     141.835  79.494 220.971 -0.20 +0.14    -0.264 NA 
DOCKED: ATOM     18  C   UNL     1     142.196  79.641 223.326 -0.61 -0.01    +0.021 A  
DOCKED: ATOM     19  C   UNL     1     142.348  80.161 222.041 -0.43 -0.04    +0.111 A  
DOCKED: ENDBRANCH  13  14
DOCKED: ENDBRANCH  12  13
DOCKED: ENDBRANCH   1  12
DOCKED: BRANCH  11  20
DOCKED: ATOM     20  C   UNL     1     139.429  72.787 221.842 -0.19 -0.03    +0.163 C  
DOCKED: BRANCH  20  21
DOCKED: ATOM     21  C   UNL     1     139.516  71.851 223.023 -0.31 +0.01    -0.028 A  
DOCKED: ATOM     22  C   UNL     1     138.512  70.894 223.250 -0.25 -0.00    +0.007 A  
DOCKED: ATOM     23  C   UNL     1     140.584  71.959 223.934 -0.29 -0.00    +0.007 A  
DOCKED: ATOM     24  C   UNL     1     138.556  70.086 224.389 -0.32 -0.00    +0.021 A  
DOCKED: ATOM     25  C   UNL     1     140.618  71.155 225.073 -0.53 -0.00    +0.021 A  
DOCKED: ATOM     26  C   UNL     1     139.604  70.219 225.304 -0.42 -0.01    +0.041 A  
DOCKED: ATOM     27  Cl  UNL     1     139.641  69.225 226.747 -0.68 +0.01    -0.084 Cl 
DOCKED: ENDBRANCH  20  21
DOCKED: ENDBRANCH  11  20
DOCKED: TORSDOF 5
DOCKED: TER
DOCKED: ENDMDL
________________________________________________________________________________


    FINAL DOCKED STATE:
    ________________________


Run:   18 / 20
Time taken for this run:   0.019s

DOCKED: MODEL        18
DOCKED: USER    Run = 18
DOCKED: USER
DOCKED: USER    Estimated Free Energy of Binding    =  -7.41 kcal/mol  [=(1)+(2)+(3)-(4)]
DOCKED: USER
DOCKED: USER    (1) Final Intermolecular Energy     =  -8.90 kcal/mol
DOCKED: USER        vdW + Hbond + desolv Energy     =  -8.88 kcal/mol
DOCKED: USER        Electrostatic Energy            =  -0.02 kcal/mol
DOCKED: USER        Moving Ligand-Fixed Receptor    =  -8.90 kcal/mol
DOCKED: USER        Moving Ligand-Moving Receptor   =  +0.00 kcal/mol
DOCKED: USER    (2) Final Total Internal Energy     =  -1.13 kcal/mol
DOCKED: USER    (3) Torsional Free Energy           =  +1.49 kcal/mol
DOCKED: USER    (4) Unbound System's Energy         =  -1.13 kcal/mol
DOCKED: USER
DOCKED: USER
DOCKED: REMARK SMILES O=c1c2ccccc2nc(/C=C/c2cccnc2)n1Cc1ccc(Cl)cc1
DOCKED: REMARK SMILES IDX 10 1 9 2 8 3 7 4 6 5 5 6 4 7 3 8 2 9 1 10 19 11 11 12 12 13
DOCKED: REMARK SMILES IDX 13 14 18 15 14 16 17 17 15 18 16 19 20 20 21 21 22 22 27 23
DOCKED: REMARK SMILES IDX 23 24 26 25 24 26 25 27
DOCKED: REMARK H PARENT
DOCKED: USER                              x       y       z     vdW  Elec       q    Type
DOCKED: USER                           _______ _______ _______ _____ _____    ______ ____
DOCKED: ROOT
DOCKED: ATOM      1  C   UNL     1     140.615  74.466 221.635 -0.26 -0.02    +0.136 A  
DOCKED: ATOM      2  N   UNL     1     141.766  75.027 221.182 -0.22 +0.07    -0.230 NA 
DOCKED: ATOM      3  C   UNL     1     142.822  74.275 220.799 -0.24 -0.02    +0.078 A  
DOCKED: ATOM      4  C   UNL     1     143.997  74.895 220.352 -0.37 -0.01    +0.029 A  
DOCKED: ATOM      5  C   UNL     1     145.094  74.120 219.968 -0.39 -0.00    +0.002 A  
DOCKED: ATOM      6  C   UNL     1     145.018  72.725 220.023 -0.44 +0.00    +0.001 A  
DOCKED: ATOM      7  C   UNL     1     143.847  72.099 220.463 -0.32 -0.00    +0.016 A  
DOCKED: ATOM      8  C   UNL     1     142.738  72.873 220.858 -0.24 -0.01    +0.066 A  
DOCKED: ATOM      9  C   UNL     1     141.538  72.297 221.309 -0.15 -0.03    +0.261 A  
DOCKED: ATOM     10  O   UNL     1     141.436  71.039 221.352 +0.01 +0.03    -0.269 OA 
DOCKED: ATOM     11  N   UNL     1     140.485  73.096 221.695 -0.17 +0.03    -0.288 N  
DOCKED: ENDROOT
DOCKED: BRANCH   1  12
DOCKED: ATOM     12  C   UNL     1     139.528  75.369 222.044 -0.28 -0.01    +0.048 C  
DOCKED: BRANCH  12  13
DOCKED: ATOM     13  C   UNL     1     139.483  76.625 221.588 -0.28 -0.00    +0.013 C  
DOCKED: BRANCH  13  14
DOCKED: ATOM     14  C   UNL     1     140.048  77.768 222.332 -0.37 +0.00    -0.007 A  
DOCKED: ATOM     15  C   UNL     1     139.241  78.614 223.116 -0.27 -0.02    +0.119 A  
DOCKED: ATOM     16  C   UNL     1     141.433  77.988 222.316 -0.39 -0.01    +0.011 A  
DOCKED: ATOM     17  N   UNL     1     139.805  79.616 223.844 -0.26 +0.04    -0.264 NA 
DOCKED: ATOM     18  C   UNL     1     141.984  79.037 223.059 -0.57 -0.01    +0.021 A  
DOCKED: ATOM     19  C   UNL     1     141.146  79.847 223.826 -0.45 -0.02    +0.111 A  
DOCKED: ENDBRANCH  13  14
DOCKED: ENDBRANCH  12  13
DOCKED: ENDBRANCH   1  12
DOCKED: BRANCH  11  20
DOCKED: ATOM     20  C   UNL     1     139.203  72.489 222.129 -0.19 -0.04    +0.163 C  
DOCKED: BRANCH  20  21
DOCKED: ATOM     21  C   UNL     1     139.403  71.603 223.335 -0.31 +0.01    -0.028 A  
DOCKED: ATOM     22  C   UNL     1     138.541  70.518 223.573 -0.27 -0.00    +0.007 A  
DOCKED: ATOM     23  C   UNL     1     140.429  71.884 224.257 -0.38 -0.00    +0.007 A  
DOCKED: ATOM     24  C   UNL     1     138.680  69.751 224.734 -0.35 -0.00    +0.021 A  
DOCKED: ATOM     25  C   UNL     1     140.558  71.119 225.417 -0.55 -0.00    +0.021 A  
DOCKED: ATOM     26  C   UNL     1     139.683  70.054 225.658 -0.43 -0.01    +0.041 A  
DOCKED: ATOM     27  Cl  UNL     1     139.837  69.109 227.127 -0.73 +0.01    -0.084 Cl 
DOCKED: ENDBRANCH  20  21
DOCKED: ENDBRANCH  11  20
DOCKED: TORSDOF 5
DOCKED: TER
DOCKED: ENDMDL
________________________________________________________________________________


    FINAL DOCKED STATE:
    ________________________


Run:   19 / 20
Time taken for this run:   0.019s

DOCKED: MODEL        19
DOCKED: USER    Run = 19
DOCKED: USER
DOCKED: USER    Estimated Free Energy of Binding    =  -7.40 kcal/mol  [=(1)+(2)+(3)-(4)]
DOCKED: USER
DOCKED: USER    (1) Final Intermolecular Energy     =  -8.89 kcal/mol
DOCKED: USER        vdW + Hbond + desolv Energy     =  -8.87 kcal/mol
DOCKED: USER        Electrostatic Energy            =  -0.03 kcal/mol
DOCKED: USER        Moving Ligand-Fixed Receptor    =  -8.89 kcal/mol
DOCKED: USER        Moving Ligand-Moving Receptor   =  +0.00 kcal/mol
DOCKED: USER    (2) Final Total Internal Energy     =  -1.14 kcal/mol
DOCKED: USER    (3) Torsional Free Energy           =  +1.49 kcal/mol
DOCKED: USER    (4) Unbound System's Energy         =  -1.14 kcal/mol
DOCKED: USER
DOCKED: USER
DOCKED: REMARK SMILES O=c1c2ccccc2nc(/C=C/c2cccnc2)n1Cc1ccc(Cl)cc1
DOCKED: REMARK SMILES IDX 10 1 9 2 8 3 7 4 6 5 5 6 4 7 3 8 2 9 1 10 19 11 11 12 12 13
DOCKED: REMARK SMILES IDX 13 14 18 15 14 16 17 17 15 18 16 19 20 20 21 21 22 22 27 23
DOCKED: REMARK SMILES IDX 23 24 26 25 24 26 25 27
DOCKED: REMARK H PARENT
DOCKED: USER                              x       y       z     vdW  Elec       q    Type
DOCKED: USER                           _______ _______ _______ _____ _____    ______ ____
DOCKED: ROOT
DOCKED: ATOM      1  C   UNL     1     140.261  74.398 221.730 -0.23 -0.02    +0.136 A  
DOCKED: ATOM      2  N   UNL     1     141.355  74.998 221.195 -0.25 +0.06    -0.230 NA 
DOCKED: ATOM      3  C   UNL     1     142.416  74.283 220.757 -0.25 -0.02    +0.078 A  
DOCKED: ATOM      4  C   UNL     1     143.533  74.943 220.225 -0.36 -0.01    +0.029 A  
DOCKED: ATOM      5  C   UNL     1     144.634  74.207 219.783 -0.38 -0.00    +0.002 A  
DOCKED: ATOM      6  C   UNL     1     144.621  72.811 219.865 -0.38 -0.00    +0.001 A  
DOCKED: ATOM      7  C   UNL     1     143.508  72.146 220.389 -0.29 -0.00    +0.016 A  
DOCKED: ATOM      8  C   UNL     1     142.395  72.881 220.843 -0.24 -0.01    +0.066 A  
DOCKED: ATOM      9  C   UNL     1     141.251  72.264 221.379 -0.15 -0.03    +0.261 A  
DOCKED: ATOM     10  O   UNL     1     141.206  71.004 221.448 -0.01 +0.03    -0.269 OA 
DOCKED: ATOM     11  N   UNL     1     140.192  73.025 221.820 -0.17 +0.04    -0.288 N  
DOCKED: ENDROOT
DOCKED: BRANCH   1  12
DOCKED: ATOM     12  C   UNL     1     139.164  75.263 222.195 -0.25 -0.01    +0.048 C  
DOCKED: BRANCH  12  13
DOCKED: ATOM     13  C   UNL     1     139.063  76.522 221.757 -0.27 -0.00    +0.013 C  
DOCKED: BRANCH  13  14
DOCKED: ATOM     14  C   UNL     1     139.706  77.662 222.440 -0.34 +0.00    -0.007 A  
DOCKED: ATOM     15  C   UNL     1     138.964  78.766 222.900 -0.26 -0.02    +0.119 A  
DOCKED: ATOM     16  C   UNL     1     141.084  77.625 222.701 -0.46 -0.00    +0.011 A  
DOCKED: ATOM     17  N   UNL     1     139.580  79.766 223.588 -0.24 +0.04    -0.264 NA 
DOCKED: ATOM     18  C   UNL     1     141.694  78.675 223.394 -0.58 -0.01    +0.021 A  
DOCKED: ATOM     19  C   UNL     1     140.918  79.747 223.836 -0.44 -0.02    +0.111 A  
DOCKED: ENDBRANCH  13  14
DOCKED: ENDBRANCH  12  13
DOCKED: ENDBRANCH   1  12
DOCKED: BRANCH  11  20
DOCKED: ATOM     20  C   UNL     1     138.968  72.374 222.345 -0.17 -0.04    +0.163 C  
DOCKED: BRANCH  20  21
DOCKED: ATOM     21  C   UNL     1     139.282  71.518 223.549 -0.32 +0.01    -0.028 A  
DOCKED: ATOM     22  C   UNL     1     138.508  70.381 223.836 -0.29 -0.00    +0.007 A  
DOCKED: ATOM     23  C   UNL     1     140.327  71.878 224.420 -0.38 -0.00    +0.007 A  
DOCKED: ATOM     24  C   UNL     1     138.751  69.639 224.996 -0.37 -0.00    +0.021 A  
DOCKED: ATOM     25  C   UNL     1     140.561  71.138 225.579 -0.57 -0.00    +0.021 A  
DOCKED: ATOM     26  C   UNL     1     139.772  70.020 225.870 -0.45 -0.01    +0.041 A  
DOCKED: ATOM     27  Cl  UNL     1     140.056  69.105 227.339 -0.77 +0.01    -0.084 Cl 
DOCKED: ENDBRANCH  20  21
DOCKED: ENDBRANCH  11  20
DOCKED: TORSDOF 5
DOCKED: TER
DOCKED: ENDMDL
________________________________________________________________________________


    FINAL DOCKED STATE:
    ________________________


Run:   20 / 20
Time taken for this run:   0.019s

DOCKED: MODEL        20
DOCKED: USER    Run = 20
DOCKED: USER
DOCKED: USER    Estimated Free Energy of Binding    =  -7.48 kcal/mol  [=(1)+(2)+(3)-(4)]
DOCKED: USER
DOCKED: USER    (1) Final Intermolecular Energy     =  -8.97 kcal/mol
DOCKED: USER        vdW + Hbond + desolv Energy     =  -8.78 kcal/mol
DOCKED: USER        Electrostatic Energy            =  -0.19 kcal/mol
DOCKED: USER        Moving Ligand-Fixed Receptor    =  -8.97 kcal/mol
DOCKED: USER        Moving Ligand-Moving Receptor   =  +0.00 kcal/mol
DOCKED: USER    (2) Final Total Internal Energy     =  -1.21 kcal/mol
DOCKED: USER    (3) Torsional Free Energy           =  +1.49 kcal/mol
DOCKED: USER    (4) Unbound System's Energy         =  -1.21 kcal/mol
DOCKED: USER
DOCKED: USER
DOCKED: REMARK SMILES O=c1c2ccccc2nc(/C=C/c2cccnc2)n1Cc1ccc(Cl)cc1
DOCKED: REMARK SMILES IDX 10 1 9 2 8 3 7 4 6 5 5 6 4 7 3 8 2 9 1 10 19 11 11 12 12 13
DOCKED: REMARK SMILES IDX 13 14 18 15 14 16 17 17 15 18 16 19 20 20 21 21 22 22 27 23
DOCKED: REMARK SMILES IDX 23 24 26 25 24 26 25 27
DOCKED: REMARK H PARENT
DOCKED: USER                              x       y       z     vdW  Elec       q    Type
DOCKED: USER                           _______ _______ _______ _____ _____    ______ ____
DOCKED: ROOT
DOCKED: ATOM      1  C   UNL     1     140.893  72.687 221.523 -0.23 -0.01    +0.136 A  
DOCKED: ATOM      2  N   UNL     1     141.211  73.994 221.337 -0.29 +0.03    -0.230 NA 
DOCKED: ATOM      3  C   UNL     1     140.325  74.984 221.583 -0.30 -0.01    +0.078 A  
DOCKED: ATOM      4  C   UNL     1     140.689  76.320 221.362 -0.32 -0.01    +0.029 A  
DOCKED: ATOM      5  C   UNL     1     139.770  77.344 221.605 -0.27 -0.00    +0.002 A  
DOCKED: ATOM      6  C   UNL     1     138.488  77.037 222.072 -0.26 -0.00    +0.001 A  
DOCKED: ATOM      7  C   UNL     1     138.120  75.707 222.300 -0.27 -0.00    +0.016 A  
DOCKED: ATOM      8  C   UNL     1     139.039  74.668 222.053 -0.21 -0.02    +0.066 A  
DOCKED: ATOM      9  C   UNL     1     138.721  73.314 222.263 +0.03 -0.08    +0.261 A  
DOCKED: ATOM     10  O   UNL     1     137.577  73.010 222.702 -0.03 +0.11    -0.269 OA 
DOCKED: ATOM     11  N   UNL     1     139.649  72.333 221.997 -0.14 +0.05    -0.288 N  
DOCKED: ENDROOT
DOCKED: BRANCH   1  12
DOCKED: ATOM     12  C   UNL     1     141.922  71.681 221.211 -0.14 -0.00    +0.048 C  
DOCKED: BRANCH  12  13
DOCKED: ATOM     13  C   UNL     1     142.691  71.814 220.126 -0.21 -0.00    +0.013 C  
DOCKED: BRANCH  13  14
DOCKED: ATOM     14  C   UNL     1     144.020  72.457 220.161 -0.33 +0.00    -0.007 A  
DOCKED: ATOM     15  C   UNL     1     145.124  71.917 219.476 -0.27 +0.03    +0.119 A  
DOCKED: ATOM     16  C   UNL     1     144.182  73.675 220.840 -0.42 -0.00    +0.011 A  
DOCKED: ATOM     17  N   UNL     1     146.316  72.575 219.472 -0.59 -0.26    -0.264 NA 
DOCKED: ATOM     18  C   UNL     1     145.422  74.319 220.835 -0.52 -0.01    +0.021 A  
DOCKED: ATOM     19  C   UNL     1     146.488  73.749 220.138 -0.39 +0.02    +0.111 A  
DOCKED: ENDBRANCH  13  14
DOCKED: ENDBRANCH  12  13
DOCKED: ENDBRANCH   1  12
DOCKED: BRANCH  11  20
DOCKED: ATOM     20  C   UNL     1     139.330  70.909 222.259 -0.16 -0.03    +0.163 C  
DOCKED: BRANCH  20  21
DOCKED: ATOM     21  C   UNL     1     139.601  70.547 223.699 -0.32 +0.01    -0.028 A  
DOCKED: ATOM     22  C   UNL     1     140.364  71.398 224.517 -0.48 -0.00    +0.007 A  
DOCKED: ATOM     23  C   UNL     1     139.128  69.329 224.224 -0.33 -0.00    +0.007 A  
DOCKED: ATOM     24  C   UNL     1     140.680  71.019 225.825 -0.59 -0.00    +0.021 A  
DOCKED: ATOM     25  C   UNL     1     139.453  68.953 225.527 -0.44 -0.00    +0.021 A  
DOCKED: ATOM     26  C   UNL     1     140.231  69.796 226.329 -0.49 -0.01    +0.041 A  
DOCKED: ATOM     27  Cl  UNL     1     140.654  69.310 227.959 -0.79 +0.02    -0.084 Cl 
DOCKED: ENDBRANCH  20  21
DOCKED: ENDBRANCH  11  20
DOCKED: TORSDOF 5
DOCKED: TER
DOCKED: ENDMDL
________________________________________________________________________________


    CLUSTERING HISTOGRAM
    ____________________


________________________________________________________________________________
     |           |     |           |     |
Clus | Lowest    | Run | Mean      | Num | Histogram
-ter | Binding   |     | Binding   | in  |
Rank | Energy    |     | Energy    | Clus|    5    10   15   20   25   30   35
_____|___________|_____|___________|_____|____:____|____:____|____:____|____:___
   1 |     -7.61 |   1 |     -7.47 |   5 |#####
   2 |     -7.48 |   6 |     -7.44 |   5 |#####
   3 |     -7.45 |   4 |     -7.44 |   2 |##
   4 |     -7.42 |   3 |     -7.42 |   1 |#
   5 |     -7.38 |   5 |     -7.33 |   3 |###
   6 |     -7.36 |   9 |     -7.31 |   3 |###
   7 |     -7.23 |  11 |     -7.23 |   1 |#
_____|___________|_____|___________|_____|______________________________________


    RMSD TABLE
    __________


_______________________________________________________________________
     |      |      |           |         |                 |
Rank | Sub- | Run  | Binding   | Cluster | Reference       | Grep
     | Rank |      | Energy    | RMSD    | RMSD            | Pattern
_____|______|______|___________|_________|_________________|___________
   1      1      1       -7.61      0.00    268.93           RANKING
   1      2     14       -7.59      0.80    268.72           RANKING
   1      3      2       -7.49      0.43    268.98           RANKING
   1      4     20       -7.48      0.56    268.92           RANKING
   1      5     12       -7.21      0.83    268.81           RANKING
   2      1      6       -7.48      0.00    269.38           RANKING
   2      2      8       -7.45      0.44    269.32           RANKING
   2      3     17       -7.45      0.81    269.31           RANKING
   2      4     18       -7.41      0.44    269.36           RANKING
   2      5     19       -7.40      0.75    269.29           RANKING
   3      1      4       -7.45      0.00    269.05           RANKING
   3      2     10       -7.44      0.31    269.16           RANKING
   4      1      3       -7.42      0.00    268.29           RANKING
   5      1      5       -7.38      0.00    268.78           RANKING
   5      2     15       -7.38      0.06    268.79           RANKING
   5      3      7       -7.21      0.32    268.65           RANKING
   6      1      9       -7.36      0.00    268.67           RANKING
   6      2     16       -7.30      0.20    268.70           RANKING
   6      3     13       -7.29      0.77    268.69           RANKING
   7      1     11       -7.23      0.00    268.37           RANKING

Run time 0.367 sec
Idle time 0.000 sec
