AutoDock-GPU version: v1.6

**********************************************************
**    AutoDock-GPU AUTODOCKTOOLS-COMPATIBLE DLG FILE    **
**********************************************************


    DOCKING PARAMETERS
    ________________________


Ligand file:                               /home/a/REINVENT4/ReinventStudies/scoringData/graph-dock-h4r84i/graph-DockGPU/node-autodockgpu/inputs/BKKYOBILRJMROL-DTVRUWFINA-N.pdbqt
Grid fld file:                             /home/a/REINVENT4/ReinventStudies/mols/Rad51/maps/rad51_receptor.maps.fld

Random seed:                               42
Number of runs:                            20
Number of energy evaluations:              1132076
Number of generations:                     42000
Size of population:                        150
Rate of crossover:                         80.000000%
Tournament selection probability limit:    60.000000%
Rate of mutation:                          2.000000%
Maximal allowed delta movement:            +/- 6.000000A
Maximal allowed delta angle:               +/- 90.000000

Rate of local search:                      100.000000%
Maximal number of local search iterations: 300
Rho lower bound:                           0.010000
Spread of local search delta movement:     2.000000A
Spread of local search delta angle:        74.999999
Limit of consecutive successes/failures:   4

Handle symmetry during clustering:         YES
RMSD tolerance:                            2.000000A

Program call in command line was:          /home/a/REINVENT4/ReinventStudies/adgpu-v1.6_linux_x64_cuda12_128wi --filelist batch.txt --heuristics 1 --nrun 20 --psize 150 --lsit 300 --seed 42 --heurmax 12000000 


    GRID PARAMETERS
    ________________________


Receptor name:                             rad51_receptor
Number of grid points (x, y, z):           53, 53, 53
Grid center (x, y, z):                     139.950000, 75.640000, 221.970000A
Grid size (x, y, z):                       19.500000, 19.500000, 19.500000A
Grid spacing:                              0.375000A


    LIGAND PARAMETERS
    ________________________


Ligand name:                               /home/a/REINVENT4/ReinventStudies/scoringData/graph-dock-h4r84i/graph-DockGPU/node-autodockgpu/inputs/BKKYOBILRJMROL-DTVRUWFINA-N
Number of atoms:                           35
Number of rotatable bonds:                 5
Number of atom types:                      6


    DUMMY DATA (only for ADT-compatibility)
    ________________________


DPF> outlev 1
DPF> ga_run 20
DPF> fld /home/a/REINVENT4/ReinventStudies/mols/Rad51/maps/rad51_receptor.maps.fld
DPF> move /home/a/REINVENT4/ReinventStudies/scoringData/graph-dock-h4r84i/graph-DockGPU/node-autodockgpu/inputs/BKKYOBILRJMROL-DTVRUWFINA-N.pdbqt


    COUNTER STATES
    ________________________


Number of energy evaluations performed:    430640
Number of generations used:                40


    INPUT LIGAND PDBQT FILE:
    ________________________


INPUT-LIGAND-PDBQT: REMARK SMILES [N-]=C(O)c1ccc2cc(C(=O)N3C[C@]4(CCN([C@@H]5CCNC5)C4)c4ccccc43)[nH]c2c1
INPUT-LIGAND-PDBQT: REMARK SMILES IDX 4 1 5 2 6 3 7 4 8 5 9 6 30 7 31 8 32 9 2 11 1 12 3 13 10 15
INPUT-LIGAND-PDBQT: REMARK SMILES IDX 11 16 12 17 13 18 29 19 14 20 28 21 24 22 15 23 23 24 27 25
INPUT-LIGAND-PDBQT: REMARK SMILES IDX 25 26 16 27 17 28 26 29 18 30 19 31 22 32 20 33 21 34
INPUT-LIGAND-PDBQT: REMARK H PARENT 30 10 3 14 21 35
INPUT-LIGAND-PDBQT: ROOT
INPUT-LIGAND-PDBQT: ATOM      1  C   UNL     1      -2.715  -3.679   4.894  1.00  0.00    -0.006 A 
INPUT-LIGAND-PDBQT: ATOM      2  C   UNL     1      -2.589  -3.041   6.160  1.00  0.00     0.010 A 
INPUT-LIGAND-PDBQT: ATOM      3  C   UNL     1      -1.875  -1.837   6.294  1.00  0.00     0.011 A 
INPUT-LIGAND-PDBQT: ATOM      4  C   UNL     1      -1.299  -1.292   5.151  1.00  0.00     0.000 A 
INPUT-LIGAND-PDBQT: ATOM      5  C   UNL     1      -0.564  -0.140   4.981  1.00  0.00     0.042 A 
INPUT-LIGAND-PDBQT: ATOM      6  C   UNL     1      -0.260  -0.105   3.622  1.00  0.00     0.106 A 
INPUT-LIGAND-PDBQT: ATOM      7  N   UNL     1      -0.789  -1.176   2.980  1.00  0.00    -0.350 N 
INPUT-LIGAND-PDBQT: ATOM      8  C   UNL     1      -1.414  -1.893   3.928  1.00  0.00     0.047 A 
INPUT-LIGAND-PDBQT: ATOM      9  C   UNL     1      -2.113  -3.087   3.759  1.00  0.00     0.036 A 
INPUT-LIGAND-PDBQT: ATOM     10  H   UNL     1      -0.745  -1.392   1.959  1.00  0.00     0.167 HD
INPUT-LIGAND-PDBQT: ENDROOT
INPUT-LIGAND-PDBQT: BRANCH   1  11
INPUT-LIGAND-PDBQT: ATOM     11  C   UNL     1      -3.462  -4.950   4.754  1.00  0.00    -0.000 C 
INPUT-LIGAND-PDBQT: ATOM     12  N   UNL     1      -4.065  -5.477   5.771  1.00  0.00    -0.771 NA
INPUT-LIGAND-PDBQT: BRANCH  11  13
INPUT-LIGAND-PDBQT: ATOM     13  O   UNL     1      -3.521  -5.592   3.519  1.00  0.00    -0.532 OA
INPUT-LIGAND-PDBQT: ATOM     14  H   UNL     1      -4.023  -6.465   3.407  1.00  0.00     0.290 HD
INPUT-LIGAND-PDBQT: ENDBRANCH  11  13
INPUT-LIGAND-PDBQT: ENDBRANCH   1  11
INPUT-LIGAND-PDBQT: BRANCH   6  15
INPUT-LIGAND-PDBQT: ATOM     15  C   UNL     1       0.498   0.967   2.952  1.00  0.00     0.274 C 
INPUT-LIGAND-PDBQT: ATOM     16  O   UNL     1       0.688   2.059   3.551  1.00  0.00    -0.267 OA
INPUT-LIGAND-PDBQT: BRANCH  15  17
INPUT-LIGAND-PDBQT: ATOM     17  N   UNL     1       0.980   0.808   1.611  1.00  0.00    -0.306 N 
INPUT-LIGAND-PDBQT: ATOM     18  C   UNL     1       0.803   1.806   0.559  1.00  0.00     0.139 C 
INPUT-LIGAND-PDBQT: ATOM     19  C   UNL     1       1.716  -0.290   1.094  1.00  0.00     0.048 A 
INPUT-LIGAND-PDBQT: ATOM     20  C   UNL     1       1.389   1.156  -0.743  1.00  0.00     0.029 C 
INPUT-LIGAND-PDBQT: ATOM     21  C   UNL     1       2.204  -1.391   1.808  1.00  0.00     0.026 A 
INPUT-LIGAND-PDBQT: ATOM     22  C   UNL     1       1.974  -0.136  -0.243  1.00  0.00    -0.015 A 
INPUT-LIGAND-PDBQT: ATOM     23  C   UNL     1       0.321   0.942  -1.809  1.00  0.00     0.030 C 
INPUT-LIGAND-PDBQT: ATOM     24  C   UNL     1       2.404   2.062  -1.444  1.00  0.00     0.098 C 
INPUT-LIGAND-PDBQT: ATOM     25  C   UNL     1       2.928  -2.372   1.113  1.00  0.00     0.002 A 
INPUT-LIGAND-PDBQT: ATOM     26  C   UNL     1       2.690  -1.107  -0.955  1.00  0.00     0.006 A 
INPUT-LIGAND-PDBQT: ATOM     27  C   UNL     1       0.334   2.237  -2.607  1.00  0.00     0.086 C 
INPUT-LIGAND-PDBQT: ATOM     28  N   UNL     1       1.639   2.894  -2.387  1.00  0.00    -0.298 NA
INPUT-LIGAND-PDBQT: ATOM     29  C   UNL     1       3.166  -2.233  -0.266  1.00  0.00     0.000 A 
INPUT-LIGAND-PDBQT: BRANCH  28  30
INPUT-LIGAND-PDBQT: ATOM     30  C   UNL     1       2.409   3.229  -3.613  1.00  0.00     0.071 C 
INPUT-LIGAND-PDBQT: ATOM     31  C   UNL     1       1.716   4.314  -4.432  1.00  0.00     0.036 C 
INPUT-LIGAND-PDBQT: ATOM     32  C   UNL     1       2.614   2.054  -4.584  1.00  0.00     0.100 C 
INPUT-LIGAND-PDBQT: ATOM     33  C   UNL     1       1.741   3.802  -5.861  1.00  0.00     0.082 C 
INPUT-LIGAND-PDBQT: ATOM     34  N   UNL     1       1.860   2.348  -5.800  1.00  0.00    -0.315 NA
INPUT-LIGAND-PDBQT: ATOM     35  H   UNL     1       2.398   2.012  -6.633  1.00  0.00     0.122 HD
INPUT-LIGAND-PDBQT: ENDBRANCH  28  30
INPUT-LIGAND-PDBQT: ENDBRANCH  15  17
INPUT-LIGAND-PDBQT: ENDBRANCH   6  15
INPUT-LIGAND-PDBQT: TORSDOF 5


    FINAL DOCKED STATE:
    ________________________


Run:   1 / 20
Time taken for this run:   0.024s

DOCKED: MODEL        1
DOCKED: USER    Run = 1
DOCKED: USER
DOCKED: USER    Estimated Free Energy of Binding    =  -8.49 kcal/mol  [=(1)+(2)+(3)-(4)]
DOCKED: USER
DOCKED: USER    (1) Final Intermolecular Energy     =  -9.98 kcal/mol
DOCKED: USER        vdW + Hbond + desolv Energy     =  -9.20 kcal/mol
DOCKED: USER        Electrostatic Energy            =  -0.79 kcal/mol
DOCKED: USER        Moving Ligand-Fixed Receptor    =  -9.98 kcal/mol
DOCKED: USER        Moving Ligand-Moving Receptor   =  +0.00 kcal/mol
DOCKED: USER    (2) Final Total Internal Energy     =  -1.20 kcal/mol
DOCKED: USER    (3) Torsional Free Energy           =  +1.49 kcal/mol
DOCKED: USER    (4) Unbound System's Energy         =  -1.20 kcal/mol
DOCKED: USER
DOCKED: USER
DOCKED: REMARK SMILES [N-]=C(O)c1ccc2cc(C(=O)N3C[C@]4(CCN([C@@H]5CCNC5)C4)c4ccccc43)[nH]c2c1
DOCKED: REMARK SMILES IDX 4 1 5 2 6 3 7 4 8 5 9 6 30 7 31 8 32 9 2 11 1 12 3 13 10 15
DOCKED: REMARK SMILES IDX 11 16 12 17 13 18 29 19 14 20 28 21 24 22 15 23 23 24 27 25
DOCKED: REMARK SMILES IDX 25 26 16 27 17 28 26 29 18 30 19 31 22 32 20 33 21 34
DOCKED: REMARK H PARENT 30 10 3 14 21 35
DOCKED: USER                              x       y       z     vdW  Elec       q    Type
DOCKED: USER                           _______ _______ _______ _____ _____    ______ ____
DOCKED: ROOT
DOCKED: ATOM      1  C   UNL     1     144.293  73.866 219.640 -0.37 +0.00    -0.006 A  
DOCKED: ATOM      2  C   UNL     1     143.378  73.294 220.568 -0.32 -0.00    +0.010 A  
DOCKED: ATOM      3  C   UNL     1     142.244  74.008 220.996 -0.21 -0.00    +0.011 A  
DOCKED: ATOM      4  C   UNL     1     142.048  75.286 220.483 -0.30 -0.00    +0.000 A  
DOCKED: ATOM      5  C   UNL     1     141.041  76.197 220.711 -0.26 -0.02    +0.042 A  
DOCKED: ATOM      6  C   UNL     1     141.367  77.298 219.921 -0.20 -0.05    +0.106 A  
DOCKED: ATOM      7  N   UNL     1     142.513  77.075 219.231 -0.16 +0.22    -0.350 N  
DOCKED: ATOM      8  C   UNL     1     142.918  75.847 219.590 -0.34 -0.03    +0.047 A  
DOCKED: ATOM      9  C   UNL     1     144.052  75.169 219.145 -0.14 -0.02    +0.036 A  
DOCKED: ATOM     10  H   UNL     1     142.975  77.711 218.543 -0.00 -0.13    +0.167 HD 
DOCKED: ENDROOT
DOCKED: BRANCH   1  11
DOCKED: ATOM     11  C   UNL     1     145.490  73.117 219.193 -0.37 -0.00    -0.000 C  
DOCKED: ATOM     12  N   UNL     1     146.037  72.229 219.959 -0.10 -0.37    -0.771 NA 
DOCKED: BRANCH  11  13
DOCKED: ATOM     13  O   UNL     1     146.040  73.365 217.937 -0.54 -0.31    -0.532 OA 
DOCKED: ATOM     14  H   UNL     1     146.010  74.291 217.527 -0.42 -0.08    +0.290 HD 
DOCKED: ENDBRANCH  11  13
DOCKED: ENDBRANCH   1  11
DOCKED: BRANCH   6  15
DOCKED: ATOM     15  C   UNL     1     140.562  78.527 219.810 -0.08 -0.11    +0.274 C  
DOCKED: ATOM     16  O   UNL     1     140.171  78.912 218.676 -0.03 +0.10    -0.267 OA 
DOCKED: BRANCH  15  17
DOCKED: ATOM     17  N   UNL     1     140.258  79.322 220.964 -0.05 +0.10    -0.306 N  
DOCKED: ATOM     18  C   UNL     1     138.904  79.715 221.348 -0.11 -0.03    +0.139 C  
DOCKED: ATOM     19  C   UNL     1     141.178  79.820 221.923 -0.36 -0.02    +0.048 A  
DOCKED: ATOM     20  C   UNL     1     139.073  80.653 222.593 -0.28 -0.00    +0.029 C  
DOCKED: ATOM     21  C   UNL     1     142.552  79.558 221.991 -0.37 -0.01    +0.026 A  
DOCKED: ATOM     22  C   UNL     1     140.550  80.584 222.872 -0.41 +0.00    -0.015 A  
DOCKED: ATOM     23  C   UNL     1     138.597  82.073 222.312 -0.18 -0.00    +0.030 C  
DOCKED: ATOM     24  C   UNL     1     138.202  80.221 223.775 -0.32 -0.01    +0.098 C  
DOCKED: ATOM     25  C   UNL     1     143.293  80.138 223.032 -0.63 -0.00    +0.002 A  
DOCKED: ATOM     26  C   UNL     1     141.273  81.176 223.915 -0.42 -0.00    +0.006 A  
DOCKED: ATOM     27  C   UNL     1     137.125  82.049 222.696 -0.13 -0.01    +0.086 C  
DOCKED: ATOM     28  N   UNL     1     136.914  80.915 223.619 -0.11 +0.03    -0.298 NA 
DOCKED: ATOM     29  C   UNL     1     142.656  80.949 223.989 -0.65 -0.00    +0.000 A  
DOCKED: BRANCH  28  30
DOCKED: ATOM     30  C   UNL     1     136.281  81.251 224.921 -0.27 -0.01    +0.071 C  
DOCKED: ATOM     31  C   UNL     1     135.553  82.591 224.862 -0.16 -0.00    +0.036 C  
DOCKED: ATOM     32  C   UNL     1     137.261  81.371 226.100 -0.25 -0.01    +0.100 C  
DOCKED: ATOM     33  C   UNL     1     135.992  83.330 226.114 -0.25 -0.00    +0.082 C  
DOCKED: ATOM     34  N   UNL     1     137.277  82.769 226.522 -0.17 +0.02    -0.315 NA 
DOCKED: ATOM     35  H   UNL     1     137.357  82.817 227.565 -0.23 -0.03    +0.122 HD 
DOCKED: ENDBRANCH  28  30
DOCKED: ENDBRANCH  15  17
DOCKED: ENDBRANCH   6  15
DOCKED: TORSDOF 5
DOCKED: TER
DOCKED: ENDMDL
________________________________________________________________________________


    FINAL DOCKED STATE:
    ________________________


Run:   2 / 20
Time taken for this run:   0.024s

DOCKED: MODEL        2
DOCKED: USER    Run = 2
DOCKED: USER
DOCKED: USER    Estimated Free Energy of Binding    =  -9.37 kcal/mol  [=(1)+(2)+(3)-(4)]
DOCKED: USER
DOCKED: USER    (1) Final Intermolecular Energy     = -10.86 kcal/mol
DOCKED: USER        vdW + Hbond + desolv Energy     =  -9.89 kcal/mol
DOCKED: USER        Electrostatic Energy            =  -0.97 kcal/mol
DOCKED: USER        Moving Ligand-Fixed Receptor    = -10.86 kcal/mol
DOCKED: USER        Moving Ligand-Moving Receptor   =  +0.00 kcal/mol
DOCKED: USER    (2) Final Total Internal Energy     =  -1.17 kcal/mol
DOCKED: USER    (3) Torsional Free Energy           =  +1.49 kcal/mol
DOCKED: USER    (4) Unbound System's Energy         =  -1.17 kcal/mol
DOCKED: USER
DOCKED: USER
DOCKED: REMARK SMILES [N-]=C(O)c1ccc2cc(C(=O)N3C[C@]4(CCN([C@@H]5CCNC5)C4)c4ccccc43)[nH]c2c1
DOCKED: REMARK SMILES IDX 4 1 5 2 6 3 7 4 8 5 9 6 30 7 31 8 32 9 2 11 1 12 3 13 10 15
DOCKED: REMARK SMILES IDX 11 16 12 17 13 18 29 19 14 20 28 21 24 22 15 23 23 24 27 25
DOCKED: REMARK SMILES IDX 25 26 16 27 17 28 26 29 18 30 19 31 22 32 20 33 21 34
DOCKED: REMARK H PARENT 30 10 3 14 21 35
DOCKED: USER                              x       y       z     vdW  Elec       q    Type
DOCKED: USER                           _______ _______ _______ _____ _____    ______ ____
DOCKED: ROOT
DOCKED: ATOM      1  C   UNL     1     144.382  73.855 220.258 -0.46 +0.00    -0.006 A  
DOCKED: ATOM      2  C   UNL     1     143.203  73.078 220.439 -0.31 -0.00    +0.010 A  
DOCKED: ATOM      3  C   UNL     1     141.934  73.683 220.449 -0.24 -0.00    +0.011 A  
DOCKED: ATOM      4  C   UNL     1     141.869  75.061 220.275 -0.27 -0.00    +0.000 A  
DOCKED: ATOM      5  C   UNL     1     140.784  75.908 220.232 -0.18 -0.01    +0.042 A  
DOCKED: ATOM      6  C   UNL     1     141.326  77.176 220.028 -0.20 -0.05    +0.106 A  
DOCKED: ATOM      7  N   UNL     1     142.678  77.116 219.939 -0.15 +0.26    -0.350 N  
DOCKED: ATOM      8  C   UNL     1     142.993  75.820 220.098 -0.29 -0.03    +0.047 A  
DOCKED: ATOM      9  C   UNL     1     144.267  75.254 220.084 -0.33 -0.02    +0.036 A  
DOCKED: ATOM     10  H   UNL     1     143.340  77.904 219.760 -0.44 -0.19    +0.167 HD 
DOCKED: ENDROOT
DOCKED: BRANCH   1  11
DOCKED: ATOM     11  C   UNL     1     145.719  73.219 220.254 -0.59 -0.00    -0.000 C  
DOCKED: ATOM     12  N   UNL     1     146.269  72.846 219.143 -0.33 -0.79    -0.771 NA 
DOCKED: BRANCH  11  13
DOCKED: ATOM     13  O   UNL     1     146.398  73.015 221.453 -0.29 +0.05    -0.532 OA 
DOCKED: ATOM     14  H   UNL     1     146.292  72.152 221.974 -0.33 -0.18    +0.290 HD 
DOCKED: ENDBRANCH  11  13
DOCKED: ENDBRANCH   1  11
DOCKED: BRANCH   6  15
DOCKED: ATOM     15  C   UNL     1     140.544  78.417 219.885 -0.08 -0.11    +0.274 C  
DOCKED: ATOM     16  O   UNL     1     140.169  78.784 218.740 -0.03 +0.10    -0.267 OA 
DOCKED: BRANCH  15  17
DOCKED: ATOM     17  N   UNL     1     140.245  79.240 221.020 -0.06 +0.10    -0.306 N  
DOCKED: ATOM     18  C   UNL     1     138.893  79.639 221.403 -0.11 -0.03    +0.139 C  
DOCKED: ATOM     19  C   UNL     1     141.170  79.768 221.958 -0.36 -0.02    +0.048 A  
DOCKED: ATOM     20  C   UNL     1     139.068  80.611 222.622 -0.28 -0.00    +0.029 C  
DOCKED: ATOM     21  C   UNL     1     142.545  79.512 222.023 -0.38 -0.01    +0.026 A  
DOCKED: ATOM     22  C   UNL     1     140.546  80.553 222.891 -0.41 +0.00    -0.015 A  
DOCKED: ATOM     23  C   UNL     1     138.584  82.021 222.307 -0.19 -0.00    +0.030 C  
DOCKED: ATOM     24  C   UNL     1     138.207  80.206 223.821 -0.32 -0.01    +0.098 C  
DOCKED: ATOM     25  C   UNL     1     143.292  80.122 223.043 -0.63 -0.00    +0.002 A  
DOCKED: ATOM     26  C   UNL     1     141.275  81.175 223.913 -0.42 -0.00    +0.006 A  
DOCKED: ATOM     27  C   UNL     1     137.115  82.001 222.702 -0.13 -0.01    +0.086 C  
DOCKED: ATOM     28  N   UNL     1     136.914  80.892 223.656 -0.12 +0.03    -0.298 NA 
DOCKED: ATOM     29  C   UNL     1     142.659  80.955 223.983 -0.65 -0.00    +0.000 A  
DOCKED: BRANCH  28  30
DOCKED: ATOM     30  C   UNL     1     136.290  81.259 224.953 -0.27 -0.01    +0.071 C  
DOCKED: ATOM     31  C   UNL     1     135.583  82.609 224.873 -0.17 -0.00    +0.036 C  
DOCKED: ATOM     32  C   UNL     1     137.274  81.384 226.128 -0.22 -0.01    +0.100 C  
DOCKED: ATOM     33  C   UNL     1     136.036  83.363 226.111 -0.25 -0.00    +0.082 C  
DOCKED: ATOM     34  N   UNL     1     137.313  82.789 226.526 -0.15 +0.02    -0.315 NA 
DOCKED: ATOM     35  H   UNL     1     137.396  82.854 227.568 -0.23 -0.03    +0.122 HD 
DOCKED: ENDBRANCH  28  30
DOCKED: ENDBRANCH  15  17
DOCKED: ENDBRANCH   6  15
DOCKED: TORSDOF 5
DOCKED: TER
DOCKED: ENDMDL
________________________________________________________________________________


    FINAL DOCKED STATE:
    ________________________


Run:   3 / 20
Time taken for this run:   0.024s

DOCKED: MODEL        3
DOCKED: USER    Run = 3
DOCKED: USER
DOCKED: USER    Estimated Free Energy of Binding    =  -8.58 kcal/mol  [=(1)+(2)+(3)-(4)]
DOCKED: USER
DOCKED: USER    (1) Final Intermolecular Energy     = -10.07 kcal/mol
DOCKED: USER        vdW + Hbond + desolv Energy     =  -8.71 kcal/mol
DOCKED: USER        Electrostatic Energy            =  -1.36 kcal/mol
DOCKED: USER        Moving Ligand-Fixed Receptor    = -10.07 kcal/mol
DOCKED: USER        Moving Ligand-Moving Receptor   =  +0.00 kcal/mol
DOCKED: USER    (2) Final Total Internal Energy     =  -1.12 kcal/mol
DOCKED: USER    (3) Torsional Free Energy           =  +1.49 kcal/mol
DOCKED: USER    (4) Unbound System's Energy         =  -1.12 kcal/mol
DOCKED: USER
DOCKED: USER
DOCKED: REMARK SMILES [N-]=C(O)c1ccc2cc(C(=O)N3C[C@]4(CCN([C@@H]5CCNC5)C4)c4ccccc43)[nH]c2c1
DOCKED: REMARK SMILES IDX 4 1 5 2 6 3 7 4 8 5 9 6 30 7 31 8 32 9 2 11 1 12 3 13 10 15
DOCKED: REMARK SMILES IDX 11 16 12 17 13 18 29 19 14 20 28 21 24 22 15 23 23 24 27 25
DOCKED: REMARK SMILES IDX 25 26 16 27 17 28 26 29 18 30 19 31 22 32 20 33 21 34
DOCKED: REMARK H PARENT 30 10 3 14 21 35
DOCKED: USER                              x       y       z     vdW  Elec       q    Type
DOCKED: USER                           _______ _______ _______ _____ _____    ______ ____
DOCKED: ROOT
DOCKED: ATOM      1  C   UNL     1     144.322  72.587 219.731 -0.31 +0.00    -0.006 A  
DOCKED: ATOM      2  C   UNL     1     143.381  71.640 220.223 -0.26 -0.00    +0.010 A  
DOCKED: ATOM      3  C   UNL     1     142.184  72.059 220.831 -0.24 -0.00    +0.011 A  
DOCKED: ATOM      4  C   UNL     1     141.952  73.427 220.934 -0.27 -0.00    +0.000 A  
DOCKED: ATOM      5  C   UNL     1     140.884  74.116 221.463 -0.29 -0.01    +0.042 A  
DOCKED: ATOM      6  C   UNL     1     141.199  75.461 221.283 -0.29 -0.03    +0.106 A  
DOCKED: ATOM      7  N   UNL     1     142.398  75.598 220.664 -0.02 +0.19    -0.350 N  
DOCKED: ATOM      8  C   UNL     1     142.847  74.348 220.464 -0.31 -0.02    +0.047 A  
DOCKED: ATOM      9  C   UNL     1     144.042  73.968 219.857 -0.36 -0.01    +0.036 A  
DOCKED: ATOM     10  H   UNL     1     142.869  76.485 220.377 -0.21 -0.13    +0.167 HD 
DOCKED: ENDROOT
DOCKED: BRANCH   1  11
DOCKED: ATOM     11  C   UNL     1     145.585  72.145 219.096 -0.28 -0.00    -0.000 C  
DOCKED: ATOM     12  N   UNL     1     146.016  70.935 219.256 +0.02 -0.64    -0.771 NA 
DOCKED: BRANCH  11  13
DOCKED: ATOM     13  O   UNL     1     146.323  73.035 218.318 -0.52 -0.68    -0.532 OA 
DOCKED: ATOM     14  H   UNL     1     146.209  74.037 218.420 -0.41 -0.01    +0.290 HD 
DOCKED: ENDBRANCH  11  13
DOCKED: ENDBRANCH   1  11
DOCKED: BRANCH   6  15
DOCKED: ATOM     15  C   UNL     1     140.337  76.592 221.671 -0.23 -0.08    +0.274 C  
DOCKED: ATOM     16  O   UNL     1     139.247  76.366 222.260 -0.26 +0.05    -0.267 OA 
DOCKED: BRANCH  15  17
DOCKED: ATOM     17  N   UNL     1     140.692  77.942 221.344 -0.12 +0.12    -0.306 N  
DOCKED: ATOM     18  C   UNL     1     140.396  78.574 220.061 -0.12 -0.05    +0.139 C  
DOCKED: ATOM     19  C   UNL     1     141.340  78.881 222.189 -0.41 -0.02    +0.048 A  
DOCKED: ATOM     20  C   UNL     1     141.062  79.993 220.125 -0.24 -0.01    +0.029 C  
DOCKED: ATOM     21  C   UNL     1     141.675  78.714 223.538 -0.59 -0.01    +0.026 A  
DOCKED: ATOM     22  C   UNL     1     141.571  80.065 221.538 -0.40 +0.01    -0.015 A  
DOCKED: ATOM     23  C   UNL     1     142.172  80.154 219.094 -0.30 -0.02    +0.030 C  
DOCKED: ATOM     24  C   UNL     1     140.085  81.114 219.763 -0.12 -0.03    +0.098 C  
DOCKED: ATOM     25  C   UNL     1     142.304  79.774 224.208 -0.46 -0.00    +0.002 A  
DOCKED: ATOM     26  C   UNL     1     142.202  81.133 222.189 -0.47 -0.00    +0.006 A  
DOCKED: ATOM     27  C   UNL     1     141.456  80.690 217.863 -0.19 -0.05    +0.086 C  
DOCKED: ATOM     28  N   UNL     1     140.186  81.301 218.307 -0.03 +0.10    -0.298 NA 
DOCKED: ATOM     29  C   UNL     1     142.571  80.979 223.534 -0.64 -0.00    +0.000 A  
DOCKED: BRANCH  28  30
DOCKED: ATOM     30  C   UNL     1     139.968  82.711 217.892 -0.06 -0.02    +0.071 C  
DOCKED: ATOM     31  C   UNL     1     141.195  83.575 218.172 -0.16 -0.01    +0.036 C  
DOCKED: ATOM     32  C   UNL     1     138.802  83.418 218.604 -0.04 -0.02    +0.100 C  
DOCKED: ATOM     33  C   UNL     1     140.650  84.823 218.843 -0.13 -0.02    +0.082 C  
DOCKED: ATOM     34  N   UNL     1     139.368  84.468 219.446 -0.04 +0.07    -0.315 NA 
DOCKED: ATOM     35  H   UNL     1     138.739  85.304 219.430 +0.02 -0.03    +0.122 HD 
DOCKED: ENDBRANCH  28  30
DOCKED: ENDBRANCH  15  17
DOCKED: ENDBRANCH   6  15
DOCKED: TORSDOF 5
DOCKED: TER
DOCKED: ENDMDL
________________________________________________________________________________


    FINAL DOCKED STATE:
    ________________________


Run:   4 / 20
Time taken for this run:   0.024s

DOCKED: MODEL        4
DOCKED: USER    Run = 4
DOCKED: USER
DOCKED: USER    Estimated Free Energy of Binding    =  -9.38 kcal/mol  [=(1)+(2)+(3)-(4)]
DOCKED: USER
DOCKED: USER    (1) Final Intermolecular Energy     = -10.87 kcal/mol
DOCKED: USER        vdW + Hbond + desolv Energy     =  -9.84 kcal/mol
DOCKED: USER        Electrostatic Energy            =  -1.03 kcal/mol
DOCKED: USER        Moving Ligand-Fixed Receptor    = -10.87 kcal/mol
DOCKED: USER        Moving Ligand-Moving Receptor   =  +0.00 kcal/mol
DOCKED: USER    (2) Final Total Internal Energy     =  -1.17 kcal/mol
DOCKED: USER    (3) Torsional Free Energy           =  +1.49 kcal/mol
DOCKED: USER    (4) Unbound System's Energy         =  -1.17 kcal/mol
DOCKED: USER
DOCKED: USER
DOCKED: REMARK SMILES [N-]=C(O)c1ccc2cc(C(=O)N3C[C@]4(CCN([C@@H]5CCNC5)C4)c4ccccc43)[nH]c2c1
DOCKED: REMARK SMILES IDX 4 1 5 2 6 3 7 4 8 5 9 6 30 7 31 8 32 9 2 11 1 12 3 13 10 15
DOCKED: REMARK SMILES IDX 11 16 12 17 13 18 29 19 14 20 28 21 24 22 15 23 23 24 27 25
DOCKED: REMARK SMILES IDX 25 26 16 27 17 28 26 29 18 30 19 31 22 32 20 33 21 34
DOCKED: REMARK H PARENT 30 10 3 14 21 35
DOCKED: USER                              x       y       z     vdW  Elec       q    Type
DOCKED: USER                           _______ _______ _______ _____ _____    ______ ____
DOCKED: ROOT
DOCKED: ATOM      1  C   UNL     1     144.399  73.812 220.249 -0.46 +0.00    -0.006 A  
DOCKED: ATOM      2  C   UNL     1     143.219  73.035 220.420 -0.30 -0.00    +0.010 A  
DOCKED: ATOM      3  C   UNL     1     141.950  73.640 220.427 -0.24 -0.00    +0.011 A  
DOCKED: ATOM      4  C   UNL     1     141.887  75.020 220.262 -0.27 -0.00    +0.000 A  
DOCKED: ATOM      5  C   UNL     1     140.803  75.868 220.219 -0.18 -0.01    +0.042 A  
DOCKED: ATOM      6  C   UNL     1     141.346  77.136 220.025 -0.20 -0.05    +0.106 A  
DOCKED: ATOM      7  N   UNL     1     142.698  77.076 219.942 -0.15 +0.26    -0.350 N  
DOCKED: ATOM      8  C   UNL     1     143.012  75.779 220.094 -0.30 -0.03    +0.047 A  
DOCKED: ATOM      9  C   UNL     1     144.285  75.213 220.083 -0.34 -0.02    +0.036 A  
DOCKED: ATOM     10  H   UNL     1     143.361  77.864 219.770 -0.45 -0.19    +0.167 HD 
DOCKED: ENDROOT
DOCKED: BRANCH   1  11
DOCKED: ATOM     11  C   UNL     1     145.736  73.175 220.246 -0.58 -0.00    -0.000 C  
DOCKED: ATOM     12  N   UNL     1     146.294  72.815 219.135 -0.31 -0.83    -0.771 NA 
DOCKED: BRANCH  11  13
DOCKED: ATOM     13  O   UNL     1     146.407  72.957 221.448 -0.27 +0.05    -0.532 OA 
DOCKED: ATOM     14  H   UNL     1     146.296  72.089 221.958 -0.33 -0.20    +0.290 HD 
DOCKED: ENDBRANCH  11  13
DOCKED: ENDBRANCH   1  11
DOCKED: BRANCH   6  15
DOCKED: ATOM     15  C   UNL     1     140.565  78.378 219.886 -0.08 -0.11    +0.274 C  
DOCKED: ATOM     16  O   UNL     1     140.190  78.750 218.742 -0.03 +0.10    -0.267 OA 
DOCKED: BRANCH  15  17
DOCKED: ATOM     17  N   UNL     1     140.266  79.198 221.024 -0.06 +0.10    -0.306 N  
DOCKED: ATOM     18  C   UNL     1     138.914  79.598 221.407 -0.12 -0.03    +0.139 C  
DOCKED: ATOM     19  C   UNL     1     141.192  79.720 221.965 -0.37 -0.02    +0.048 A  
DOCKED: ATOM     20  C   UNL     1     139.090  80.564 222.630 -0.28 -0.00    +0.029 C  
DOCKED: ATOM     21  C   UNL     1     142.566  79.462 222.030 -0.36 -0.01    +0.026 A  
DOCKED: ATOM     22  C   UNL     1     140.568  80.504 222.900 -0.41 +0.00    -0.015 A  
DOCKED: ATOM     23  C   UNL     1     138.609  81.977 222.320 -0.19 -0.00    +0.030 C  
DOCKED: ATOM     24  C   UNL     1     138.227  80.157 223.827 -0.32 -0.01    +0.098 C  
DOCKED: ATOM     25  C   UNL     1     143.313  80.067 223.053 -0.61 -0.00    +0.002 A  
DOCKED: ATOM     26  C   UNL     1     141.297  81.120 223.925 -0.42 -0.00    +0.006 A  
DOCKED: ATOM     27  C   UNL     1     137.139  81.958 222.713 -0.14 -0.01    +0.086 C  
DOCKED: ATOM     28  N   UNL     1     136.936  80.845 223.663 -0.12 +0.03    -0.298 NA 
DOCKED: ATOM     29  C   UNL     1     142.681  80.898 223.995 -0.65 -0.00    +0.000 A  
DOCKED: BRANCH  28  30
DOCKED: ATOM     30  C   UNL     1     136.311  81.209 224.961 -0.28 -0.01    +0.071 C  
DOCKED: ATOM     31  C   UNL     1     135.583  82.548 224.878 -0.17 -0.00    +0.036 C  
DOCKED: ATOM     32  C   UNL     1     137.299  81.356 226.131 -0.20 -0.01    +0.100 C  
DOCKED: ATOM     33  C   UNL     1     136.029  83.314 226.110 -0.26 -0.00    +0.082 C  
DOCKED: ATOM     34  N   UNL     1     137.316  82.763 226.522 -0.16 +0.02    -0.315 NA 
DOCKED: ATOM     35  H   UNL     1     137.403  82.834 227.563 -0.23 -0.03    +0.122 HD 
DOCKED: ENDBRANCH  28  30
DOCKED: ENDBRANCH  15  17
DOCKED: ENDBRANCH   6  15
DOCKED: TORSDOF 5
DOCKED: TER
DOCKED: ENDMDL
________________________________________________________________________________


    FINAL DOCKED STATE:
    ________________________


Run:   5 / 20
Time taken for this run:   0.024s

DOCKED: MODEL        5
DOCKED: USER    Run = 5
DOCKED: USER
DOCKED: USER    Estimated Free Energy of Binding    =  -8.63 kcal/mol  [=(1)+(2)+(3)-(4)]
DOCKED: USER
DOCKED: USER    (1) Final Intermolecular Energy     = -10.12 kcal/mol
DOCKED: USER        vdW + Hbond + desolv Energy     =  -9.26 kcal/mol
DOCKED: USER        Electrostatic Energy            =  -0.86 kcal/mol
DOCKED: USER        Moving Ligand-Fixed Receptor    = -10.12 kcal/mol
DOCKED: USER        Moving Ligand-Moving Receptor   =  +0.00 kcal/mol
DOCKED: USER    (2) Final Total Internal Energy     =  -1.13 kcal/mol
DOCKED: USER    (3) Torsional Free Energy           =  +1.49 kcal/mol
DOCKED: USER    (4) Unbound System's Energy         =  -1.13 kcal/mol
DOCKED: USER
DOCKED: USER
DOCKED: REMARK SMILES [N-]=C(O)c1ccc2cc(C(=O)N3C[C@]4(CCN([C@@H]5CCNC5)C4)c4ccccc43)[nH]c2c1
DOCKED: REMARK SMILES IDX 4 1 5 2 6 3 7 4 8 5 9 6 30 7 31 8 32 9 2 11 1 12 3 13 10 15
DOCKED: REMARK SMILES IDX 11 16 12 17 13 18 29 19 14 20 28 21 24 22 15 23 23 24 27 25
DOCKED: REMARK SMILES IDX 25 26 16 27 17 28 26 29 18 30 19 31 22 32 20 33 21 34
DOCKED: REMARK H PARENT 30 10 3 14 21 35
DOCKED: USER                              x       y       z     vdW  Elec       q    Type
DOCKED: USER                           _______ _______ _______ _____ _____    ______ ____
DOCKED: ROOT
DOCKED: ATOM      1  C   UNL     1     144.434  73.937 220.299 -0.47 +0.00    -0.006 A  
DOCKED: ATOM      2  C   UNL     1     143.383  73.039 220.635 -0.31 -0.00    +0.010 A  
DOCKED: ATOM      3  C   UNL     1     142.054  73.486 220.731 -0.26 -0.00    +0.011 A  
DOCKED: ATOM      4  C   UNL     1     141.801  74.832 220.485 -0.28 -0.00    +0.000 A  
DOCKED: ATOM      5  C   UNL     1     140.619  75.538 220.496 -0.20 -0.01    +0.042 A  
DOCKED: ATOM      6  C   UNL     1     140.977  76.844 220.169 -0.18 -0.04    +0.106 A  
DOCKED: ATOM      7  N   UNL     1     142.312  76.940 219.956 -0.15 +0.22    -0.350 N  
DOCKED: ATOM      8  C   UNL     1     142.801  75.706 220.159 -0.26 -0.03    +0.047 A  
DOCKED: ATOM      9  C   UNL     1     144.130  75.297 220.057 -0.37 -0.02    +0.036 A  
DOCKED: ATOM     10  H   UNL     1     142.852  77.788 219.670 -0.28 -0.15    +0.167 HD 
DOCKED: ENDROOT
DOCKED: BRANCH   1  11
DOCKED: ATOM     11  C   UNL     1     145.836  73.467 220.204 -0.59 -0.00    -0.000 C  
DOCKED: ATOM     12  N   UNL     1     146.292  72.971 219.099 -0.36 -0.75    -0.771 NA 
DOCKED: BRANCH  11  13
DOCKED: ATOM     13  O   UNL     1     146.677  73.556 221.311 -0.32 +0.01    -0.532 OA 
DOCKED: ATOM     14  H   UNL     1     146.467  74.183 222.079 +0.22 -0.08    +0.290 HD 
DOCKED: ENDBRANCH  11  13
DOCKED: ENDBRANCH   1  11
DOCKED: BRANCH   6  15
DOCKED: ATOM     15  C   UNL     1     140.035  77.969 220.030 -0.06 -0.09    +0.274 C  
DOCKED: ATOM     16  O   UNL     1     139.455  78.159 218.928 -0.02 +0.08    -0.267 OA 
DOCKED: BRANCH  15  17
DOCKED: ATOM     17  N   UNL     1     139.806  78.883 221.111 -0.04 +0.09    -0.306 N  
DOCKED: ATOM     18  C   UNL     1     138.486  79.381 221.490 -0.11 -0.03    +0.139 C  
DOCKED: ATOM     19  C   UNL     1     140.779  79.420 221.994 -0.32 -0.01    +0.048 A  
DOCKED: ATOM     20  C   UNL     1     138.739  80.421 222.636 -0.27 -0.00    +0.029 C  
DOCKED: ATOM     21  C   UNL     1     142.139  79.094 222.052 -0.46 -0.01    +0.026 A  
DOCKED: ATOM     22  C   UNL     1     140.218  80.300 222.882 -0.38 +0.00    -0.015 A  
DOCKED: ATOM     23  C   UNL     1     138.325  81.831 222.234 -0.18 -0.00    +0.030 C  
DOCKED: ATOM     24  C   UNL     1     137.884  80.147 223.875 -0.29 -0.01    +0.098 C  
DOCKED: ATOM     25  C   UNL     1     142.939  79.729 223.014 -0.62 -0.00    +0.002 A  
DOCKED: ATOM     26  C   UNL     1     141.002  80.948 223.846 -0.45 -0.00    +0.006 A  
DOCKED: ATOM     27  C   UNL     1     136.866  81.920 222.655 -0.12 -0.01    +0.086 C  
DOCKED: ATOM     28  N   UNL     1     136.627  80.890 223.687 -0.10 +0.03    -0.298 NA 
DOCKED: ATOM     29  C   UNL     1     142.373  80.657 223.906 -0.64 -0.00    +0.000 A  
DOCKED: BRANCH  28  30
DOCKED: ATOM     30  C   UNL     1     136.051  81.378 224.967 -0.25 -0.01    +0.071 C  
DOCKED: ATOM     31  C   UNL     1     135.663  82.851 224.882 -0.17 -0.00    +0.036 C  
DOCKED: ATOM     32  C   UNL     1     136.995  81.275 226.177 -0.31 -0.01    +0.100 C  
DOCKED: ATOM     33  C   UNL     1     136.225  83.478 226.145 -0.27 -0.00    +0.082 C  
DOCKED: ATOM     34  N   UNL     1     137.328  82.634 226.596 -0.19 +0.03    -0.315 NA 
DOCKED: ATOM     35  H   UNL     1     137.385  82.673 227.641 -0.20 -0.03    +0.122 HD 
DOCKED: ENDBRANCH  28  30
DOCKED: ENDBRANCH  15  17
DOCKED: ENDBRANCH   6  15
DOCKED: TORSDOF 5
DOCKED: TER
DOCKED: ENDMDL
________________________________________________________________________________


    FINAL DOCKED STATE:
    ________________________


Run:   6 / 20
Time taken for this run:   0.024s

DOCKED: MODEL        6
DOCKED: USER    Run = 6
DOCKED: USER
DOCKED: USER    Estimated Free Energy of Binding    =  -8.30 kcal/mol  [=(1)+(2)+(3)-(4)]
DOCKED: USER
DOCKED: USER    (1) Final Intermolecular Energy     =  -9.79 kcal/mol
DOCKED: USER        vdW + Hbond + desolv Energy     =  -8.40 kcal/mol
DOCKED: USER        Electrostatic Energy            =  -1.38 kcal/mol
DOCKED: USER        Moving Ligand-Fixed Receptor    =  -9.79 kcal/mol
DOCKED: USER        Moving Ligand-Moving Receptor   =  +0.00 kcal/mol
DOCKED: USER    (2) Final Total Internal Energy     =  -1.12 kcal/mol
DOCKED: USER    (3) Torsional Free Energy           =  +1.49 kcal/mol
DOCKED: USER    (4) Unbound System's Energy         =  -1.12 kcal/mol
DOCKED: USER
DOCKED: USER
DOCKED: REMARK SMILES [N-]=C(O)c1ccc2cc(C(=O)N3C[C@]4(CCN([C@@H]5CCNC5)C4)c4ccccc43)[nH]c2c1
DOCKED: REMARK SMILES IDX 4 1 5 2 6 3 7 4 8 5 9 6 30 7 31 8 32 9 2 11 1 12 3 13 10 15
DOCKED: REMARK SMILES IDX 11 16 12 17 13 18 29 19 14 20 28 21 24 22 15 23 23 24 27 25
DOCKED: REMARK SMILES IDX 25 26 16 27 17 28 26 29 18 30 19 31 22 32 20 33 21 34
DOCKED: REMARK H PARENT 30 10 3 14 21 35
DOCKED: USER                              x       y       z     vdW  Elec       q    Type
DOCKED: USER                           _______ _______ _______ _____ _____    ______ ____
DOCKED: ROOT
DOCKED: ATOM      1  C   UNL     1     144.400  72.625 219.470 -0.29 +0.00    -0.006 A  
DOCKED: ATOM      2  C   UNL     1     143.619  71.670 220.180 -0.27 -0.00    +0.010 A  
DOCKED: ATOM      3  C   UNL     1     142.505  72.069 220.940 -0.24 -0.00    +0.011 A  
DOCKED: ATOM      4  C   UNL     1     142.193  73.424 220.973 -0.25 -0.00    +0.000 A  
DOCKED: ATOM      5  C   UNL     1     141.173  74.092 221.614 -0.24 -0.00    +0.042 A  
DOCKED: ATOM      6  C   UNL     1     141.358  75.432 221.282 -0.28 -0.03    +0.106 A  
DOCKED: ATOM      7  N   UNL     1     142.432  75.586 220.468 -0.12 +0.18    -0.350 N  
DOCKED: ATOM      8  C   UNL     1     142.933  74.352 220.295 -0.30 -0.02    +0.047 A  
DOCKED: ATOM      9  C   UNL     1     144.044  73.992 219.533 -0.32 -0.01    +0.036 A  
DOCKED: ATOM     10  H   UNL     1     142.786  76.471 220.041 -0.02 -0.11    +0.167 HD 
DOCKED: ENDROOT
DOCKED: BRANCH   1  11
DOCKED: ATOM     11  C   UNL     1     145.577  72.205 218.675 -0.18 -0.00    -0.000 C  
DOCKED: ATOM     12  N   UNL     1     145.941  70.964 218.640 -0.02 -0.74    -0.771 NA 
DOCKED: BRANCH  11  13
DOCKED: ATOM     13  O   UNL     1     146.305  73.150 217.955 -0.47 -0.58    -0.532 OA 
DOCKED: ATOM     14  H   UNL     1     146.178  74.142 218.117 -0.42 -0.04    +0.290 HD 
DOCKED: ENDBRANCH  11  13
DOCKED: ENDBRANCH   1  11
DOCKED: BRANCH   6  15
DOCKED: ATOM     15  C   UNL     1     140.486  76.539 221.716 -0.24 -0.08    +0.274 C  
DOCKED: ATOM     16  O   UNL     1     139.450  76.286 222.386 -0.30 +0.05    -0.267 OA 
DOCKED: BRANCH  15  17
DOCKED: ATOM     17  N   UNL     1     140.770  77.895 221.346 -0.13 +0.12    -0.306 N  
DOCKED: ATOM     18  C   UNL     1     140.485  78.456 220.028 -0.13 -0.05    +0.139 C  
DOCKED: ATOM     19  C   UNL     1     141.326  78.906 222.173 -0.41 -0.02    +0.048 A  
DOCKED: ATOM     20  C   UNL     1     141.058  79.916 220.056 -0.24 -0.01    +0.029 C  
DOCKED: ATOM     21  C   UNL     1     141.619  78.814 223.539 -0.58 -0.01    +0.026 A  
DOCKED: ATOM     22  C   UNL     1     141.507  80.076 221.482 -0.38 +0.01    -0.015 A  
DOCKED: ATOM     23  C   UNL     1     142.195  80.106 219.059 -0.30 -0.02    +0.030 C  
DOCKED: ATOM     24  C   UNL     1     140.029  80.958 219.613 -0.11 -0.03    +0.098 C  
DOCKED: ATOM     25  C   UNL     1     142.154  79.938 224.186 -0.49 -0.00    +0.002 A  
DOCKED: ATOM     26  C   UNL     1     142.046  81.207 222.110 -0.47 -0.00    +0.006 A  
DOCKED: ATOM     27  C   UNL     1     141.495  80.546 217.783 -0.19 -0.05    +0.086 C  
DOCKED: ATOM     28  N   UNL     1     140.173  81.093 218.154 -0.02 +0.11    -0.298 NA 
DOCKED: ATOM     29  C   UNL     1     142.372  81.130 223.472 -0.61 -0.00    +0.000 A  
DOCKED: BRANCH  28  30
DOCKED: ATOM     30  C   UNL     1     139.884  82.469 217.674 -0.06 -0.02    +0.071 C  
DOCKED: ATOM     31  C   UNL     1     141.127  83.130 217.083 -0.11 -0.01    +0.036 C  
DOCKED: ATOM     32  C   UNL     1     139.385  83.438 218.759 -0.06 -0.02    +0.100 C  
DOCKED: ATOM     33  C   UNL     1     141.164  84.516 217.701 -0.11 -0.02    +0.082 C  
DOCKED: ATOM     34  N   UNL     1     140.416  84.455 218.953 -0.05 +0.08    -0.315 NA 
DOCKED: ATOM     35  H   UNL     1     139.961  85.382 219.127 +0.02 -0.03    +0.122 HD 
DOCKED: ENDBRANCH  28  30
DOCKED: ENDBRANCH  15  17
DOCKED: ENDBRANCH   6  15
DOCKED: TORSDOF 5
DOCKED: TER
DOCKED: ENDMDL
________________________________________________________________________________


    FINAL DOCKED STATE:
    ________________________


Run:   7 / 20
Time taken for this run:   0.024s

DOCKED: MODEL        7
DOCKED: USER    Run = 7
DOCKED: USER
DOCKED: USER    Estimated Free Energy of Binding    =  -8.75 kcal/mol  [=(1)+(2)+(3)-(4)]
DOCKED: USER
DOCKED: USER    (1) Final Intermolecular Energy     = -10.25 kcal/mol
DOCKED: USER        vdW + Hbond + desolv Energy     =  -9.32 kcal/mol
DOCKED: USER        Electrostatic Energy            =  -0.92 kcal/mol
DOCKED: USER        Moving Ligand-Fixed Receptor    = -10.25 kcal/mol
DOCKED: USER        Moving Ligand-Moving Receptor   =  +0.00 kcal/mol
DOCKED: USER    (2) Final Total Internal Energy     =  -1.04 kcal/mol
DOCKED: USER    (3) Torsional Free Energy           =  +1.49 kcal/mol
DOCKED: USER    (4) Unbound System's Energy         =  -1.04 kcal/mol
DOCKED: USER
DOCKED: USER
DOCKED: REMARK SMILES [N-]=C(O)c1ccc2cc(C(=O)N3C[C@]4(CCN([C@@H]5CCNC5)C4)c4ccccc43)[nH]c2c1
DOCKED: REMARK SMILES IDX 4 1 5 2 6 3 7 4 8 5 9 6 30 7 31 8 32 9 2 11 1 12 3 13 10 15
DOCKED: REMARK SMILES IDX 11 16 12 17 13 18 29 19 14 20 28 21 24 22 15 23 23 24 27 25
DOCKED: REMARK SMILES IDX 25 26 16 27 17 28 26 29 18 30 19 31 22 32 20 33 21 34
DOCKED: REMARK H PARENT 30 10 3 14 21 35
DOCKED: USER                              x       y       z     vdW  Elec       q    Type
DOCKED: USER                           _______ _______ _______ _____ _____    ______ ____
DOCKED: ROOT
DOCKED: ATOM      1  C   UNL     1     144.139  73.894 219.581 -0.35 +0.00    -0.006 A  
DOCKED: ATOM      2  C   UNL     1     144.074  75.028 218.724 -0.06 -0.01    +0.010 A  
DOCKED: ATOM      3  C   UNL     1     143.094  76.019 218.911 -0.33 -0.01    +0.011 A  
DOCKED: ATOM      4  C   UNL     1     142.194  75.854 219.958 -0.30 -0.00    +0.000 A  
DOCKED: ATOM      5  C   UNL     1     141.153  76.651 220.378 -0.23 -0.02    +0.042 A  
DOCKED: ATOM      6  C   UNL     1     140.610  75.985 221.475 -0.30 -0.03    +0.106 A  
DOCKED: ATOM      7  N   UNL     1     141.287  74.838 221.728 -0.11 +0.06    -0.350 N  
DOCKED: ATOM      8  C   UNL     1     142.246  74.770 220.790 -0.28 -0.02    +0.047 A  
DOCKED: ATOM      9  C   UNL     1     143.203  73.768 220.634 -0.29 -0.01    +0.036 A  
DOCKED: ATOM     10  H   UNL     1     141.120  74.158 222.503 +0.07 +0.04    +0.167 HD 
DOCKED: ENDROOT
DOCKED: BRANCH   1  11
DOCKED: ATOM     11  C   UNL     1     145.168  72.847 219.380 -0.38 -0.00    -0.000 C  
DOCKED: ATOM     12  N   UNL     1     146.146  73.033 218.553 -0.39 -0.77    -0.771 NA 
DOCKED: BRANCH  11  13
DOCKED: ATOM     13  O   UNL     1     145.090  71.648 220.085 -0.05 -0.03    -0.532 OA 
DOCKED: ATOM     14  H   UNL     1     145.417  71.582 221.042 -0.32 -0.17    +0.290 HD 
DOCKED: ENDBRANCH  11  13
DOCKED: ENDBRANCH   1  11
DOCKED: BRANCH   6  15
DOCKED: ATOM     15  C   UNL     1     139.479  76.472 222.285 -0.22 -0.06    +0.274 C  
DOCKED: ATOM     16  O   UNL     1     138.547  75.679 222.588 -0.27 +0.07    -0.267 OA 
DOCKED: BRANCH  15  17
DOCKED: ATOM     17  N   UNL     1     139.394  77.844 222.692 -0.16 +0.06    -0.306 N  
DOCKED: ATOM     18  C   UNL     1     138.137  78.533 222.974 -0.17 -0.02    +0.139 C  
DOCKED: ATOM     19  C   UNL     1     140.476  78.734 222.919 -0.41 -0.01    +0.048 A  
DOCKED: ATOM     20  C   UNL     1     138.529  80.023 223.271 -0.33 -0.00    +0.029 C  
DOCKED: ATOM     21  C   UNL     1     141.842  78.429 222.887 -0.40 -0.01    +0.026 A  
DOCKED: ATOM     22  C   UNL     1     140.032  79.987 223.253 -0.42 +0.00    -0.015 A  
DOCKED: ATOM     23  C   UNL     1     137.953  80.985 222.239 -0.17 -0.00    +0.030 C  
DOCKED: ATOM     24  C   UNL     1     137.940  80.532 224.588 -0.32 -0.01    +0.098 C  
DOCKED: ATOM     25  C   UNL     1     142.763  79.454 223.156 -0.56 -0.00    +0.002 A  
DOCKED: ATOM     26  C   UNL     1     140.936  81.024 223.519 -0.47 -0.00    +0.006 A  
DOCKED: ATOM     27  C   UNL     1     136.596  81.366 222.809 -0.12 -0.01    +0.086 C  
DOCKED: ATOM     28  N   UNL     1     136.623  81.103 224.263 -0.13 +0.03    -0.298 NA 
DOCKED: ATOM     29  C   UNL     1     142.311  80.749 223.466 -0.65 -0.00    +0.000 A  
DOCKED: BRANCH  28  30
DOCKED: ATOM     30  C   UNL     1     136.264  82.252 225.135 -0.25 -0.01    +0.071 C  
DOCKED: ATOM     31  C   UNL     1     137.028  82.215 226.455 -0.42 -0.00    +0.036 C  
DOCKED: ATOM     32  C   UNL     1     134.778  82.323 225.525 -0.12 -0.01    +0.100 C  
DOCKED: ATOM     33  C   UNL     1     135.978  82.470 227.522 -0.37 -0.01    +0.082 C  
DOCKED: ATOM     34  N   UNL     1     134.686  82.082 226.962 -0.07 +0.04    -0.315 NA 
DOCKED: ATOM     35  H   UNL     1     133.938  82.691 227.370 +0.05 -0.01    +0.122 HD 
DOCKED: ENDBRANCH  28  30
DOCKED: ENDBRANCH  15  17
DOCKED: ENDBRANCH   6  15
DOCKED: TORSDOF 5
DOCKED: TER
DOCKED: ENDMDL
________________________________________________________________________________


    FINAL DOCKED STATE:
    ________________________


Run:   8 / 20
Time taken for this run:   0.024s

DOCKED: MODEL        8
DOCKED: USER    Run = 8
DOCKED: USER
DOCKED: USER    Estimated Free Energy of Binding    =  -8.53 kcal/mol  [=(1)+(2)+(3)-(4)]
DOCKED: USER
DOCKED: USER    (1) Final Intermolecular Energy     = -10.02 kcal/mol
DOCKED: USER        vdW + Hbond + desolv Energy     =  -8.61 kcal/mol
DOCKED: USER        Electrostatic Energy            =  -1.41 kcal/mol
DOCKED: USER        Moving Ligand-Fixed Receptor    = -10.02 kcal/mol
DOCKED: USER        Moving Ligand-Moving Receptor   =  +0.00 kcal/mol
DOCKED: USER    (2) Final Total Internal Energy     =  -1.12 kcal/mol
DOCKED: USER    (3) Torsional Free Energy           =  +1.49 kcal/mol
DOCKED: USER    (4) Unbound System's Energy         =  -1.12 kcal/mol
DOCKED: USER
DOCKED: USER
DOCKED: REMARK SMILES [N-]=C(O)c1ccc2cc(C(=O)N3C[C@]4(CCN([C@@H]5CCNC5)C4)c4ccccc43)[nH]c2c1
DOCKED: REMARK SMILES IDX 4 1 5 2 6 3 7 4 8 5 9 6 30 7 31 8 32 9 2 11 1 12 3 13 10 15
DOCKED: REMARK SMILES IDX 11 16 12 17 13 18 29 19 14 20 28 21 24 22 15 23 23 24 27 25
DOCKED: REMARK SMILES IDX 25 26 16 27 17 28 26 29 18 30 19 31 22 32 20 33 21 34
DOCKED: REMARK H PARENT 30 10 3 14 21 35
DOCKED: USER                              x       y       z     vdW  Elec       q    Type
DOCKED: USER                           _______ _______ _______ _____ _____    ______ ____
DOCKED: ROOT
DOCKED: ATOM      1  C   UNL     1     144.332  72.523 219.606 -0.30 +0.00    -0.006 A  
DOCKED: ATOM      2  C   UNL     1     143.387  71.559 220.056 -0.24 -0.00    +0.010 A  
DOCKED: ATOM      3  C   UNL     1     142.211  71.954 220.718 -0.23 -0.00    +0.011 A  
DOCKED: ATOM      4  C   UNL     1     142.003  73.315 220.916 -0.27 -0.00    +0.000 A  
DOCKED: ATOM      5  C   UNL     1     140.957  73.984 221.513 -0.29 -0.00    +0.042 A  
DOCKED: ATOM      6  C   UNL     1     141.290  75.333 221.415 -0.28 -0.03    +0.106 A  
DOCKED: ATOM      7  N   UNL     1     142.477  75.493 220.779 +0.03 +0.19    -0.350 N  
DOCKED: ATOM      8  C   UNL     1     142.901  74.253 220.487 -0.30 -0.01    +0.047 A  
DOCKED: ATOM      9  C   UNL     1     144.077  73.897 219.829 -0.36 -0.01    +0.036 A  
DOCKED: ATOM     10  H   UNL     1     142.955  76.391 220.541 -0.31 -0.14    +0.167 HD 
DOCKED: ENDROOT
DOCKED: BRANCH   1  11
DOCKED: ATOM     11  C   UNL     1     145.574  72.106 218.915 -0.25 -0.00    -0.000 C  
DOCKED: ATOM     12  N   UNL     1     145.988  70.882 218.982 -0.00 -0.69    -0.771 NA 
DOCKED: BRANCH  11  13
DOCKED: ATOM     13  O   UNL     1     146.310  73.035 218.183 -0.49 -0.67    -0.532 OA 
DOCKED: ATOM     14  H   UNL     1     146.174  74.031 218.315 -0.40 -0.01    +0.290 HD 
DOCKED: ENDBRANCH  11  13
DOCKED: ENDBRANCH   1  11
DOCKED: BRANCH   6  15
DOCKED: ATOM     15  C   UNL     1     140.454  76.447 221.896 -0.25 -0.08    +0.274 C  
DOCKED: ATOM     16  O   UNL     1     139.470  76.206 222.644 -0.33 +0.05    -0.267 OA 
DOCKED: BRANCH  15  17
DOCKED: ATOM     17  N   UNL     1     140.711  77.797 221.487 -0.13 +0.12    -0.306 N  
DOCKED: ATOM     18  C   UNL     1     140.364  78.329 220.171 -0.12 -0.05    +0.139 C  
DOCKED: ATOM     19  C   UNL     1     141.296  78.828 222.268 -0.42 -0.02    +0.048 A  
DOCKED: ATOM     20  C   UNL     1     140.927  79.793 220.145 -0.23 -0.01    +0.029 C  
DOCKED: ATOM     21  C   UNL     1     141.649  78.766 223.621 -0.58 -0.01    +0.026 A  
DOCKED: ATOM     22  C   UNL     1     141.438  79.985 221.546 -0.38 +0.01    -0.015 A  
DOCKED: ATOM     23  C   UNL     1     142.018  79.970 219.095 -0.29 -0.02    +0.030 C  
DOCKED: ATOM     24  C   UNL     1     139.872  80.819 219.727 -0.10 -0.03    +0.098 C  
DOCKED: ATOM     25  C   UNL     1     142.205  79.906 224.221 -0.49 -0.00    +0.002 A  
DOCKED: ATOM     26  C   UNL     1     141.996  81.132 222.126 -0.48 -0.00    +0.006 A  
DOCKED: ATOM     27  C   UNL     1     141.258  80.380 217.842 -0.16 -0.05    +0.086 C  
DOCKED: ATOM     28  N   UNL     1     139.951  80.926 218.261 -0.02 +0.10    -0.298 NA 
DOCKED: ATOM     29  C   UNL     1     142.383  81.085 223.474 -0.62 -0.00    +0.000 A  
DOCKED: BRANCH  28  30
DOCKED: ATOM     30  C   UNL     1     139.631  82.290 217.766 -0.05 -0.02    +0.071 C  
DOCKED: ATOM     31  C   UNL     1     140.881  83.019 217.282 -0.11 -0.01    +0.036 C  
DOCKED: ATOM     32  C   UNL     1     138.996  83.221 218.813 -0.05 -0.02    +0.100 C  
DOCKED: ATOM     33  C   UNL     1     140.797  84.399 217.909 -0.10 -0.02    +0.082 C  
DOCKED: ATOM     34  N   UNL     1     139.953  84.287 219.095 -0.05 +0.07    -0.315 NA 
DOCKED: ATOM     35  H   UNL     1     139.439  85.188 219.237 +0.02 -0.03    +0.122 HD 
DOCKED: ENDBRANCH  28  30
DOCKED: ENDBRANCH  15  17
DOCKED: ENDBRANCH   6  15
DOCKED: TORSDOF 5
DOCKED: TER
DOCKED: ENDMDL
________________________________________________________________________________


    FINAL DOCKED STATE:
    ________________________


Run:   9 / 20
Time taken for this run:   0.024s

DOCKED: MODEL        9
DOCKED: USER    Run = 9
DOCKED: USER
DOCKED: USER    Estimated Free Energy of Binding    =  -9.48 kcal/mol  [=(1)+(2)+(3)-(4)]
DOCKED: USER
DOCKED: USER    (1) Final Intermolecular Energy     = -10.97 kcal/mol
DOCKED: USER        vdW + Hbond + desolv Energy     =  -9.88 kcal/mol
DOCKED: USER        Electrostatic Energy            =  -1.10 kcal/mol
DOCKED: USER        Moving Ligand-Fixed Receptor    = -10.97 kcal/mol
DOCKED: USER        Moving Ligand-Moving Receptor   =  +0.00 kcal/mol
DOCKED: USER    (2) Final Total Internal Energy     =  -1.19 kcal/mol
DOCKED: USER    (3) Torsional Free Energy           =  +1.49 kcal/mol
DOCKED: USER    (4) Unbound System's Energy         =  -1.19 kcal/mol
DOCKED: USER
DOCKED: USER
DOCKED: REMARK SMILES [N-]=C(O)c1ccc2cc(C(=O)N3C[C@]4(CCN([C@@H]5CCNC5)C4)c4ccccc43)[nH]c2c1
DOCKED: REMARK SMILES IDX 4 1 5 2 6 3 7 4 8 5 9 6 30 7 31 8 32 9 2 11 1 12 3 13 10 15
DOCKED: REMARK SMILES IDX 11 16 12 17 13 18 29 19 14 20 28 21 24 22 15 23 23 24 27 25
DOCKED: REMARK SMILES IDX 25 26 16 27 17 28 26 29 18 30 19 31 22 32 20 33 21 34
DOCKED: REMARK H PARENT 30 10 3 14 21 35
DOCKED: USER                              x       y       z     vdW  Elec       q    Type
DOCKED: USER                           _______ _______ _______ _____ _____    ______ ____
DOCKED: ROOT
DOCKED: ATOM      1  C   UNL     1     144.435  73.756 220.294 -0.46 +0.00    -0.006 A  
DOCKED: ATOM      2  C   UNL     1     143.285  73.030 220.714 -0.30 -0.00    +0.010 A  
DOCKED: ATOM      3  C   UNL     1     142.033  73.660 220.823 -0.28 -0.00    +0.011 A  
DOCKED: ATOM      4  C   UNL     1     141.956  75.012 220.506 -0.30 -0.00    +0.000 A  
DOCKED: ATOM      5  C   UNL     1     140.881  75.873 220.511 -0.22 -0.01    +0.042 A  
DOCKED: ATOM      6  C   UNL     1     141.399  77.098 220.098 -0.21 -0.05    +0.106 A  
DOCKED: ATOM      7  N   UNL     1     142.727  76.999 219.839 -0.16 +0.25    -0.350 N  
DOCKED: ATOM      8  C   UNL     1     143.051  75.722 220.099 -0.30 -0.03    +0.047 A  
DOCKED: ATOM      9  C   UNL     1     144.308  75.130 219.981 -0.29 -0.02    +0.036 A  
DOCKED: ATOM     10  H   UNL     1     143.365  77.747 219.487 -0.43 -0.17    +0.167 HD 
DOCKED: ENDROOT
DOCKED: BRANCH   1  11
DOCKED: ATOM     11  C   UNL     1     145.755  73.094 220.185 -0.57 -0.00    -0.000 C  
DOCKED: ATOM     12  N   UNL     1     146.244  72.782 219.028 -0.31 -0.86    -0.771 NA 
DOCKED: BRANCH  11  13
DOCKED: ATOM     13  O   UNL     1     146.485  72.800 221.335 -0.21 +0.03    -0.532 OA 
DOCKED: ATOM     14  H   UNL     1     146.308  71.956 221.865 -0.33 -0.23    +0.290 HD 
DOCKED: ENDBRANCH  11  13
DOCKED: ENDBRANCH   1  11
DOCKED: BRANCH   6  15
DOCKED: ATOM     15  C   UNL     1     140.614  78.332 219.921 -0.09 -0.11    +0.274 C  
DOCKED: ATOM     16  O   UNL     1     140.258  78.680 218.763 -0.04 +0.10    -0.267 OA 
DOCKED: BRANCH  15  17
DOCKED: ATOM     17  N   UNL     1     140.291  79.172 221.037 -0.06 +0.10    -0.306 N  
DOCKED: ATOM     18  C   UNL     1     138.929  79.557 221.399 -0.12 -0.03    +0.139 C  
DOCKED: ATOM     19  C   UNL     1     141.198  79.731 221.974 -0.37 -0.02    +0.048 A  
DOCKED: ATOM     20  C   UNL     1     139.076  80.554 222.601 -0.28 -0.00    +0.029 C  
DOCKED: ATOM     21  C   UNL     1     142.576  79.499 222.058 -0.38 -0.01    +0.026 A  
DOCKED: ATOM     22  C   UNL     1     140.553  80.525 222.886 -0.41 +0.00    -0.015 A  
DOCKED: ATOM     23  C   UNL     1     138.574  81.950 222.255 -0.19 -0.00    +0.030 C  
DOCKED: ATOM     24  C   UNL     1     138.209  80.159 223.799 -0.32 -0.01    +0.098 C  
DOCKED: ATOM     25  C   UNL     1     143.303  80.139 223.074 -0.64 -0.00    +0.002 A  
DOCKED: ATOM     26  C   UNL     1     141.261  81.177 223.903 -0.43 -0.00    +0.006 A  
DOCKED: ATOM     27  C   UNL     1     137.101  81.915 222.635 -0.13 -0.01    +0.086 C  
DOCKED: ATOM     28  N   UNL     1     136.908  80.820 223.608 -0.11 +0.03    -0.298 NA 
DOCKED: ATOM     29  C   UNL     1     142.648  80.980 223.991 -0.65 -0.00    +0.000 A  
DOCKED: BRANCH  28  30
DOCKED: ATOM     30  C   UNL     1     136.265  81.203 224.892 -0.27 -0.01    +0.071 C  
DOCKED: ATOM     31  C   UNL     1     135.601  82.573 224.801 -0.17 -0.00    +0.036 C  
DOCKED: ATOM     32  C   UNL     1     137.225  81.294 226.090 -0.25 -0.01    +0.100 C  
DOCKED: ATOM     33  C   UNL     1     136.047  83.309 226.051 -0.25 -0.00    +0.082 C  
DOCKED: ATOM     34  N   UNL     1     137.296  82.696 226.494 -0.18 +0.02    -0.315 NA 
DOCKED: ATOM     35  H   UNL     1     137.357  82.755 227.538 -0.20 -0.03    +0.122 HD 
DOCKED: ENDBRANCH  28  30
DOCKED: ENDBRANCH  15  17
DOCKED: ENDBRANCH   6  15
DOCKED: TORSDOF 5
DOCKED: TER
DOCKED: ENDMDL
________________________________________________________________________________


    FINAL DOCKED STATE:
    ________________________


Run:   10 / 20
Time taken for this run:   0.024s

DOCKED: MODEL        10
DOCKED: USER    Run = 10
DOCKED: USER
DOCKED: USER    Estimated Free Energy of Binding    =  -8.57 kcal/mol  [=(1)+(2)+(3)-(4)]
DOCKED: USER
DOCKED: USER    (1) Final Intermolecular Energy     = -10.06 kcal/mol
DOCKED: USER        vdW + Hbond + desolv Energy     =  -9.22 kcal/mol
DOCKED: USER        Electrostatic Energy            =  -0.83 kcal/mol
DOCKED: USER        Moving Ligand-Fixed Receptor    = -10.06 kcal/mol
DOCKED: USER        Moving Ligand-Moving Receptor   =  +0.00 kcal/mol
DOCKED: USER    (2) Final Total Internal Energy     =  -1.21 kcal/mol
DOCKED: USER    (3) Torsional Free Energy           =  +1.49 kcal/mol
DOCKED: USER    (4) Unbound System's Energy         =  -1.21 kcal/mol
DOCKED: USER
DOCKED: USER
DOCKED: REMARK SMILES [N-]=C(O)c1ccc2cc(C(=O)N3C[C@]4(CCN([C@@H]5CCNC5)C4)c4ccccc43)[nH]c2c1
DOCKED: REMARK SMILES IDX 4 1 5 2 6 3 7 4 8 5 9 6 30 7 31 8 32 9 2 11 1 12 3 13 10 15
DOCKED: REMARK SMILES IDX 11 16 12 17 13 18 29 19 14 20 28 21 24 22 15 23 23 24 27 25
DOCKED: REMARK SMILES IDX 25 26 16 27 17 28 26 29 18 30 19 31 22 32 20 33 21 34
DOCKED: REMARK H PARENT 30 10 3 14 21 35
DOCKED: USER                              x       y       z     vdW  Elec       q    Type
DOCKED: USER                           _______ _______ _______ _____ _____    ______ ____
DOCKED: ROOT
DOCKED: ATOM      1  C   UNL     1     144.296  74.076 219.750 -0.39 +0.00    -0.006 A  
DOCKED: ATOM      2  C   UNL     1     144.057  75.049 218.740 -0.06 -0.01    +0.010 A  
DOCKED: ATOM      3  C   UNL     1     142.927  75.884 218.793 -0.29 -0.01    +0.011 A  
DOCKED: ATOM      4  C   UNL     1     142.053  75.727 219.865 -0.27 -0.00    +0.000 A  
DOCKED: ATOM      5  C   UNL     1     140.892  76.397 220.178 -0.19 -0.02    +0.042 A  
DOCKED: ATOM      6  C   UNL     1     140.452  75.817 221.366 -0.28 -0.03    +0.106 A  
DOCKED: ATOM      7  N   UNL     1     141.304  74.843 221.774 -0.09 +0.05    -0.350 N  
DOCKED: ATOM      8  C   UNL     1     142.272  74.797 220.844 -0.28 -0.02    +0.047 A  
DOCKED: ATOM      9  C   UNL     1     143.380  73.953 220.821 -0.28 -0.01    +0.036 A  
DOCKED: ATOM     10  H   UNL     1     141.241  74.264 222.641 +0.10 +0.05    +0.167 HD 
DOCKED: ENDROOT
DOCKED: BRANCH   1  11
DOCKED: ATOM     11  C   UNL     1     145.484  73.193 219.690 -0.47 -0.00    -0.000 C  
DOCKED: ATOM     12  N   UNL     1     145.912  72.738 218.557 -0.45 -0.70    -0.771 NA 
DOCKED: BRANCH  11  13
DOCKED: ATOM     13  O   UNL     1     146.152  72.843 220.861 -0.24 -0.02    -0.532 OA 
DOCKED: ATOM     14  H   UNL     1     145.947  71.974 221.341 -0.38 -0.16    +0.290 HD 
DOCKED: ENDBRANCH  11  13
DOCKED: ENDBRANCH   1  11
DOCKED: BRANCH   6  15
DOCKED: ATOM     15  C   UNL     1     139.248  76.225 222.111 -0.21 -0.06    +0.274 C  
DOCKED: ATOM     16  O   UNL     1     138.340  75.379 222.333 -0.23 +0.07    -0.267 OA 
DOCKED: BRANCH  15  17
DOCKED: ATOM     17  N   UNL     1     139.067  77.579 222.545 -0.16 +0.06    -0.306 N  
DOCKED: ATOM     18  C   UNL     1     137.761  78.198 222.757 -0.17 -0.02    +0.139 C  
DOCKED: ATOM     19  C   UNL     1     140.085  78.515 222.866 -0.36 -0.01    +0.048 A  
DOCKED: ATOM     20  C   UNL     1     138.057  79.697 223.115 -0.28 -0.00    +0.029 C  
DOCKED: ATOM     21  C   UNL     1     141.463  78.278 222.920 -0.50 -0.01    +0.026 A  
DOCKED: ATOM     22  C   UNL     1     139.558  79.735 223.199 -0.38 +0.00    -0.015 A  
DOCKED: ATOM     23  C   UNL     1     137.503  80.658 222.070 -0.13 -0.00    +0.030 C  
DOCKED: ATOM     24  C   UNL     1     137.356  80.140 224.402 -0.07 -0.01    +0.098 C  
DOCKED: ATOM     25  C   UNL     1     142.312  79.338 223.275 -0.61 -0.00    +0.002 A  
DOCKED: ATOM     26  C   UNL     1     140.388  80.807 223.551 -0.43 -0.00    +0.006 A  
DOCKED: ATOM     27  C   UNL     1     136.093  80.957 222.556 -0.09 -0.01    +0.086 C  
DOCKED: ATOM     28  N   UNL     1     136.036  80.656 224.001 -0.09 +0.03    -0.298 NA 
DOCKED: ATOM     29  C   UNL     1     141.776  80.600 223.585 -0.60 -0.00    +0.000 A  
DOCKED: BRANCH  28  30
DOCKED: ATOM     30  C   UNL     1     135.563  81.762 224.874 -0.18 -0.01    +0.071 C  
DOCKED: ATOM     31  C   UNL     1     136.045  83.119 224.371 -0.16 -0.00    +0.036 C  
DOCKED: ATOM     32  C   UNL     1     136.037  81.676 226.334 -0.35 -0.02    +0.100 C  
DOCKED: ATOM     33  C   UNL     1     136.584  83.824 225.603 -0.16 -0.00    +0.082 C  
DOCKED: ATOM     34  N   UNL     1     136.949  82.793 226.570 -0.23 +0.03    -0.315 NA 
DOCKED: ATOM     35  H   UNL     1     136.803  83.162 227.539 -0.25 -0.03    +0.122 HD 
DOCKED: ENDBRANCH  28  30
DOCKED: ENDBRANCH  15  17
DOCKED: ENDBRANCH   6  15
DOCKED: TORSDOF 5
DOCKED: TER
DOCKED: ENDMDL
________________________________________________________________________________


    FINAL DOCKED STATE:
    ________________________


Run:   11 / 20
Time taken for this run:   0.024s

DOCKED: MODEL        11
DOCKED: USER    Run = 11
DOCKED: USER
DOCKED: USER    Estimated Free Energy of Binding    =  -7.90 kcal/mol  [=(1)+(2)+(3)-(4)]
DOCKED: USER
DOCKED: USER    (1) Final Intermolecular Energy     =  -9.39 kcal/mol
DOCKED: USER        vdW + Hbond + desolv Energy     =  -9.36 kcal/mol
DOCKED: USER        Electrostatic Energy            =  -0.03 kcal/mol
DOCKED: USER        Moving Ligand-Fixed Receptor    =  -9.39 kcal/mol
DOCKED: USER        Moving Ligand-Moving Receptor   =  +0.00 kcal/mol
DOCKED: USER    (2) Final Total Internal Energy     =  -1.26 kcal/mol
DOCKED: USER    (3) Torsional Free Energy           =  +1.49 kcal/mol
DOCKED: USER    (4) Unbound System's Energy         =  -1.26 kcal/mol
DOCKED: USER
DOCKED: USER
DOCKED: REMARK SMILES [N-]=C(O)c1ccc2cc(C(=O)N3C[C@]4(CCN([C@@H]5CCNC5)C4)c4ccccc43)[nH]c2c1
DOCKED: REMARK SMILES IDX 4 1 5 2 6 3 7 4 8 5 9 6 30 7 31 8 32 9 2 11 1 12 3 13 10 15
DOCKED: REMARK SMILES IDX 11 16 12 17 13 18 29 19 14 20 28 21 24 22 15 23 23 24 27 25
DOCKED: REMARK SMILES IDX 25 26 16 27 17 28 26 29 18 30 19 31 22 32 20 33 21 34
DOCKED: REMARK H PARENT 30 10 3 14 21 35
DOCKED: USER                              x       y       z     vdW  Elec       q    Type
DOCKED: USER                           _______ _______ _______ _____ _____    ______ ____
DOCKED: ROOT
DOCKED: ATOM      1  C   UNL     1     139.953  69.100 226.043 -0.50 +0.00    -0.006 A  
DOCKED: ATOM      2  C   UNL     1     141.145  69.837 226.287 -0.54 -0.00    +0.010 A  
DOCKED: ATOM      3  C   UNL     1     141.494  70.934 225.480 -0.50 -0.00    +0.011 A  
DOCKED: ATOM      4  C   UNL     1     140.636  71.274 224.439 -0.47 -0.00    +0.000 A  
DOCKED: ATOM      5  C   UNL     1     140.714  72.287 223.509 -0.06 -0.00    +0.042 A  
DOCKED: ATOM      6  C   UNL     1     139.573  72.142 222.723 -0.27 -0.02    +0.106 A  
DOCKED: ATOM      7  N   UNL     1     138.820  71.098 223.151 -0.11 +0.08    -0.350 N  
DOCKED: ATOM      8  C   UNL     1     139.486  70.576 224.194 -0.35 -0.01    +0.047 A  
DOCKED: ATOM      9  C   UNL     1     139.110  69.483 224.973 -0.37 -0.01    +0.036 A  
DOCKED: ATOM     10  H   UNL     1     137.902  70.777 222.770 +0.05 -0.03    +0.167 HD 
DOCKED: ENDROOT
DOCKED: BRANCH   1  11
DOCKED: ATOM     11  C   UNL     1     139.589  67.940 226.889 -0.63 +0.00    -0.000 C  
DOCKED: ATOM     12  N   UNL     1     138.780  67.030 226.450 -0.05 -0.04    -0.771 NA 
DOCKED: BRANCH  11  13
DOCKED: ATOM     13  O   UNL     1     140.116  67.821 228.173 -0.07 +0.15    -0.532 OA 
DOCKED: ATOM     14  H   UNL     1     140.849  67.152 228.377 -0.14 -0.15    +0.290 HD 
DOCKED: ENDBRANCH  11  13
DOCKED: ENDBRANCH   1  11
DOCKED: BRANCH   6  15
DOCKED: ATOM     15  C   UNL     1     139.201  73.022 221.601 -0.14 -0.06    +0.274 C  
DOCKED: ATOM     16  O   UNL     1     138.388  72.608 220.732 -0.04 +0.05    -0.267 OA 
DOCKED: BRANCH  15  17
DOCKED: ATOM     17  N   UNL     1     139.786  74.323 221.454 -0.15 +0.05    -0.306 N  
DOCKED: ATOM     18  C   UNL     1     139.277  75.524 222.112 -0.25 -0.03    +0.139 C  
DOCKED: ATOM     19  C   UNL     1     140.939  74.658 220.697 -0.23 -0.01    +0.048 A  
DOCKED: ATOM     20  C   UNL     1     140.157  76.706 221.574 -0.31 -0.01    +0.029 C  
DOCKED: ATOM     21  C   UNL     1     141.794  73.777 220.024 -0.18 -0.01    +0.026 A  
DOCKED: ATOM     22  C   UNL     1     141.191  76.005 220.737 -0.28 +0.01    -0.015 A  
DOCKED: ATOM     23  C   UNL     1     139.339  77.712 220.773 -0.14 -0.01    +0.030 C  
DOCKED: ATOM     24  C   UNL     1     140.748  77.556 222.701 -0.37 -0.03    +0.098 C  
DOCKED: ATOM     25  C   UNL     1     142.899  74.307 219.340 -0.24 -0.00    +0.002 A  
DOCKED: ATOM     26  C   UNL     1     142.286  76.553 220.056 -0.32 -0.00    +0.006 A  
DOCKED: ATOM     27  C   UNL     1     138.865  78.713 221.816 -0.18 -0.02    +0.086 C  
DOCKED: ATOM     28  N   UNL     1     139.767  78.616 222.982 -0.18 +0.06    -0.298 NA 
DOCKED: ATOM     29  C   UNL     1     143.141  75.692 219.352 -0.36 -0.00    +0.000 A  
DOCKED: BRANCH  28  30
DOCKED: ATOM     30  C   UNL     1     140.403  79.888 223.415 -0.44 -0.01    +0.071 C  
DOCKED: ATOM     31  C   UNL     1     140.367  80.938 222.308 -0.34 -0.01    +0.036 C  
DOCKED: ATOM     32  C   UNL     1     141.884  79.763 223.810 -0.54 -0.02    +0.100 C  
DOCKED: ATOM     33  C   UNL     1     141.774  81.508 222.264 -0.41 -0.02    +0.082 C  
DOCKED: ATOM     34  N   UNL     1     142.669  80.499 222.823 -0.33 +0.09    -0.315 NA 
DOCKED: ATOM     35  H   UNL     1     143.469  80.977 223.301 +0.06 -0.03    +0.122 HD 
DOCKED: ENDBRANCH  28  30
DOCKED: ENDBRANCH  15  17
DOCKED: ENDBRANCH   6  15
DOCKED: TORSDOF 5
DOCKED: TER
DOCKED: ENDMDL
________________________________________________________________________________


    FINAL DOCKED STATE:
    ________________________


Run:   12 / 20
Time taken for this run:   0.024s

DOCKED: MODEL        12
DOCKED: USER    Run = 12
DOCKED: USER
DOCKED: USER    Estimated Free Energy of Binding    =  -7.85 kcal/mol  [=(1)+(2)+(3)-(4)]
DOCKED: USER
DOCKED: USER    (1) Final Intermolecular Energy     =  -9.34 kcal/mol
DOCKED: USER        vdW + Hbond + desolv Energy     =  -8.59 kcal/mol
DOCKED: USER        Electrostatic Energy            =  -0.75 kcal/mol
DOCKED: USER        Moving Ligand-Fixed Receptor    =  -9.34 kcal/mol
DOCKED: USER        Moving Ligand-Moving Receptor   =  +0.00 kcal/mol
DOCKED: USER    (2) Final Total Internal Energy     =  -1.21 kcal/mol
DOCKED: USER    (3) Torsional Free Energy           =  +1.49 kcal/mol
DOCKED: USER    (4) Unbound System's Energy         =  -1.21 kcal/mol
DOCKED: USER
DOCKED: USER
DOCKED: REMARK SMILES [N-]=C(O)c1ccc2cc(C(=O)N3C[C@]4(CCN([C@@H]5CCNC5)C4)c4ccccc43)[nH]c2c1
DOCKED: REMARK SMILES IDX 4 1 5 2 6 3 7 4 8 5 9 6 30 7 31 8 32 9 2 11 1 12 3 13 10 15
DOCKED: REMARK SMILES IDX 11 16 12 17 13 18 29 19 14 20 28 21 24 22 15 23 23 24 27 25
DOCKED: REMARK SMILES IDX 25 26 16 27 17 28 26 29 18 30 19 31 22 32 20 33 21 34
DOCKED: REMARK H PARENT 30 10 3 14 21 35
DOCKED: USER                              x       y       z     vdW  Elec       q    Type
DOCKED: USER                           _______ _______ _______ _____ _____    ______ ____
DOCKED: ROOT
DOCKED: ATOM      1  C   UNL     1     145.079  70.833 219.633 -0.18 -0.00    -0.006 A  
DOCKED: ATOM      2  C   UNL     1     145.588  72.162 219.683 -0.39 +0.00    +0.010 A  
DOCKED: ATOM      3  C   UNL     1     144.796  73.221 220.162 -0.46 -0.00    +0.011 A  
DOCKED: ATOM      4  C   UNL     1     143.504  72.926 220.586 -0.33 -0.00    +0.000 A  
DOCKED: ATOM      5  C   UNL     1     142.523  73.744 221.102 -0.06 -0.01    +0.042 A  
DOCKED: ATOM      6  C   UNL     1     141.445  72.897 221.351 -0.23 -0.01    +0.106 A  
DOCKED: ATOM      7  N   UNL     1     141.746  71.618 221.016 -0.07 +0.04    -0.350 N  
DOCKED: ATOM      8  C   UNL     1     143.003  71.654 220.545 -0.24 -0.01    +0.047 A  
DOCKED: ATOM      9  C   UNL     1     143.759  70.582 220.075 -0.22 -0.00    +0.036 A  
DOCKED: ATOM     10  H   UNL     1     141.142  70.773 221.123 +0.05 -0.02    +0.167 HD 
DOCKED: ENDROOT
DOCKED: BRANCH   1  11
DOCKED: ATOM     11  C   UNL     1     145.911  69.719 219.123 -0.30 -0.00    -0.000 C  
DOCKED: ATOM     12  N   UNL     1     145.936  68.580 219.736 -0.44 -0.33    -0.771 NA 
DOCKED: BRANCH  11  13
DOCKED: ATOM     13  O   UNL     1     146.677  69.891 217.972 -0.06 -0.54    -0.532 OA 
DOCKED: ATOM     14  H   UNL     1     147.215  69.126 217.583 -0.40 +0.15    +0.290 HD 
DOCKED: ENDBRANCH  11  13
DOCKED: ENDBRANCH   1  11
DOCKED: BRANCH   6  15
DOCKED: ATOM     15  C   UNL     1     140.159  73.316 221.938 -0.19 -0.03    +0.274 C  
DOCKED: ATOM     16  O   UNL     1     139.864  74.540 221.974 -0.77 +0.03    -0.267 OA 
DOCKED: BRANCH  15  17
DOCKED: ATOM     17  N   UNL     1     139.260  72.359 222.514 -0.14 +0.07    -0.306 N  
DOCKED: ATOM     18  C   UNL     1     137.916  72.097 222.007 -0.12 -0.03    +0.139 C  
DOCKED: ATOM     19  C   UNL     1     139.518  71.503 223.617 -0.34 -0.01    +0.048 A  
DOCKED: ATOM     20  C   UNL     1     137.279  71.069 223.007 -0.17 -0.01    +0.029 C  
DOCKED: ATOM     21  C   UNL     1     140.729  71.350 224.302 -0.41 -0.00    +0.026 A  
DOCKED: ATOM     22  C   UNL     1     138.419  70.748 223.933 -0.29 +0.00    -0.015 A  
DOCKED: ATOM     23  C   UNL     1     136.075  71.650 223.738 -0.19 -0.01    +0.030 C  
DOCKED: ATOM     24  C   UNL     1     136.698  69.845 222.296 -0.08 -0.02    +0.098 C  
DOCKED: ATOM     25  C   UNL     1     140.786  70.435 225.365 -0.52 -0.00    +0.002 A  
DOCKED: ATOM     26  C   UNL     1     138.455  69.834 224.994 -0.34 -0.00    +0.006 A  
DOCKED: ATOM     27  C   UNL     1     134.898  71.305 222.839 -0.06 -0.01    +0.086 C  
DOCKED: ATOM     28  N   UNL     1     135.298  70.171 221.980 -0.00 +0.04    -0.298 NA 
DOCKED: ATOM     29  C   UNL     1     139.650  69.682 225.713 -0.46 -0.00    +0.000 A  
DOCKED: BRANCH  28  30
DOCKED: ATOM     30  C   UNL     1     134.408  68.982 222.021 -0.05 -0.01    +0.071 C  
DOCKED: ATOM     31  C   UNL     1     133.183  69.228 222.898 -0.04 -0.00    +0.036 C  
DOCKED: ATOM     32  C   UNL     1     135.062  67.709 222.582 -0.08 -0.01    +0.100 C  
DOCKED: ATOM     33  C   UNL     1     133.076  67.994 223.775 -0.11 -0.01    +0.082 C  
DOCKED: ATOM     34  N   UNL     1     134.406  67.395 223.849 -0.49 +0.01    -0.315 NA 
DOCKED: ATOM     35  H   UNL     1     134.310  66.357 223.944 -0.41 -0.04    +0.122 HD 
DOCKED: ENDBRANCH  28  30
DOCKED: ENDBRANCH  15  17
DOCKED: ENDBRANCH   6  15
DOCKED: TORSDOF 5
DOCKED: TER
DOCKED: ENDMDL
________________________________________________________________________________


    FINAL DOCKED STATE:
    ________________________


Run:   13 / 20
Time taken for this run:   0.024s

DOCKED: MODEL        13
DOCKED: USER    Run = 13
DOCKED: USER
DOCKED: USER    Estimated Free Energy of Binding    =  -8.55 kcal/mol  [=(1)+(2)+(3)-(4)]
DOCKED: USER
DOCKED: USER    (1) Final Intermolecular Energy     = -10.04 kcal/mol
DOCKED: USER        vdW + Hbond + desolv Energy     =  -9.23 kcal/mol
DOCKED: USER        Electrostatic Energy            =  -0.81 kcal/mol
DOCKED: USER        Moving Ligand-Fixed Receptor    = -10.04 kcal/mol
DOCKED: USER        Moving Ligand-Moving Receptor   =  +0.00 kcal/mol
DOCKED: USER    (2) Final Total Internal Energy     =  -1.18 kcal/mol
DOCKED: USER    (3) Torsional Free Energy           =  +1.49 kcal/mol
DOCKED: USER    (4) Unbound System's Energy         =  -1.18 kcal/mol
DOCKED: USER
DOCKED: USER
DOCKED: REMARK SMILES [N-]=C(O)c1ccc2cc(C(=O)N3C[C@]4(CCN([C@@H]5CCNC5)C4)c4ccccc43)[nH]c2c1
DOCKED: REMARK SMILES IDX 4 1 5 2 6 3 7 4 8 5 9 6 30 7 31 8 32 9 2 11 1 12 3 13 10 15
DOCKED: REMARK SMILES IDX 11 16 12 17 13 18 29 19 14 20 28 21 24 22 15 23 23 24 27 25
DOCKED: REMARK SMILES IDX 25 26 16 27 17 28 26 29 18 30 19 31 22 32 20 33 21 34
DOCKED: REMARK H PARENT 30 10 3 14 21 35
DOCKED: USER                              x       y       z     vdW  Elec       q    Type
DOCKED: USER                           _______ _______ _______ _____ _____    ______ ____
DOCKED: ROOT
DOCKED: ATOM      1  C   UNL     1     144.045  73.504 220.027 -0.37 +0.00    -0.006 A  
DOCKED: ATOM      2  C   UNL     1     142.906  73.064 220.759 -0.28 -0.00    +0.010 A  
DOCKED: ATOM      3  C   UNL     1     141.860  73.950 221.070 -0.25 -0.00    +0.011 A  
DOCKED: ATOM      4  C   UNL     1     141.975  75.268 220.638 -0.30 -0.00    +0.000 A  
DOCKED: ATOM      5  C   UNL     1     141.118  76.336 220.786 -0.27 -0.02    +0.042 A  
DOCKED: ATOM      6  C   UNL     1     141.754  77.397 220.145 -0.25 -0.06    +0.106 A  
DOCKED: ATOM      7  N   UNL     1     142.940  77.004 219.617 -0.17 +0.26    -0.350 N  
DOCKED: ATOM      8  C   UNL     1     143.062  75.704 219.933 -0.33 -0.03    +0.047 A  
DOCKED: ATOM      9  C   UNL     1     144.117  74.853 219.608 -0.33 -0.02    +0.036 A  
DOCKED: ATOM     10  H   UNL     1     143.611  77.579 219.060 -0.34 -0.15    +0.167 HD 
DOCKED: ENDROOT
DOCKED: BRANCH   1  11
DOCKED: ATOM     11  C   UNL     1     145.149  72.571 219.705 -0.41 -0.00    -0.000 C  
DOCKED: ATOM     12  N   UNL     1     146.255  73.009 219.194 -0.38 -0.66    -0.771 NA 
DOCKED: BRANCH  11  13
DOCKED: ATOM     13  O   UNL     1     145.004  71.208 219.951 +0.01 -0.05    -0.532 OA 
DOCKED: ATOM     14  H   UNL     1     144.827  70.861 220.886 -0.14 -0.11    +0.290 HD 
DOCKED: ENDBRANCH  11  13
DOCKED: ENDBRANCH   1  11
DOCKED: BRANCH   6  15
DOCKED: ATOM     15  C   UNL     1     141.204  78.759 220.014 -0.14 -0.13    +0.274 C  
DOCKED: ATOM     16  O   UNL     1     141.165  79.305 218.880 -0.10 +0.13    -0.267 OA 
DOCKED: BRANCH  15  17
DOCKED: ATOM     17  N   UNL     1     140.759  79.492 221.163 -0.09 +0.11    -0.306 N  
DOCKED: ATOM     18  C   UNL     1     139.355  79.764 221.461 -0.14 -0.03    +0.139 C  
DOCKED: ATOM     19  C   UNL     1     141.569  80.036 222.194 -0.44 -0.02    +0.048 A  
DOCKED: ATOM     20  C   UNL     1     139.363  80.676 222.737 -0.31 -0.00    +0.029 C  
DOCKED: ATOM     21  C   UNL     1     142.952  79.884 222.350 -0.45 -0.01    +0.026 A  
DOCKED: ATOM     22  C   UNL     1     140.818  80.718 223.115 -0.46 +0.00    -0.015 A  
DOCKED: ATOM     23  C   UNL     1     138.790  82.061 222.457 -0.13 -0.00    +0.030 C  
DOCKED: ATOM     24  C   UNL     1     138.453  80.141 223.846 -0.34 -0.01    +0.098 C  
DOCKED: ATOM     25  C   UNL     1     143.571  80.491 223.453 -0.57 -0.00    +0.002 A  
DOCKED: ATOM     26  C   UNL     1     141.419  81.336 224.219 -0.23 -0.00    +0.006 A  
DOCKED: ATOM     27  C   UNL     1     137.303  81.906 222.738 -0.15 -0.01    +0.086 C  
DOCKED: ATOM     28  N   UNL     1     137.125  80.733 223.618 -0.12 +0.03    -0.298 NA 
DOCKED: ATOM     29  C   UNL     1     142.808  81.220 224.382 -0.45 -0.00    +0.000 A  
DOCKED: BRANCH  28  30
DOCKED: ATOM     30  C   UNL     1     136.381  80.979 224.880 -0.27 -0.01    +0.071 C  
DOCKED: ATOM     31  C   UNL     1     135.390  82.129 224.733 -0.16 -0.00    +0.036 C  
DOCKED: ATOM     32  C   UNL     1     137.263  81.353 226.083 -0.25 -0.01    +0.100 C  
DOCKED: ATOM     33  C   UNL     1     135.609  82.995 225.960 -0.21 -0.01    +0.082 C  
DOCKED: ATOM     34  N   UNL     1     136.965  82.738 226.437 -0.22 +0.03    -0.315 NA 
DOCKED: ATOM     35  H   UNL     1     136.990  82.845 227.478 -0.18 -0.03    +0.122 HD 
DOCKED: ENDBRANCH  28  30
DOCKED: ENDBRANCH  15  17
DOCKED: ENDBRANCH   6  15
DOCKED: TORSDOF 5
DOCKED: TER
DOCKED: ENDMDL
________________________________________________________________________________


    FINAL DOCKED STATE:
    ________________________


Run:   14 / 20
Time taken for this run:   0.024s

DOCKED: MODEL        14
DOCKED: USER    Run = 14
DOCKED: USER
DOCKED: USER    Estimated Free Energy of Binding    =  -8.29 kcal/mol  [=(1)+(2)+(3)-(4)]
DOCKED: USER
DOCKED: USER    (1) Final Intermolecular Energy     =  -9.78 kcal/mol
DOCKED: USER        vdW + Hbond + desolv Energy     =  -9.08 kcal/mol
DOCKED: USER        Electrostatic Energy            =  -0.70 kcal/mol
DOCKED: USER        Moving Ligand-Fixed Receptor    =  -9.78 kcal/mol
DOCKED: USER        Moving Ligand-Moving Receptor   =  +0.00 kcal/mol
DOCKED: USER    (2) Final Total Internal Energy     =  -1.21 kcal/mol
DOCKED: USER    (3) Torsional Free Energy           =  +1.49 kcal/mol
DOCKED: USER    (4) Unbound System's Energy         =  -1.21 kcal/mol
DOCKED: USER
DOCKED: USER
DOCKED: REMARK SMILES [N-]=C(O)c1ccc2cc(C(=O)N3C[C@]4(CCN([C@@H]5CCNC5)C4)c4ccccc43)[nH]c2c1
DOCKED: REMARK SMILES IDX 4 1 5 2 6 3 7 4 8 5 9 6 30 7 31 8 32 9 2 11 1 12 3 13 10 15
DOCKED: REMARK SMILES IDX 11 16 12 17 13 18 29 19 14 20 28 21 24 22 15 23 23 24 27 25
DOCKED: REMARK SMILES IDX 25 26 16 27 17 28 26 29 18 30 19 31 22 32 20 33 21 34
DOCKED: REMARK H PARENT 30 10 3 14 21 35
DOCKED: USER                              x       y       z     vdW  Elec       q    Type
DOCKED: USER                           _______ _______ _______ _____ _____    ______ ____
DOCKED: ROOT
DOCKED: ATOM      1  C   UNL     1     144.072  74.033 219.647 -0.36 +0.00    -0.006 A  
DOCKED: ATOM      2  C   UNL     1     143.972  75.165 218.790 -0.08 -0.01    +0.010 A  
DOCKED: ATOM      3  C   UNL     1     142.927  76.094 218.940 -0.32 -0.01    +0.011 A  
DOCKED: ATOM      4  C   UNL     1     141.999  75.871 219.952 -0.28 -0.00    +0.000 A  
DOCKED: ATOM      5  C   UNL     1     140.897  76.603 220.333 -0.20 -0.02    +0.042 A  
DOCKED: ATOM      6  C   UNL     1     140.353  75.902 221.407 -0.28 -0.03    +0.106 A  
DOCKED: ATOM      7  N   UNL     1     141.088  74.796 221.685 -0.16 +0.05    -0.350 N  
DOCKED: ATOM      8  C   UNL     1     142.084  74.789 220.784 -0.29 -0.02    +0.047 A  
DOCKED: ATOM      9  C   UNL     1     143.105  73.848 220.663 -0.29 -0.01    +0.036 A  
DOCKED: ATOM     10  H   UNL     1     140.933  74.104 222.452 +0.05 +0.03    +0.167 HD 
DOCKED: ENDROOT
DOCKED: BRANCH   1  11
DOCKED: ATOM     11  C   UNL     1     145.168  73.051 219.485 -0.41 -0.00    -0.000 C  
DOCKED: ATOM     12  N   UNL     1     146.154  73.289 218.680 -0.37 -0.55    -0.771 NA 
DOCKED: BRANCH  11  13
DOCKED: ATOM     13  O   UNL     1     145.147  71.856 220.201 -0.06 -0.01    -0.532 OA 
DOCKED: ATOM     14  H   UNL     1     145.541  71.798 221.133 -0.35 -0.16    +0.290 HD 
DOCKED: ENDBRANCH  11  13
DOCKED: ENDBRANCH   1  11
DOCKED: BRANCH   6  15
DOCKED: ATOM     15  C   UNL     1     139.165  76.316 222.174 -0.21 -0.06    +0.274 C  
DOCKED: ATOM     16  O   UNL     1     138.252  75.479 222.404 -0.22 +0.08    -0.267 OA 
DOCKED: BRANCH  15  17
DOCKED: ATOM     17  N   UNL     1     139.005  77.670 222.620 -0.16 +0.06    -0.306 N  
DOCKED: ATOM     18  C   UNL     1     137.709  78.314 222.816 -0.15 -0.02    +0.139 C  
DOCKED: ATOM     19  C   UNL     1     140.037  78.580 222.971 -0.36 -0.01    +0.048 A  
DOCKED: ATOM     20  C   UNL     1     138.030  79.802 223.198 -0.29 -0.00    +0.029 C  
DOCKED: ATOM     21  C   UNL     1     141.409  78.313 223.045 -0.52 -0.01    +0.026 A  
DOCKED: ATOM     22  C   UNL     1     139.529  79.807 223.308 -0.40 +0.00    -0.015 A  
DOCKED: ATOM     23  C   UNL     1     137.515  80.786 222.154 -0.14 -0.00    +0.030 C  
DOCKED: ATOM     24  C   UNL     1     137.315  80.245 224.477 -0.09 -0.01    +0.098 C  
DOCKED: ATOM     25  C   UNL     1     142.273  79.350 223.428 -0.61 -0.00    +0.002 A  
DOCKED: ATOM     26  C   UNL     1     140.376  80.857 223.688 -0.41 -0.00    +0.006 A  
DOCKED: ATOM     27  C   UNL     1     136.103  81.109 222.619 -0.09 -0.01    +0.086 C  
DOCKED: ATOM     28  N   UNL     1     136.015  80.793 224.059 -0.09 +0.03    -0.298 NA 
DOCKED: ATOM     29  C   UNL     1     141.758  80.621 223.744 -0.59 -0.00    +0.000 A  
DOCKED: BRANCH  28  30
DOCKED: ATOM     30  C   UNL     1     135.549  81.899 224.936 -0.18 -0.01    +0.071 C  
DOCKED: ATOM     31  C   UNL     1     136.027  83.257 224.430 -0.16 -0.00    +0.036 C  
DOCKED: ATOM     32  C   UNL     1     136.037  81.813 226.392 -0.35 -0.02    +0.100 C  
DOCKED: ATOM     33  C   UNL     1     136.577  83.961 225.657 -0.16 -0.00    +0.082 C  
DOCKED: ATOM     34  N   UNL     1     136.950  82.930 226.620 -0.21 +0.03    -0.315 NA 
DOCKED: ATOM     35  H   UNL     1     136.814  83.299 227.590 -0.31 -0.03    +0.122 HD 
DOCKED: ENDBRANCH  28  30
DOCKED: ENDBRANCH  15  17
DOCKED: ENDBRANCH   6  15
DOCKED: TORSDOF 5
DOCKED: TER
DOCKED: ENDMDL
________________________________________________________________________________


    FINAL DOCKED STATE:
    ________________________


Run:   15 / 20
Time taken for this run:   0.024s

DOCKED: MODEL        15
DOCKED: USER    Run = 15
DOCKED: USER
DOCKED: USER    Estimated Free Energy of Binding    =  -7.92 kcal/mol  [=(1)+(2)+(3)-(4)]
DOCKED: USER
DOCKED: USER    (1) Final Intermolecular Energy     =  -9.41 kcal/mol
DOCKED: USER        vdW + Hbond + desolv Energy     =  -9.38 kcal/mol
DOCKED: USER        Electrostatic Energy            =  -0.04 kcal/mol
DOCKED: USER        Moving Ligand-Fixed Receptor    =  -9.41 kcal/mol
DOCKED: USER        Moving Ligand-Moving Receptor   =  +0.00 kcal/mol
DOCKED: USER    (2) Final Total Internal Energy     =  -1.26 kcal/mol
DOCKED: USER    (3) Torsional Free Energy           =  +1.49 kcal/mol
DOCKED: USER    (4) Unbound System's Energy         =  -1.26 kcal/mol
DOCKED: USER
DOCKED: USER
DOCKED: REMARK SMILES [N-]=C(O)c1ccc2cc(C(=O)N3C[C@]4(CCN([C@@H]5CCNC5)C4)c4ccccc43)[nH]c2c1
DOCKED: REMARK SMILES IDX 4 1 5 2 6 3 7 4 8 5 9 6 30 7 31 8 32 9 2 11 1 12 3 13 10 15
DOCKED: REMARK SMILES IDX 11 16 12 17 13 18 29 19 14 20 28 21 24 22 15 23 23 24 27 25
DOCKED: REMARK SMILES IDX 25 26 16 27 17 28 26 29 18 30 19 31 22 32 20 33 21 34
DOCKED: REMARK H PARENT 30 10 3 14 21 35
DOCKED: USER                              x       y       z     vdW  Elec       q    Type
DOCKED: USER                           _______ _______ _______ _____ _____    ______ ____
DOCKED: ROOT
DOCKED: ATOM      1  C   UNL     1     139.953  69.089 226.037 -0.50 +0.00    -0.006 A  
DOCKED: ATOM      2  C   UNL     1     141.199  69.755 226.207 -0.52 -0.00    +0.010 A  
DOCKED: ATOM      3  C   UNL     1     141.558  70.838 225.385 -0.47 -0.00    +0.011 A  
DOCKED: ATOM      4  C   UNL     1     140.656  71.235 224.403 -0.46 -0.00    +0.000 A  
DOCKED: ATOM      5  C   UNL     1     140.732  72.250 223.475 -0.10 -0.00    +0.042 A  
DOCKED: ATOM      6  C   UNL     1     139.537  72.176 222.764 -0.25 -0.02    +0.106 A  
DOCKED: ATOM      7  N   UNL     1     138.754  71.174 223.234 -0.11 +0.08    -0.350 N  
DOCKED: ATOM      8  C   UNL     1     139.454  70.606 224.229 -0.36 -0.01    +0.047 A  
DOCKED: ATOM      9  C   UNL     1     139.067  69.529 225.025 -0.37 -0.01    +0.036 A  
DOCKED: ATOM     10  H   UNL     1     137.797  70.908 222.911 +0.05 -0.03    +0.167 HD 
DOCKED: ENDROOT
DOCKED: BRANCH   1  11
DOCKED: ATOM     11  C   UNL     1     139.578  67.945 226.899 -0.62 +0.00    -0.000 C  
DOCKED: ATOM     12  N   UNL     1     138.818  67.000 226.448 -0.06 -0.04    -0.771 NA 
DOCKED: BRANCH  11  13
DOCKED: ATOM     13  O   UNL     1     140.044  67.878 228.210 -0.07 +0.15    -0.532 OA 
DOCKED: ATOM     14  H   UNL     1     140.743  67.198 228.483 -0.12 -0.15    +0.290 HD 
DOCKED: ENDBRANCH  11  13
DOCKED: ENDBRANCH   1  11
DOCKED: BRANCH   6  15
DOCKED: ATOM     15  C   UNL     1     139.144  73.086 221.672 -0.14 -0.06    +0.274 C  
DOCKED: ATOM     16  O   UNL     1     138.289  72.709 220.828 -0.04 +0.05    -0.267 OA 
DOCKED: BRANCH  15  17
DOCKED: ATOM     17  N   UNL     1     139.756  74.375 221.525 -0.15 +0.05    -0.306 N  
DOCKED: ATOM     18  C   UNL     1     139.266  75.588 222.175 -0.25 -0.03    +0.139 C  
DOCKED: ATOM     19  C   UNL     1     140.922  74.684 220.776 -0.24 -0.01    +0.048 A  
DOCKED: ATOM     20  C   UNL     1     140.173  76.750 221.639 -0.32 -0.01    +0.029 C  
DOCKED: ATOM     21  C   UNL     1     141.764  73.784 220.113 -0.19 -0.01    +0.026 A  
DOCKED: ATOM     22  C   UNL     1     141.200  76.026 220.814 -0.29 +0.01    -0.015 A  
DOCKED: ATOM     23  C   UNL     1     139.382  77.769 220.829 -0.14 -0.01    +0.030 C  
DOCKED: ATOM     24  C   UNL     1     140.772  77.593 222.768 -0.34 -0.03    +0.098 C  
DOCKED: ATOM     25  C   UNL     1     142.884  74.289 219.436 -0.24 -0.00    +0.002 A  
DOCKED: ATOM     26  C   UNL     1     142.311  76.550 220.139 -0.29 -0.00    +0.006 A  
DOCKED: ATOM     27  C   UNL     1     138.919  78.783 221.864 -0.19 -0.02    +0.086 C  
DOCKED: ATOM     28  N   UNL     1     139.810  78.673 223.038 -0.18 +0.06    -0.298 NA 
DOCKED: ATOM     29  C   UNL     1     143.154  75.670 219.445 -0.37 -0.00    +0.000 A  
DOCKED: BRANCH  28  30
DOCKED: ATOM     30  C   UNL     1     140.467  79.933 223.471 -0.45 -0.01    +0.071 C  
DOCKED: ATOM     31  C   UNL     1     140.420  80.996 222.377 -0.35 -0.01    +0.036 C  
DOCKED: ATOM     32  C   UNL     1     141.955  79.790 223.835 -0.54 -0.02    +0.100 C  
DOCKED: ATOM     33  C   UNL     1     141.831  81.552 222.310 -0.41 -0.02    +0.082 C  
DOCKED: ATOM     34  N   UNL     1     142.727  80.529 222.840 -0.33 +0.09    -0.315 NA 
DOCKED: ATOM     35  H   UNL     1     143.542  80.994 223.306 +0.06 -0.03    +0.122 HD 
DOCKED: ENDBRANCH  28  30
DOCKED: ENDBRANCH  15  17
DOCKED: ENDBRANCH   6  15
DOCKED: TORSDOF 5
DOCKED: TER
DOCKED: ENDMDL
________________________________________________________________________________


    FINAL DOCKED STATE:
    ________________________


Run:   16 / 20
Time taken for this run:   0.024s

DOCKED: MODEL        16
DOCKED: USER    Run = 16
DOCKED: USER
DOCKED: USER    Estimated Free Energy of Binding    =  -8.36 kcal/mol  [=(1)+(2)+(3)-(4)]
DOCKED: USER
DOCKED: USER    (1) Final Intermolecular Energy     =  -9.86 kcal/mol
DOCKED: USER        vdW + Hbond + desolv Energy     =  -8.72 kcal/mol
DOCKED: USER        Electrostatic Energy            =  -1.14 kcal/mol
DOCKED: USER        Moving Ligand-Fixed Receptor    =  -9.86 kcal/mol
DOCKED: USER        Moving Ligand-Moving Receptor   =  +0.00 kcal/mol
DOCKED: USER    (2) Final Total Internal Energy     =  -0.83 kcal/mol
DOCKED: USER    (3) Torsional Free Energy           =  +1.49 kcal/mol
DOCKED: USER    (4) Unbound System's Energy         =  -0.83 kcal/mol
DOCKED: USER
DOCKED: USER
DOCKED: REMARK SMILES [N-]=C(O)c1ccc2cc(C(=O)N3C[C@]4(CCN([C@@H]5CCNC5)C4)c4ccccc43)[nH]c2c1
DOCKED: REMARK SMILES IDX 4 1 5 2 6 3 7 4 8 5 9 6 30 7 31 8 32 9 2 11 1 12 3 13 10 15
DOCKED: REMARK SMILES IDX 11 16 12 17 13 18 29 19 14 20 28 21 24 22 15 23 23 24 27 25
DOCKED: REMARK SMILES IDX 25 26 16 27 17 28 26 29 18 30 19 31 22 32 20 33 21 34
DOCKED: REMARK H PARENT 30 10 3 14 21 35
DOCKED: USER                              x       y       z     vdW  Elec       q    Type
DOCKED: USER                           _______ _______ _______ _____ _____    ______ ____
DOCKED: ROOT
DOCKED: ATOM      1  C   UNL     1     144.364  72.802 219.829 -0.34 +0.00    -0.006 A  
DOCKED: ATOM      2  C   UNL     1     143.821  71.547 220.222 -0.28 -0.00    +0.010 A  
DOCKED: ATOM      3  C   UNL     1     142.564  71.468 220.847 -0.19 -0.00    +0.011 A  
DOCKED: ATOM      4  C   UNL     1     141.872  72.654 221.068 -0.26 -0.00    +0.000 A  
DOCKED: ATOM      5  C   UNL     1     140.639  72.878 221.641 -0.27 -0.00    +0.042 A  
DOCKED: ATOM      6  C   UNL     1     140.463  74.259 221.585 -0.27 -0.01    +0.106 A  
DOCKED: ATOM      7  N   UNL     1     141.528  74.859 220.998 -0.15 +0.10    -0.350 N  
DOCKED: ATOM      8  C   UNL     1     142.380  73.867 220.694 -0.26 -0.01    +0.047 A  
DOCKED: ATOM      9  C   UNL     1     143.623  73.982 220.073 -0.34 -0.01    +0.036 A  
DOCKED: ATOM     10  H   UNL     1     141.655  75.876 220.798 -0.01 -0.07    +0.167 HD 
DOCKED: ENDROOT
DOCKED: BRANCH   1  11
DOCKED: ATOM     11  C   UNL     1     145.690  72.886 219.176 -0.32 -0.00    -0.000 C  
DOCKED: ATOM     12  N   UNL     1     145.916  72.273 218.059 -0.28 -0.90    -0.771 NA 
DOCKED: BRANCH  11  13
DOCKED: ATOM     13  O   UNL     1     146.711  73.631 219.763 -0.37 -0.23    -0.532 OA 
DOCKED: ATOM     14  H   UNL     1     147.024  74.503 219.353 -0.42 -0.06    +0.290 HD 
DOCKED: ENDBRANCH  11  13
DOCKED: ENDBRANCH   1  11
DOCKED: BRANCH   6  15
DOCKED: ATOM     15  C   UNL     1     139.268  74.979 222.059 -0.15 -0.06    +0.274 C  
DOCKED: ATOM     16  O   UNL     1     138.207  74.338 222.286 -0.14 +0.10    -0.267 OA 
DOCKED: BRANCH  15  17
DOCKED: ATOM     17  N   UNL     1     139.275  76.404 222.219 -0.19 +0.06    -0.306 N  
DOCKED: ATOM     18  C   UNL     1     140.443  77.245 221.970 -0.32 -0.04    +0.139 C  
DOCKED: ATOM     19  C   UNL     1     138.182  77.225 222.601 -0.27 -0.01    +0.048 A  
DOCKED: ATOM     20  C   UNL     1     140.013  78.697 222.378 -0.34 -0.01    +0.029 C  
DOCKED: ATOM     21  C   UNL     1     136.855  76.825 222.802 -0.23 -0.00    +0.026 A  
DOCKED: ATOM     22  C   UNL     1     138.553  78.540 222.702 -0.28 +0.00    -0.015 A  
DOCKED: ATOM     23  C   UNL     1     140.822  79.227 223.556 -0.51 -0.01    +0.030 C  
DOCKED: ATOM     24  C   UNL     1     140.292  79.722 221.275 -0.20 -0.03    +0.098 C  
DOCKED: ATOM     25  C   UNL     1     135.910  77.797 223.164 -0.16 -0.00    +0.002 A  
DOCKED: ATOM     26  C   UNL     1     137.626  79.524 223.068 -0.25 -0.00    +0.006 A  
DOCKED: ATOM     27  C   UNL     1     142.018  79.905 222.905 -0.54 -0.03    +0.086 C  
DOCKED: ATOM     28  N   UNL     1     141.656  80.224 221.509 -0.20 +0.11    -0.298 NA 
DOCKED: ATOM     29  C   UNL     1     136.296  79.143 223.302 -0.17 -0.00    +0.000 A  
DOCKED: BRANCH  28  30
DOCKED: ATOM     30  C   UNL     1     141.821  81.646 221.107 -0.26 -0.02    +0.071 C  
DOCKED: ATOM     31  C   UNL     1     140.966  82.574 221.965 -0.24 -0.00    +0.036 C  
DOCKED: ATOM     32  C   UNL     1     141.423  81.953 219.654 -0.23 -0.03    +0.100 C  
DOCKED: ATOM     33  C   UNL     1     140.281  83.500 220.976 -0.23 -0.01    +0.082 C  
DOCKED: ATOM     34  N   UNL     1     140.241  82.810 219.690 -0.07 +0.08    -0.315 NA 
DOCKED: ATOM     35  H   UNL     1     140.300  83.516 218.919 +0.03 -0.03    +0.122 HD 
DOCKED: ENDBRANCH  28  30
DOCKED: ENDBRANCH  15  17
DOCKED: ENDBRANCH   6  15
DOCKED: TORSDOF 5
DOCKED: TER
DOCKED: ENDMDL
________________________________________________________________________________


    FINAL DOCKED STATE:
    ________________________


Run:   17 / 20
Time taken for this run:   0.024s

DOCKED: MODEL        17
DOCKED: USER    Run = 17
DOCKED: USER
DOCKED: USER    Estimated Free Energy of Binding    =  -8.58 kcal/mol  [=(1)+(2)+(3)-(4)]
DOCKED: USER
DOCKED: USER    (1) Final Intermolecular Energy     = -10.07 kcal/mol
DOCKED: USER        vdW + Hbond + desolv Energy     =  -9.41 kcal/mol
DOCKED: USER        Electrostatic Energy            =  -0.66 kcal/mol
DOCKED: USER        Moving Ligand-Fixed Receptor    = -10.07 kcal/mol
DOCKED: USER        Moving Ligand-Moving Receptor   =  +0.00 kcal/mol
DOCKED: USER    (2) Final Total Internal Energy     =  -1.19 kcal/mol
DOCKED: USER    (3) Torsional Free Energy           =  +1.49 kcal/mol
DOCKED: USER    (4) Unbound System's Energy         =  -1.19 kcal/mol
DOCKED: USER
DOCKED: USER
DOCKED: REMARK SMILES [N-]=C(O)c1ccc2cc(C(=O)N3C[C@]4(CCN([C@@H]5CCNC5)C4)c4ccccc43)[nH]c2c1
DOCKED: REMARK SMILES IDX 4 1 5 2 6 3 7 4 8 5 9 6 30 7 31 8 32 9 2 11 1 12 3 13 10 15
DOCKED: REMARK SMILES IDX 11 16 12 17 13 18 29 19 14 20 28 21 24 22 15 23 23 24 27 25
DOCKED: REMARK SMILES IDX 25 26 16 27 17 28 26 29 18 30 19 31 22 32 20 33 21 34
DOCKED: REMARK H PARENT 30 10 3 14 21 35
DOCKED: USER                              x       y       z     vdW  Elec       q    Type
DOCKED: USER                           _______ _______ _______ _____ _____    ______ ____
DOCKED: ROOT
DOCKED: ATOM      1  C   UNL     1     144.156  74.086 219.834 -0.39 +0.00    -0.006 A  
DOCKED: ATOM      2  C   UNL     1     144.070  75.193 218.944 -0.05 -0.01    +0.010 A  
DOCKED: ATOM      3  C   UNL     1     143.011  76.114 219.036 -0.33 -0.01    +0.011 A  
DOCKED: ATOM      4  C   UNL     1     142.054  75.907 220.025 -0.29 -0.00    +0.000 A  
DOCKED: ATOM      5  C   UNL     1     140.933  76.636 220.352 -0.21 -0.02    +0.042 A  
DOCKED: ATOM      6  C   UNL     1     140.364  75.958 221.428 -0.28 -0.03    +0.106 A  
DOCKED: ATOM      7  N   UNL     1     141.102  74.870 221.758 -0.15 +0.05    -0.350 N  
DOCKED: ATOM      8  C   UNL     1     142.126  74.850 220.889 -0.27 -0.02    +0.047 A  
DOCKED: ATOM      9  C   UNL     1     143.160  73.918 220.825 -0.27 -0.01    +0.036 A  
DOCKED: ATOM     10  H   UNL     1     140.931  74.197 222.538 +0.07 +0.05    +0.167 HD 
DOCKED: ENDROOT
DOCKED: BRANCH   1  11
DOCKED: ATOM     11  C   UNL     1     145.268  73.114 219.733 -0.46 -0.00    -0.000 C  
DOCKED: ATOM     12  N   UNL     1     145.625  72.637 218.584 -0.47 -0.50    -0.771 NA 
DOCKED: BRANCH  11  13
DOCKED: ATOM     13  O   UNL     1     145.941  72.702 220.881 -0.21 +0.02    -0.532 OA 
DOCKED: ATOM     14  H   UNL     1     145.601  71.925 221.436 -0.37 -0.20    +0.290 HD 
DOCKED: ENDBRANCH  11  13
DOCKED: ENDBRANCH   1  11
DOCKED: BRANCH   6  15
DOCKED: ATOM     15  C   UNL     1     139.148  76.380 222.146 -0.21 -0.06    +0.274 C  
DOCKED: ATOM     16  O   UNL     1     138.206  75.558 222.304 -0.22 +0.07    -0.267 OA 
DOCKED: BRANCH  15  17
DOCKED: ATOM     17  N   UNL     1     138.997  77.723 222.624 -0.16 +0.06    -0.306 N  
DOCKED: ATOM     18  C   UNL     1     137.705  78.370 222.836 -0.15 -0.02    +0.139 C  
DOCKED: ATOM     19  C   UNL     1     140.034  78.618 222.995 -0.36 -0.01    +0.048 A  
DOCKED: ATOM     20  C   UNL     1     138.035  79.846 223.253 -0.29 -0.00    +0.029 C  
DOCKED: ATOM     21  C   UNL     1     141.405  78.341 223.063 -0.53 -0.01    +0.026 A  
DOCKED: ATOM     22  C   UNL     1     139.535  79.840 223.362 -0.40 +0.00    -0.015 A  
DOCKED: ATOM     23  C   UNL     1     137.526  80.859 222.233 -0.15 -0.00    +0.030 C  
DOCKED: ATOM     24  C   UNL     1     137.324  80.264 224.542 -0.07 -0.01    +0.098 C  
DOCKED: ATOM     25  C   UNL     1     142.275  79.363 223.470 -0.61 -0.00    +0.002 A  
DOCKED: ATOM     26  C   UNL     1     140.388  80.875 223.766 -0.39 -0.00    +0.006 A  
DOCKED: ATOM     27  C   UNL     1     136.116  81.179 222.706 -0.09 -0.01    +0.086 C  
DOCKED: ATOM     28  N   UNL     1     136.027  80.830 224.139 -0.10 +0.03    -0.298 NA 
DOCKED: ATOM     29  C   UNL     1     141.769  80.629 223.815 -0.59 -0.00    +0.000 A  
DOCKED: BRANCH  28  30
DOCKED: ATOM     30  C   UNL     1     135.568  81.917 225.042 -0.19 -0.01    +0.071 C  
DOCKED: ATOM     31  C   UNL     1     136.019  83.288 224.544 -0.17 -0.00    +0.036 C  
DOCKED: ATOM     32  C   UNL     1     136.090  81.816 226.485 -0.36 -0.02    +0.100 C  
DOCKED: ATOM     33  C   UNL     1     136.588  83.981 225.769 -0.14 -0.00    +0.082 C  
DOCKED: ATOM     34  N   UNL     1     136.996  82.941 226.708 -0.20 +0.03    -0.315 NA 
DOCKED: ATOM     35  H   UNL     1     136.877  83.295 227.686 -0.34 -0.03    +0.122 HD 
DOCKED: ENDBRANCH  28  30
DOCKED: ENDBRANCH  15  17
DOCKED: ENDBRANCH   6  15
DOCKED: TORSDOF 5
DOCKED: TER
DOCKED: ENDMDL
________________________________________________________________________________


    FINAL DOCKED STATE:
    ________________________


Run:   18 / 20
Time taken for this run:   0.024s

DOCKED: MODEL        18
DOCKED: USER    Run = 18
DOCKED: USER
DOCKED: USER    Estimated Free Energy of Binding    =  -8.82 kcal/mol  [=(1)+(2)+(3)-(4)]
DOCKED: USER
DOCKED: USER    (1) Final Intermolecular Energy     = -10.31 kcal/mol
DOCKED: USER        vdW + Hbond + desolv Energy     =  -9.86 kcal/mol
DOCKED: USER        Electrostatic Energy            =  -0.45 kcal/mol
DOCKED: USER        Moving Ligand-Fixed Receptor    = -10.31 kcal/mol
DOCKED: USER        Moving Ligand-Moving Receptor   =  +0.00 kcal/mol
DOCKED: USER    (2) Final Total Internal Energy     =  -1.18 kcal/mol
DOCKED: USER    (3) Torsional Free Energy           =  +1.49 kcal/mol
DOCKED: USER    (4) Unbound System's Energy         =  -1.18 kcal/mol
DOCKED: USER
DOCKED: USER
DOCKED: REMARK SMILES [N-]=C(O)c1ccc2cc(C(=O)N3C[C@]4(CCN([C@@H]5CCNC5)C4)c4ccccc43)[nH]c2c1
DOCKED: REMARK SMILES IDX 4 1 5 2 6 3 7 4 8 5 9 6 30 7 31 8 32 9 2 11 1 12 3 13 10 15
DOCKED: REMARK SMILES IDX 11 16 12 17 13 18 29 19 14 20 28 21 24 22 15 23 23 24 27 25
DOCKED: REMARK SMILES IDX 25 26 16 27 17 28 26 29 18 30 19 31 22 32 20 33 21 34
DOCKED: REMARK H PARENT 30 10 3 14 21 35
DOCKED: USER                              x       y       z     vdW  Elec       q    Type
DOCKED: USER                           _______ _______ _______ _____ _____    ______ ____
DOCKED: ROOT
DOCKED: ATOM      1  C   UNL     1     144.364  74.011 220.277 -0.46 +0.00    -0.006 A  
DOCKED: ATOM      2  C   UNL     1     143.280  73.225 220.759 -0.30 -0.00    +0.010 A  
DOCKED: ATOM      3  C   UNL     1     141.996  73.780 220.907 -0.26 -0.00    +0.011 A  
DOCKED: ATOM      4  C   UNL     1     141.822  75.117 220.566 -0.29 -0.00    +0.000 A  
DOCKED: ATOM      5  C   UNL     1     140.697  75.910 220.599 -0.22 -0.01    +0.042 A  
DOCKED: ATOM      6  C   UNL     1     141.122  77.155 220.139 -0.19 -0.05    +0.106 A  
DOCKED: ATOM      7  N   UNL     1     142.441  77.131 219.827 -0.16 +0.24    -0.350 N  
DOCKED: ATOM      8  C   UNL     1     142.855  75.883 220.100 -0.29 -0.03    +0.047 A  
DOCKED: ATOM      9  C   UNL     1     144.140  75.366 219.942 -0.31 -0.02    +0.036 A  
DOCKED: ATOM     10  H   UNL     1     143.017  77.909 219.434 -0.33 -0.15    +0.167 HD 
DOCKED: ENDROOT
DOCKED: BRANCH   1  11
DOCKED: ATOM     11  C   UNL     1     145.717  73.428 220.126 -0.57 -0.00    -0.000 C  
DOCKED: ATOM     12  N   UNL     1     146.376  73.014 221.161 +0.06 +0.00    -0.771 NA 
DOCKED: BRANCH  11  13
DOCKED: ATOM     13  O   UNL     1     146.294  73.321 218.863 -0.60 -0.40    -0.532 OA 
DOCKED: ATOM     14  H   UNL     1     146.405  74.134 218.268 -0.42 -0.02    +0.290 HD 
DOCKED: ENDBRANCH  11  13
DOCKED: ENDBRANCH   1  11
DOCKED: BRANCH   6  15
DOCKED: ATOM     15  C   UNL     1     140.255  78.335 219.970 -0.07 -0.10    +0.274 C  
DOCKED: ATOM     16  O   UNL     1     139.784  78.600 218.832 -0.02 +0.09    -0.267 OA 
DOCKED: BRANCH  15  17
DOCKED: ATOM     17  N   UNL     1     139.979  79.216 221.067 -0.05 +0.09    -0.306 N  
DOCKED: ATOM     18  C   UNL     1     138.637  79.658 221.438 -0.11 -0.03    +0.139 C  
DOCKED: ATOM     19  C   UNL     1     140.920  79.769 221.975 -0.33 -0.01    +0.048 A  
DOCKED: ATOM     20  C   UNL     1     138.838  80.682 222.610 -0.26 -0.00    +0.029 C  
DOCKED: ATOM     21  C   UNL     1     142.291  79.490 222.044 -0.46 -0.01    +0.026 A  
DOCKED: ATOM     22  C   UNL     1     140.317  80.609 222.873 -0.39 +0.00    -0.015 A  
DOCKED: ATOM     23  C   UNL     1     138.379  82.085 222.232 -0.18 -0.00    +0.030 C  
DOCKED: ATOM     24  C   UNL     1     137.977  80.350 223.831 -0.31 -0.01    +0.098 C  
DOCKED: ATOM     25  C   UNL     1     143.055  80.132 223.030 -0.65 -0.00    +0.002 A  
DOCKED: ATOM     26  C   UNL     1     141.064  81.263 223.861 -0.39 -0.00    +0.006 A  
DOCKED: ATOM     27  C   UNL     1     136.912  82.112 222.635 -0.12 -0.01    +0.086 C  
DOCKED: ATOM     28  N   UNL     1     136.697  81.052 223.642 -0.10 +0.03    -0.298 NA 
DOCKED: ATOM     29  C   UNL     1     142.444  81.021 223.933 -0.64 -0.00    +0.000 A  
DOCKED: BRANCH  28  30
DOCKED: ATOM     30  C   UNL     1     136.088  81.492 224.924 -0.25 -0.01    +0.071 C  
DOCKED: ATOM     31  C   UNL     1     135.644  82.950 224.863 -0.16 -0.00    +0.036 C  
DOCKED: ATOM     32  C   UNL     1     137.021  81.400 226.143 -0.33 -0.01    +0.100 C  
DOCKED: ATOM     33  C   UNL     1     136.166  83.572 226.145 -0.26 -0.00    +0.082 C  
DOCKED: ATOM     34  N   UNL     1     137.295  82.763 226.593 -0.18 +0.02    -0.315 NA 
DOCKED: ATOM     35  H   UNL     1     137.338  82.781 227.639 -0.24 -0.04    +0.122 HD 
DOCKED: ENDBRANCH  28  30
DOCKED: ENDBRANCH  15  17
DOCKED: ENDBRANCH   6  15
DOCKED: TORSDOF 5
DOCKED: TER
DOCKED: ENDMDL
________________________________________________________________________________


    FINAL DOCKED STATE:
    ________________________


Run:   19 / 20
Time taken for this run:   0.024s

DOCKED: MODEL        19
DOCKED: USER    Run = 19
DOCKED: USER
DOCKED: USER    Estimated Free Energy of Binding    =  -9.48 kcal/mol  [=(1)+(2)+(3)-(4)]
DOCKED: USER
DOCKED: USER    (1) Final Intermolecular Energy     = -10.97 kcal/mol
DOCKED: USER        vdW + Hbond + desolv Energy     =  -9.90 kcal/mol
DOCKED: USER        Electrostatic Energy            =  -1.07 kcal/mol
DOCKED: USER        Moving Ligand-Fixed Receptor    = -10.97 kcal/mol
DOCKED: USER        Moving Ligand-Moving Receptor   =  +0.00 kcal/mol
DOCKED: USER    (2) Final Total Internal Energy     =  -1.19 kcal/mol
DOCKED: USER    (3) Torsional Free Energy           =  +1.49 kcal/mol
DOCKED: USER    (4) Unbound System's Energy         =  -1.19 kcal/mol
DOCKED: USER
DOCKED: USER
DOCKED: REMARK SMILES [N-]=C(O)c1ccc2cc(C(=O)N3C[C@]4(CCN([C@@H]5CCNC5)C4)c4ccccc43)[nH]c2c1
DOCKED: REMARK SMILES IDX 4 1 5 2 6 3 7 4 8 5 9 6 30 7 31 8 32 9 2 11 1 12 3 13 10 15
DOCKED: REMARK SMILES IDX 11 16 12 17 13 18 29 19 14 20 28 21 24 22 15 23 23 24 27 25
DOCKED: REMARK SMILES IDX 25 26 16 27 17 28 26 29 18 30 19 31 22 32 20 33 21 34
DOCKED: REMARK H PARENT 30 10 3 14 21 35
DOCKED: USER                              x       y       z     vdW  Elec       q    Type
DOCKED: USER                           _______ _______ _______ _____ _____    ______ ____
DOCKED: ROOT
DOCKED: ATOM      1  C   UNL     1     144.426  73.789 220.288 -0.46 +0.00    -0.006 A  
DOCKED: ATOM      2  C   UNL     1     143.271  73.064 220.696 -0.30 -0.00    +0.010 A  
DOCKED: ATOM      3  C   UNL     1     142.021  73.698 220.800 -0.27 -0.00    +0.011 A  
DOCKED: ATOM      4  C   UNL     1     141.950  75.052 220.491 -0.30 -0.00    +0.000 A  
DOCKED: ATOM      5  C   UNL     1     140.879  75.917 220.494 -0.22 -0.01    +0.042 A  
DOCKED: ATOM      6  C   UNL     1     141.405  77.142 220.091 -0.21 -0.05    +0.106 A  
DOCKED: ATOM      7  N   UNL     1     142.734  77.040 219.841 -0.16 +0.26    -0.350 N  
DOCKED: ATOM      8  C   UNL     1     143.052  75.760 220.096 -0.30 -0.03    +0.047 A  
DOCKED: ATOM      9  C   UNL     1     144.307  75.165 219.983 -0.28 -0.02    +0.036 A  
DOCKED: ATOM     10  H   UNL     1     143.377  77.788 219.498 -0.43 -0.17    +0.167 HD 
DOCKED: ENDROOT
DOCKED: BRANCH   1  11
DOCKED: ATOM     11  C   UNL     1     145.745  73.122 220.184 -0.57 -0.00    -0.000 C  
DOCKED: ATOM     12  N   UNL     1     146.266  72.866 219.028 -0.33 -0.83    -0.771 NA 
DOCKED: BRANCH  11  13
DOCKED: ATOM     13  O   UNL     1     146.438  72.764 221.338 -0.21 +0.04    -0.532 OA 
DOCKED: ATOM     14  H   UNL     1     146.210  71.916 221.844 -0.34 -0.25    +0.290 HD 
DOCKED: ENDBRANCH  11  13
DOCKED: ENDBRANCH   1  11
DOCKED: BRANCH   6  15
DOCKED: ATOM     15  C   UNL     1     140.625  78.381 219.916 -0.09 -0.11    +0.274 C  
DOCKED: ATOM     16  O   UNL     1     140.278  78.737 218.758 -0.04 +0.10    -0.267 OA 
DOCKED: BRANCH  15  17
DOCKED: ATOM     17  N   UNL     1     140.298  79.216 221.035 -0.06 +0.10    -0.306 N  
DOCKED: ATOM     18  C   UNL     1     138.935  79.603 221.390 -0.12 -0.03    +0.139 C  
DOCKED: ATOM     19  C   UNL     1     141.201  79.766 221.982 -0.37 -0.02    +0.048 A  
DOCKED: ATOM     20  C   UNL     1     139.078  80.592 222.599 -0.28 -0.00    +0.029 C  
DOCKED: ATOM     21  C   UNL     1     142.577  79.528 222.073 -0.39 -0.01    +0.026 A  
DOCKED: ATOM     22  C   UNL     1     140.552  80.556 222.894 -0.41 +0.00    -0.015 A  
DOCKED: ATOM     23  C   UNL     1     138.582  81.993 222.257 -0.19 -0.00    +0.030 C  
DOCKED: ATOM     24  C   UNL     1     138.201  80.194 223.788 -0.32 -0.01    +0.098 C  
DOCKED: ATOM     25  C   UNL     1     143.299  80.160 223.098 -0.64 -0.00    +0.002 A  
DOCKED: ATOM     26  C   UNL     1     141.256  81.200 223.920 -0.41 -0.00    +0.006 A  
DOCKED: ATOM     27  C   UNL     1     137.107  81.961 222.627 -0.13 -0.01    +0.086 C  
DOCKED: ATOM     28  N   UNL     1     136.904  80.861 223.593 -0.11 +0.03    -0.298 NA 
DOCKED: ATOM     29  C   UNL     1     142.641  80.998 224.015 -0.64 -0.00    +0.000 A  
DOCKED: BRANCH  28  30
DOCKED: ATOM     30  C   UNL     1     136.253  81.239 224.874 -0.26 -0.01    +0.071 C  
DOCKED: ATOM     31  C   UNL     1     135.621  82.625 224.796 -0.17 -0.00    +0.036 C  
DOCKED: ATOM     32  C   UNL     1     137.200  81.290 226.085 -0.26 -0.01    +0.100 C  
DOCKED: ATOM     33  C   UNL     1     136.068  83.331 226.063 -0.26 -0.00    +0.082 C  
DOCKED: ATOM     34  N   UNL     1     137.297  82.684 226.512 -0.18 +0.02    -0.315 NA 
DOCKED: ATOM     35  H   UNL     1     137.346  82.726 227.557 -0.20 -0.03    +0.122 HD 
DOCKED: ENDBRANCH  28  30
DOCKED: ENDBRANCH  15  17
DOCKED: ENDBRANCH   6  15
DOCKED: TORSDOF 5
DOCKED: TER
DOCKED: ENDMDL
________________________________________________________________________________


    FINAL DOCKED STATE:
    ________________________


Run:   20 / 20
Time taken for this run:   0.024s

DOCKED: MODEL        20
DOCKED: USER    Run = 20
DOCKED: USER
DOCKED: USER    Estimated Free Energy of Binding    =  -8.75 kcal/mol  [=(1)+(2)+(3)-(4)]
DOCKED: USER
DOCKED: USER    (1) Final Intermolecular Energy     = -10.25 kcal/mol
DOCKED: USER        vdW + Hbond + desolv Energy     =  -9.40 kcal/mol
DOCKED: USER        Electrostatic Energy            =  -0.85 kcal/mol
DOCKED: USER        Moving Ligand-Fixed Receptor    = -10.25 kcal/mol
DOCKED: USER        Moving Ligand-Moving Receptor   =  +0.00 kcal/mol
DOCKED: USER    (2) Final Total Internal Energy     =  -1.01 kcal/mol
DOCKED: USER    (3) Torsional Free Energy           =  +1.49 kcal/mol
DOCKED: USER    (4) Unbound System's Energy         =  -1.01 kcal/mol
DOCKED: USER
DOCKED: USER
DOCKED: REMARK SMILES [N-]=C(O)c1ccc2cc(C(=O)N3C[C@]4(CCN([C@@H]5CCNC5)C4)c4ccccc43)[nH]c2c1
DOCKED: REMARK SMILES IDX 4 1 5 2 6 3 7 4 8 5 9 6 30 7 31 8 32 9 2 11 1 12 3 13 10 15
DOCKED: REMARK SMILES IDX 11 16 12 17 13 18 29 19 14 20 28 21 24 22 15 23 23 24 27 25
DOCKED: REMARK SMILES IDX 25 26 16 27 17 28 26 29 18 30 19 31 22 32 20 33 21 34
DOCKED: REMARK H PARENT 30 10 3 14 21 35
DOCKED: USER                              x       y       z     vdW  Elec       q    Type
DOCKED: USER                           _______ _______ _______ _____ _____    ______ ____
DOCKED: ROOT
DOCKED: ATOM      1  C   UNL     1     144.097  73.931 219.651 -0.36 +0.00    -0.006 A  
DOCKED: ATOM      2  C   UNL     1     144.038  75.033 218.753 -0.09 -0.01    +0.010 A  
DOCKED: ATOM      3  C   UNL     1     143.063  76.035 218.901 -0.32 -0.01    +0.011 A  
DOCKED: ATOM      4  C   UNL     1     142.160  75.912 219.953 -0.30 -0.00    +0.000 A  
DOCKED: ATOM      5  C   UNL     1     141.122  76.730 220.342 -0.23 -0.02    +0.042 A  
DOCKED: ATOM      6  C   UNL     1     140.575  76.107 221.461 -0.29 -0.03    +0.106 A  
DOCKED: ATOM      7  N   UNL     1     141.246  74.967 221.758 -0.12 +0.06    -0.350 N  
DOCKED: ATOM      8  C   UNL     1     142.206  74.860 220.824 -0.29 -0.02    +0.047 A  
DOCKED: ATOM      9  C   UNL     1     143.158  73.849 220.706 -0.28 -0.01    +0.036 A  
DOCKED: ATOM     10  H   UNL     1     141.075  74.317 222.557 +0.08 +0.05    +0.167 HD 
DOCKED: ENDROOT
DOCKED: BRANCH   1  11
DOCKED: ATOM     11  C   UNL     1     145.121  72.873 219.491 -0.39 -0.00    -0.000 C  
DOCKED: ATOM     12  N   UNL     1     146.098  73.021 218.655 -0.42 -0.71    -0.771 NA 
DOCKED: BRANCH  11  13
DOCKED: ATOM     13  O   UNL     1     145.040  71.704 220.244 +0.01 +0.01    -0.532 OA 
DOCKED: ATOM     14  H   UNL     1     145.481  71.636 221.154 -0.33 -0.20    +0.290 HD 
DOCKED: ENDBRANCH  11  13
DOCKED: ENDBRANCH   1  11
DOCKED: BRANCH   6  15
DOCKED: ATOM     15  C   UNL     1     139.445  76.629 222.251 -0.22 -0.06    +0.274 C  
DOCKED: ATOM     16  O   UNL     1     138.468  75.876 222.507 -0.25 +0.07    -0.267 OA 
DOCKED: BRANCH  15  17
DOCKED: ATOM     17  N   UNL     1     139.414  77.993 222.691 -0.16 +0.06    -0.306 N  
DOCKED: ATOM     18  C   UNL     1     138.187  78.715 223.018 -0.19 -0.02    +0.139 C  
DOCKED: ATOM     19  C   UNL     1     140.529  78.843 222.911 -0.42 -0.01    +0.048 A  
DOCKED: ATOM     20  C   UNL     1     138.634  80.185 223.339 -0.35 -0.00    +0.029 C  
DOCKED: ATOM     21  C   UNL     1     141.884  78.496 222.839 -0.38 -0.01    +0.026 A  
DOCKED: ATOM     22  C   UNL     1     140.135  80.102 223.284 -0.43 +0.00    -0.015 A  
DOCKED: ATOM     23  C   UNL     1     138.066  81.188 222.343 -0.18 -0.00    +0.030 C  
DOCKED: ATOM     24  C   UNL     1     138.093  80.682 224.681 -0.30 -0.01    +0.098 C  
DOCKED: ATOM     25  C   UNL     1     142.843  79.484 223.109 -0.57 -0.00    +0.002 A  
DOCKED: ATOM     26  C   UNL     1     141.078  81.103 223.551 -0.48 -0.00    +0.006 A  
DOCKED: ATOM     27  C   UNL     1     136.735  81.599 222.954 -0.14 -0.01    +0.086 C  
DOCKED: ATOM     28  N   UNL     1     136.788  81.302 224.401 -0.15 +0.03    -0.298 NA 
DOCKED: ATOM     29  C   UNL     1     142.442  80.785 223.459 -0.66 -0.00    +0.000 A  
DOCKED: BRANCH  28  30
DOCKED: ATOM     30  C   UNL     1     136.487  82.442 225.306 -0.28 -0.01    +0.071 C  
DOCKED: ATOM     31  C   UNL     1     136.943  82.159 226.735 -0.44 -0.01    +0.036 C  
DOCKED: ATOM     32  C   UNL     1     134.995  82.798 225.417 -0.12 -0.01    +0.100 C  
DOCKED: ATOM     33  C   UNL     1     135.767  82.559 227.607 -0.36 -0.01    +0.082 C  
DOCKED: ATOM     34  N   UNL     1     134.567  82.488 226.779 -0.04 +0.03    -0.315 NA 
DOCKED: ATOM     35  H   UNL     1     133.883  83.212 227.102 +0.04 -0.00    +0.122 HD 
DOCKED: ENDBRANCH  28  30
DOCKED: ENDBRANCH  15  17
DOCKED: ENDBRANCH   6  15
DOCKED: TORSDOF 5
DOCKED: TER
DOCKED: ENDMDL
________________________________________________________________________________


    CLUSTERING HISTOGRAM
    ____________________


________________________________________________________________________________
     |           |     |           |     |
Clus | Lowest    | Run | Mean      | Num | Histogram
-ter | Binding   |     | Binding   | in  |
Rank | Energy    |     | Energy    | Clus|    5    10   15   20   25   30   35
_____|___________|_____|___________|_____|____:____|____:____|____:____|____:___
   1 |     -9.48 |   9 |     -8.86 |  13 |#############
   2 |     -8.58 |   3 |     -8.47 |   3 |###
   3 |     -8.36 |  16 |     -8.36 |   1 |#
   4 |     -7.92 |  15 |     -7.91 |   2 |##
   5 |     -7.85 |  12 |     -7.85 |   1 |#
_____|___________|_____|___________|_____|______________________________________


    RMSD TABLE
    __________


_______________________________________________________________________
     |      |      |           |         |                 |
Rank | Sub- | Run  | Binding   | Cluster | Reference       | Grep
     | Rank |      | Energy    | RMSD    | RMSD            | Pattern
_____|______|______|___________|_________|_________________|___________
   1      1      9       -9.48      0.00    271.68           RANKING
   1      2     19       -9.48      0.05    271.69           RANKING
   1      3      4       -9.38      0.15    271.68           RANKING
   1      4      2       -9.37      0.16    271.69           RANKING
   1      5     18       -8.82      0.95    271.57           RANKING
   1      6     20       -8.75      1.91    271.61           RANKING
   1      7      7       -8.75      1.95    271.53           RANKING
   1      8      5       -8.63      0.57    271.60           RANKING
   1      9     17       -8.58      1.83    271.53           RANKING
   1     10     10       -8.57      1.83    271.44           RANKING
   1     11     13       -8.55      0.74    271.66           RANKING
   1     12      1       -8.49      1.08    271.43           RANKING
   1     13     14       -8.29      1.89    271.42           RANKING
   2      1      3       -8.58      0.00    270.58           RANKING
   2      2      8       -8.53      0.38    270.49           RANKING
   2      3      6       -8.30      0.48    270.49           RANKING
   3      1     16       -8.36      0.00    270.66           RANKING
   4      1     15       -7.92      0.00    271.06           RANKING
   4      2     11       -7.90      0.10    271.01           RANKING
   5      1     12       -7.85      0.00    268.91           RANKING

Run time 0.436 sec
Idle time 0.000 sec
