AutoDock-GPU version: v1.6

**********************************************************
**    AutoDock-GPU AUTODOCKTOOLS-COMPATIBLE DLG FILE    **
**********************************************************


    DOCKING PARAMETERS
    ________________________


Ligand file:                               /home/a/REINVENT4/ReinventStudies/scoringData/graph-dock-h4r84i/graph-DockGPU/node-autodockgpu/inputs/GEKDQXSPTHHANP-OUKQBFOZNA-N.pdbqt
Grid fld file:                             /home/a/REINVENT4/ReinventStudies/mols/Rad51/maps/rad51_receptor.maps.fld

Random seed:                               42
Number of runs:                            20
Number of energy evaluations:              1132076
Number of generations:                     42000
Size of population:                        150
Rate of crossover:                         80.000000%
Tournament selection probability limit:    60.000000%
Rate of mutation:                          2.000000%
Maximal allowed delta movement:            +/- 6.000000A
Maximal allowed delta angle:               +/- 90.000000

Rate of local search:                      100.000000%
Maximal number of local search iterations: 300
Rho lower bound:                           0.010000
Spread of local search delta movement:     2.000000A
Spread of local search delta angle:        74.999999
Limit of consecutive successes/failures:   4

Handle symmetry during clustering:         YES
RMSD tolerance:                            2.000000A

Program call in command line was:          /home/a/REINVENT4/ReinventStudies/adgpu-v1.6_linux_x64_cuda12_128wi --filelist batch.txt --heuristics 1 --nrun 20 --psize 150 --lsit 300 --seed 42 --heurmax 12000000 


    GRID PARAMETERS
    ________________________


Receptor name:                             rad51_receptor
Number of grid points (x, y, z):           53, 53, 53
Grid center (x, y, z):                     139.950000, 75.640000, 221.970000A
Grid size (x, y, z):                       19.500000, 19.500000, 19.500000A
Grid spacing:                              0.375000A


    LIGAND PARAMETERS
    ________________________


Ligand name:                               /home/a/REINVENT4/ReinventStudies/scoringData/graph-dock-h4r84i/graph-DockGPU/node-autodockgpu/inputs/GEKDQXSPTHHANP-OUKQBFOZNA-N
Number of atoms:                           26
Number of rotatable bonds:                 5
Number of atom types:                      5


    DUMMY DATA (only for ADT-compatibility)
    ________________________


DPF> outlev 1
DPF> ga_run 20
DPF> fld /home/a/REINVENT4/ReinventStudies/mols/Rad51/maps/rad51_receptor.maps.fld
DPF> move /home/a/REINVENT4/ReinventStudies/scoringData/graph-dock-h4r84i/graph-DockGPU/node-autodockgpu/inputs/GEKDQXSPTHHANP-OUKQBFOZNA-N.pdbqt


    COUNTER STATES
    ________________________


Number of energy evaluations performed:    1097881
Number of generations used:                45


    INPUT LIGAND PDBQT FILE:
    ________________________


INPUT-LIGAND-PDBQT: REMARK SMILES O=c1c2ccccc2nc(/C=C/c2cccnc2)n1Cc1ccccc1
INPUT-LIGAND-PDBQT: REMARK SMILES IDX 10 1 9 2 8 3 7 4 6 5 5 6 4 7 3 8 2 9 1 10 19 11 11 12 12 13
INPUT-LIGAND-PDBQT: REMARK SMILES IDX 13 14 18 15 14 16 17 17 15 18 16 19 20 20 21 21 22 22 26 23
INPUT-LIGAND-PDBQT: REMARK SMILES IDX 23 24 25 25 24 26
INPUT-LIGAND-PDBQT: REMARK H PARENT
INPUT-LIGAND-PDBQT: ROOT
INPUT-LIGAND-PDBQT: ATOM      1  C   UNL     1       0.477   1.373   0.130  1.00  0.00     0.136 A 
INPUT-LIGAND-PDBQT: ATOM      2  N   UNL     1       0.070   2.659  -0.026  1.00  0.00    -0.230 NA
INPUT-LIGAND-PDBQT: ATOM      3  C   UNL     1       0.086   3.539   1.002  1.00  0.00     0.078 A 
INPUT-LIGAND-PDBQT: ATOM      4  C   UNL     1      -0.326   4.862   0.798  1.00  0.00     0.029 A 
INPUT-LIGAND-PDBQT: ATOM      5  C   UNL     1      -0.311   5.771   1.860  1.00  0.00     0.002 A 
INPUT-LIGAND-PDBQT: ATOM      6  C   UNL     1       0.108   5.359   3.129  1.00  0.00     0.001 A 
INPUT-LIGAND-PDBQT: ATOM      7  C   UNL     1       0.521   4.038   3.339  1.00  0.00     0.016 A 
INPUT-LIGAND-PDBQT: ATOM      8  C   UNL     1       0.517   3.118   2.273  1.00  0.00     0.066 A 
INPUT-LIGAND-PDBQT: ATOM      9  C   UNL     1       0.938   1.785   2.427  1.00  0.00     0.261 A 
INPUT-LIGAND-PDBQT: ATOM     10  O   UNL     1       1.320   1.382   3.562  1.00  0.00    -0.269 OA
INPUT-LIGAND-PDBQT: ATOM     11  N   UNL     1       0.934   0.927   1.352  1.00  0.00    -0.288 N 
INPUT-LIGAND-PDBQT: ENDROOT
INPUT-LIGAND-PDBQT: BRANCH   1  12
INPUT-LIGAND-PDBQT: ATOM     12  C   UNL     1       0.413   0.486  -1.043  1.00  0.00     0.048 C 
INPUT-LIGAND-PDBQT: BRANCH  12  13
INPUT-LIGAND-PDBQT: ATOM     13  C   UNL     1      -0.715  -0.179  -1.323  1.00  0.00     0.013 C 
INPUT-LIGAND-PDBQT: BRANCH  13  14
INPUT-LIGAND-PDBQT: ATOM     14  C   UNL     1      -0.817  -1.199  -2.399  1.00  0.00    -0.007 A 
INPUT-LIGAND-PDBQT: ATOM     15  C   UNL     1       0.083  -1.268  -3.482  1.00  0.00     0.119 A 
INPUT-LIGAND-PDBQT: ATOM     16  C   UNL     1      -1.842  -2.157  -2.323  1.00  0.00     0.011 A 
INPUT-LIGAND-PDBQT: ATOM     17  N   UNL     1      -0.028  -2.261  -4.404  1.00  0.00    -0.264 NA
INPUT-LIGAND-PDBQT: ATOM     18  C   UNL     1      -1.929  -3.170  -3.278  1.00  0.00     0.021 A 
INPUT-LIGAND-PDBQT: ATOM     19  C   UNL     1      -1.002  -3.208  -4.322  1.00  0.00     0.111 A 
INPUT-LIGAND-PDBQT: ENDBRANCH  13  14
INPUT-LIGAND-PDBQT: ENDBRANCH  12  13
INPUT-LIGAND-PDBQT: ENDBRANCH   1  12
INPUT-LIGAND-PDBQT: BRANCH  11  20
INPUT-LIGAND-PDBQT: ATOM     20  C   UNL     1       1.420  -0.463   1.508  1.00  0.00     0.163 C 
INPUT-LIGAND-PDBQT: BRANCH  20  21
INPUT-LIGAND-PDBQT: ATOM     21  C   UNL     1       0.273  -1.446   1.550  1.00  0.00    -0.028 A 
INPUT-LIGAND-PDBQT: ATOM     22  C   UNL     1       0.274  -2.576   0.708  1.00  0.00     0.005 A 
INPUT-LIGAND-PDBQT: ATOM     23  C   UNL     1      -0.795  -1.262   2.446  1.00  0.00     0.005 A 
INPUT-LIGAND-PDBQT: ATOM     24  C   UNL     1      -0.789  -3.484   0.742  1.00  0.00     0.000 A 
INPUT-LIGAND-PDBQT: ATOM     25  C   UNL     1      -1.849  -2.182   2.487  1.00  0.00     0.000 A 
INPUT-LIGAND-PDBQT: ATOM     26  C   UNL     1      -1.845  -3.292   1.638  1.00  0.00     0.000 A 
INPUT-LIGAND-PDBQT: ENDBRANCH  20  21
INPUT-LIGAND-PDBQT: ENDBRANCH  11  20
INPUT-LIGAND-PDBQT: TORSDOF 5


    FINAL DOCKED STATE:
    ________________________


Run:   1 / 20
Time taken for this run:   0.038s

DOCKED: MODEL        1
DOCKED: USER    Run = 1
DOCKED: USER
DOCKED: USER    Estimated Free Energy of Binding    =  -6.62 kcal/mol  [=(1)+(2)+(3)-(4)]
DOCKED: USER
DOCKED: USER    (1) Final Intermolecular Energy     =  -8.11 kcal/mol
DOCKED: USER        vdW + Hbond + desolv Energy     =  -8.06 kcal/mol
DOCKED: USER        Electrostatic Energy            =  -0.05 kcal/mol
DOCKED: USER        Moving Ligand-Fixed Receptor    =  -8.11 kcal/mol
DOCKED: USER        Moving Ligand-Moving Receptor   =  +0.00 kcal/mol
DOCKED: USER    (2) Final Total Internal Energy     =  -1.70 kcal/mol
DOCKED: USER    (3) Torsional Free Energy           =  +1.49 kcal/mol
DOCKED: USER    (4) Unbound System's Energy         =  -1.70 kcal/mol
DOCKED: USER
DOCKED: USER
DOCKED: REMARK SMILES O=c1c2ccccc2nc(/C=C/c2cccnc2)n1Cc1ccccc1
DOCKED: REMARK SMILES IDX 10 1 9 2 8 3 7 4 6 5 5 6 4 7 3 8 2 9 1 10 19 11 11 12 12 13
DOCKED: REMARK SMILES IDX 13 14 18 15 14 16 17 17 15 18 16 19 20 20 21 21 22 22 26 23
DOCKED: REMARK SMILES IDX 23 24 25 25 24 26
DOCKED: REMARK H PARENT
DOCKED: USER                              x       y       z     vdW  Elec       q    Type
DOCKED: USER                           _______ _______ _______ _____ _____    ______ ____
DOCKED: ROOT
DOCKED: ATOM      1  C   UNL     1     138.139  69.596 224.063 -0.23 -0.02    +0.136 A  
DOCKED: ATOM      2  N   UNL     1     138.323  69.154 225.334 -0.24 +0.02    -0.230 NA 
DOCKED: ATOM      3  C   UNL     1     139.216  69.736 226.167 -0.36 -0.01    +0.078 A  
DOCKED: ATOM      4  C   UNL     1     139.365  69.262 227.476 -0.50 -0.00    +0.029 A  
DOCKED: ATOM      5  C   UNL     1     140.289  69.862 228.337 -0.60 -0.00    +0.002 A  
DOCKED: ATOM      6  C   UNL     1     141.071  70.932 227.890 -0.71 -0.00    +0.001 A  
DOCKED: ATOM      7  C   UNL     1     140.926  71.410 226.582 -0.69 -0.00    +0.016 A  
DOCKED: ATOM      8  C   UNL     1     139.992  70.817 225.711 -0.47 -0.01    +0.066 A  
DOCKED: ATOM      9  C   UNL     1     139.796  71.271 224.394 -0.28 -0.05    +0.261 A  
DOCKED: ATOM     10  O   UNL     1     140.489  72.234 223.960 -0.32 +0.03    -0.269 OA 
DOCKED: ATOM     11  N   UNL     1     138.859  70.671 223.586 -0.15 +0.06    -0.288 N  
DOCKED: ENDROOT
DOCKED: BRANCH   1  12
DOCKED: ATOM     12  C   UNL     1     137.153  68.892 223.227 -0.18 -0.01    +0.048 C  
DOCKED: BRANCH  12  13
DOCKED: ATOM     13  C   UNL     1     135.874  69.287 223.219 -0.15 -0.00    +0.013 C  
DOCKED: BRANCH  13  14
DOCKED: ATOM     14  C   UNL     1     135.125  69.660 224.448 -0.20 +0.00    -0.007 A  
DOCKED: ATOM     15  C   UNL     1     134.586  68.709 225.339 -0.22 -0.00    +0.119 A  
DOCKED: ATOM     16  C   UNL     1     134.968  71.022 224.753 -0.19 -0.00    +0.011 A  
DOCKED: ATOM     17  N   UNL     1     133.962  69.112 226.477 -0.71 -0.01    -0.264 NA 
DOCKED: ATOM     18  C   UNL     1     134.330  71.409 225.932 -0.27 -0.00    +0.021 A  
DOCKED: ATOM     19  C   UNL     1     133.830  70.430 226.793 -0.32 -0.00    +0.111 A  
DOCKED: ENDBRANCH  13  14
DOCKED: ENDBRANCH  12  13
DOCKED: ENDBRANCH   1  12
DOCKED: BRANCH  11  20
DOCKED: ATOM     20  C   UNL     1     138.624  71.180 222.215 -0.14 -0.03    +0.163 C  
DOCKED: BRANCH  20  21
DOCKED: ATOM     21  C   UNL     1     138.064  72.583 222.237 -0.15 +0.01    -0.028 A  
DOCKED: ATOM     22  C   UNL     1     136.731  72.811 222.635 -0.15 -0.00    +0.005 A  
DOCKED: ATOM     23  C   UNL     1     138.870  73.682 221.888 -0.21 -0.00    +0.005 A  
DOCKED: ATOM     24  C   UNL     1     136.210  74.108 222.651 -0.17 -0.00    +0.000 A  
DOCKED: ATOM     25  C   UNL     1     138.348  74.980 221.921 -0.24 -0.00    +0.000 A  
DOCKED: ATOM     26  C   UNL     1     137.020  75.193 222.304 -0.21 -0.00    +0.000 A  
DOCKED: ENDBRANCH  20  21
DOCKED: ENDBRANCH  11  20
DOCKED: TORSDOF 5
DOCKED: TER
DOCKED: ENDMDL
________________________________________________________________________________


    FINAL DOCKED STATE:
    ________________________


Run:   2 / 20
Time taken for this run:   0.038s

DOCKED: MODEL        2
DOCKED: USER    Run = 2
DOCKED: USER
DOCKED: USER    Estimated Free Energy of Binding    =  -7.16 kcal/mol  [=(1)+(2)+(3)-(4)]
DOCKED: USER
DOCKED: USER    (1) Final Intermolecular Energy     =  -8.65 kcal/mol
DOCKED: USER        vdW + Hbond + desolv Energy     =  -8.51 kcal/mol
DOCKED: USER        Electrostatic Energy            =  -0.15 kcal/mol
DOCKED: USER        Moving Ligand-Fixed Receptor    =  -8.65 kcal/mol
DOCKED: USER        Moving Ligand-Moving Receptor   =  +0.00 kcal/mol
DOCKED: USER    (2) Final Total Internal Energy     =  -1.33 kcal/mol
DOCKED: USER    (3) Torsional Free Energy           =  +1.49 kcal/mol
DOCKED: USER    (4) Unbound System's Energy         =  -1.33 kcal/mol
DOCKED: USER
DOCKED: USER
DOCKED: REMARK SMILES O=c1c2ccccc2nc(/C=C/c2cccnc2)n1Cc1ccccc1
DOCKED: REMARK SMILES IDX 10 1 9 2 8 3 7 4 6 5 5 6 4 7 3 8 2 9 1 10 19 11 11 12 12 13
DOCKED: REMARK SMILES IDX 13 14 18 15 14 16 17 17 15 18 16 19 20 20 21 21 22 22 26 23
DOCKED: REMARK SMILES IDX 23 24 25 25 24 26
DOCKED: REMARK H PARENT
DOCKED: USER                              x       y       z     vdW  Elec       q    Type
DOCKED: USER                           _______ _______ _______ _____ _____    ______ ____
DOCKED: ROOT
DOCKED: ATOM      1  C   UNL     1     141.657  75.393 220.643 -0.23 -0.05    +0.136 A  
DOCKED: ATOM      2  N   UNL     1     141.857  74.062 220.824 -0.18 +0.05    -0.230 NA 
DOCKED: ATOM      3  C   UNL     1     140.906  73.267 221.365 -0.25 -0.01    +0.078 A  
DOCKED: ATOM      4  C   UNL     1     141.144  71.896 221.520 -0.23 -0.00    +0.029 A  
DOCKED: ATOM      5  C   UNL     1     140.161  71.074 222.080 -0.21 -0.00    +0.002 A  
DOCKED: ATOM      6  C   UNL     1     138.943  71.621 222.494 -0.23 -0.00    +0.001 A  
DOCKED: ATOM      7  C   UNL     1     138.699  72.991 222.342 -0.12 -0.00    +0.016 A  
DOCKED: ATOM      8  C   UNL     1     139.680  73.825 221.771 -0.25 -0.01    +0.066 A  
DOCKED: ATOM      9  C   UNL     1     139.478  75.203 221.580 -0.19 -0.05    +0.261 A  
DOCKED: ATOM     10  O   UNL     1     138.388  75.728 221.946 -0.18 +0.06    -0.269 OA 
DOCKED: ATOM     11  N   UNL     1     140.459  75.975 221.001 -0.13 +0.08    -0.288 N  
DOCKED: ENDROOT
DOCKED: BRANCH   1  12
DOCKED: ATOM     12  C   UNL     1     142.754  76.179 220.058 -0.25 -0.03    +0.048 C  
DOCKED: BRANCH  12  13
DOCKED: ATOM     13  C   UNL     1     143.603  75.610 219.193 -0.33 -0.01    +0.013 C  
DOCKED: BRANCH  13  14
DOCKED: ATOM     14  C   UNL     1     144.457  74.442 219.534 -0.29 +0.00    -0.007 A  
DOCKED: ATOM     15  C   UNL     1     144.768  73.421 218.613 -0.20 -0.01    +0.119 A  
DOCKED: ATOM     16  C   UNL     1     145.002  74.362 220.826 -0.44 -0.00    +0.011 A  
DOCKED: ATOM     17  N   UNL     1     145.603  72.408 218.968 -0.66 -0.16    -0.264 NA 
DOCKED: ATOM     18  C   UNL     1     145.862  73.317 221.163 -0.69 -0.00    +0.021 A  
DOCKED: ATOM     19  C   UNL     1     146.156  72.339 220.210 -0.29 +0.04    +0.111 A  
DOCKED: ENDBRANCH  13  14
DOCKED: ENDBRANCH  12  13
DOCKED: ENDBRANCH   1  12
DOCKED: BRANCH  11  20
DOCKED: ATOM     20  C   UNL     1     140.225  77.417 220.761 -0.15 -0.05    +0.163 C  
DOCKED: BRANCH  20  21
DOCKED: ATOM     21  C   UNL     1     141.019  78.271 221.723 -0.35 +0.01    -0.028 A  
DOCKED: ATOM     22  C   UNL     1     141.673  79.433 221.268 -0.38 -0.00    +0.005 A  
DOCKED: ATOM     23  C   UNL     1     141.093  77.933 223.086 -0.47 -0.00    +0.005 A  
DOCKED: ATOM     24  C   UNL     1     142.412  80.221 222.156 -0.53 -0.00    +0.000 A  
DOCKED: ATOM     25  C   UNL     1     141.822  78.734 223.973 -0.60 -0.00    +0.000 A  
DOCKED: ATOM     26  C   UNL     1     142.478  79.877 223.510 -0.65 -0.00    +0.000 A  
DOCKED: ENDBRANCH  20  21
DOCKED: ENDBRANCH  11  20
DOCKED: TORSDOF 5
DOCKED: TER
DOCKED: ENDMDL
________________________________________________________________________________


    FINAL DOCKED STATE:
    ________________________


Run:   3 / 20
Time taken for this run:   0.038s

DOCKED: MODEL        3
DOCKED: USER    Run = 3
DOCKED: USER
DOCKED: USER    Estimated Free Energy of Binding    =  -7.23 kcal/mol  [=(1)+(2)+(3)-(4)]
DOCKED: USER
DOCKED: USER    (1) Final Intermolecular Energy     =  -8.72 kcal/mol
DOCKED: USER        vdW + Hbond + desolv Energy     =  -8.66 kcal/mol
DOCKED: USER        Electrostatic Energy            =  -0.07 kcal/mol
DOCKED: USER        Moving Ligand-Fixed Receptor    =  -8.72 kcal/mol
DOCKED: USER        Moving Ligand-Moving Receptor   =  +0.00 kcal/mol
DOCKED: USER    (2) Final Total Internal Energy     =  -1.23 kcal/mol
DOCKED: USER    (3) Torsional Free Energy           =  +1.49 kcal/mol
DOCKED: USER    (4) Unbound System's Energy         =  -1.23 kcal/mol
DOCKED: USER
DOCKED: USER
DOCKED: REMARK SMILES O=c1c2ccccc2nc(/C=C/c2cccnc2)n1Cc1ccccc1
DOCKED: REMARK SMILES IDX 10 1 9 2 8 3 7 4 6 5 5 6 4 7 3 8 2 9 1 10 19 11 11 12 12 13
DOCKED: REMARK SMILES IDX 13 14 18 15 14 16 17 17 15 18 16 19 20 20 21 21 22 22 26 23
DOCKED: REMARK SMILES IDX 23 24 25 25 24 26
DOCKED: REMARK H PARENT
DOCKED: USER                              x       y       z     vdW  Elec       q    Type
DOCKED: USER                           _______ _______ _______ _____ _____    ______ ____
DOCKED: ROOT
DOCKED: ATOM      1  C   UNL     1     139.615  70.287 223.483 -0.23 -0.02    +0.136 A  
DOCKED: ATOM      2  N   UNL     1     140.128  71.197 224.351 -0.29 +0.04    -0.230 NA 
DOCKED: ATOM      3  C   UNL     1     140.351  70.894 225.651 -0.51 -0.01    +0.078 A  
DOCKED: ATOM      4  C   UNL     1     140.896  71.855 226.511 -0.67 -0.00    +0.029 A  
DOCKED: ATOM      5  C   UNL     1     141.125  71.542 227.854 -0.79 -0.00    +0.002 A  
DOCKED: ATOM      6  C   UNL     1     140.802  70.272 228.342 -0.57 -0.00    +0.001 A  
DOCKED: ATOM      7  C   UNL     1     140.257  69.307 227.487 -0.60 -0.00    +0.016 A  
DOCKED: ATOM      8  C   UNL     1     140.031  69.611 226.131 -0.45 -0.01    +0.066 A  
DOCKED: ATOM      9  C   UNL     1     139.501  68.673 225.227 -0.27 -0.04    +0.261 A  
DOCKED: ATOM     10  O   UNL     1     139.197  67.518 225.639 -0.91 -0.00    -0.269 OA 
DOCKED: ATOM     11  N   UNL     1     139.315  69.010 223.907 -0.12 +0.05    -0.288 N  
DOCKED: ENDROOT
DOCKED: BRANCH   1  12
DOCKED: ATOM     12  C   UNL     1     139.397  70.712 222.091 -0.18 -0.01    +0.048 C  
DOCKED: BRANCH  12  13
DOCKED: ATOM     13  C   UNL     1     140.340  71.411 221.446 -0.19 -0.00    +0.013 C  
DOCKED: BRANCH  13  14
DOCKED: ATOM     14  C   UNL     1     140.480  72.886 221.550 -0.27 +0.00    -0.007 A  
DOCKED: ATOM     15  C   UNL     1     139.531  73.706 222.195 -0.16 -0.02    +0.119 A  
DOCKED: ATOM     16  C   UNL     1     141.622  73.495 221.003 -0.27 -0.00    +0.011 A  
DOCKED: ATOM     17  N   UNL     1     139.744  75.044 222.309 -0.60 +0.03    -0.264 NA 
DOCKED: ATOM     18  C   UNL     1     141.821  74.868 221.140 -0.28 -0.01    +0.021 A  
DOCKED: ATOM     19  C   UNL     1     140.861  75.636 221.805 -0.31 -0.03    +0.111 A  
DOCKED: ENDBRANCH  13  14
DOCKED: ENDBRANCH  12  13
DOCKED: ENDBRANCH   1  12
DOCKED: BRANCH  11  20
DOCKED: ATOM     20  C   UNL     1     138.799  68.005 222.949 -0.19 -0.03    +0.163 C  
DOCKED: BRANCH  20  21
DOCKED: ATOM     21  C   UNL     1     137.303  68.128 222.775 -0.15 +0.00    -0.028 A  
DOCKED: ATOM     22  C   UNL     1     136.560  68.998 223.598 -0.19 -0.00    +0.005 A  
DOCKED: ATOM     23  C   UNL     1     136.636  67.399 221.774 -0.14 -0.00    +0.005 A  
DOCKED: ATOM     24  C   UNL     1     135.175  69.109 223.442 -0.14 -0.00    +0.000 A  
DOCKED: ATOM     25  C   UNL     1     135.252  67.526 221.611 -0.10 -0.00    +0.000 A  
DOCKED: ATOM     26  C   UNL     1     134.523  68.381 222.442 -0.09 -0.00    +0.000 A  
DOCKED: ENDBRANCH  20  21
DOCKED: ENDBRANCH  11  20
DOCKED: TORSDOF 5
DOCKED: TER
DOCKED: ENDMDL
________________________________________________________________________________


    FINAL DOCKED STATE:
    ________________________


Run:   4 / 20
Time taken for this run:   0.038s

DOCKED: MODEL        4
DOCKED: USER    Run = 4
DOCKED: USER
DOCKED: USER    Estimated Free Energy of Binding    =  -6.40 kcal/mol  [=(1)+(2)+(3)-(4)]
DOCKED: USER
DOCKED: USER    (1) Final Intermolecular Energy     =  -7.90 kcal/mol
DOCKED: USER        vdW + Hbond + desolv Energy     =  -7.87 kcal/mol
DOCKED: USER        Electrostatic Energy            =  -0.03 kcal/mol
DOCKED: USER        Moving Ligand-Fixed Receptor    =  -7.90 kcal/mol
DOCKED: USER        Moving Ligand-Moving Receptor   =  +0.00 kcal/mol
DOCKED: USER    (2) Final Total Internal Energy     =  -1.91 kcal/mol
DOCKED: USER    (3) Torsional Free Energy           =  +1.49 kcal/mol
DOCKED: USER    (4) Unbound System's Energy         =  -1.91 kcal/mol
DOCKED: USER
DOCKED: USER
DOCKED: REMARK SMILES O=c1c2ccccc2nc(/C=C/c2cccnc2)n1Cc1ccccc1
DOCKED: REMARK SMILES IDX 10 1 9 2 8 3 7 4 6 5 5 6 4 7 3 8 2 9 1 10 19 11 11 12 12 13
DOCKED: REMARK SMILES IDX 13 14 18 15 14 16 17 17 15 18 16 19 20 20 21 21 22 22 26 23
DOCKED: REMARK SMILES IDX 23 24 25 25 24 26
DOCKED: REMARK H PARENT
DOCKED: USER                              x       y       z     vdW  Elec       q    Type
DOCKED: USER                           _______ _______ _______ _____ _____    ______ ____
DOCKED: ROOT
DOCKED: ATOM      1  C   UNL     1     140.908  77.502 220.140 -0.16 -0.06    +0.136 A  
DOCKED: ATOM      2  N   UNL     1     142.145  77.081 219.769 -0.19 +0.14    -0.230 NA 
DOCKED: ATOM      3  C   UNL     1     142.605  75.851 220.096 -0.29 -0.04    +0.078 A  
DOCKED: ATOM      4  C   UNL     1     143.880  75.447 219.681 -0.36 -0.02    +0.029 A  
DOCKED: ATOM      5  C   UNL     1     144.356  74.177 220.019 -0.44 -0.00    +0.002 A  
DOCKED: ATOM      6  C   UNL     1     143.563  73.311 220.778 -0.33 -0.00    +0.001 A  
DOCKED: ATOM      7  C   UNL     1     142.287  73.709 221.196 -0.11 -0.00    +0.016 A  
DOCKED: ATOM      8  C   UNL     1     141.797  74.983 220.852 -0.28 -0.02    +0.066 A  
DOCKED: ATOM      9  C   UNL     1     140.516  75.425 221.232 -0.20 -0.06    +0.261 A  
DOCKED: ATOM     10  O   UNL     1     139.777  74.666 221.920 -0.67 +0.04    -0.269 OA 
DOCKED: ATOM     11  N   UNL     1     140.073  76.672 220.858 -0.08 +0.09    -0.288 N  
DOCKED: ENDROOT
DOCKED: BRANCH   1  12
DOCKED: ATOM     12  C   UNL     1     140.499  78.860 219.749 -0.15 -0.02    +0.048 C  
DOCKED: BRANCH  12  13
DOCKED: ATOM     13  C   UNL     1     141.331  79.893 219.935 -0.27 -0.01    +0.013 C  
DOCKED: BRANCH  13  14
DOCKED: ATOM     14  C   UNL     1     141.773  80.355 221.277 -0.40 +0.00    -0.007 A  
DOCKED: ATOM     15  C   UNL     1     141.404  81.601 221.822 -0.35 -0.03    +0.119 A  
DOCKED: ATOM     16  C   UNL     1     142.576  79.500 222.051 -0.39 -0.01    +0.011 A  
DOCKED: ATOM     17  N   UNL     1     141.793  81.942 223.080 -0.24 +0.03    -0.264 NA 
DOCKED: ATOM     18  C   UNL     1     142.955  79.871 223.342 -0.58 -0.01    +0.021 A  
DOCKED: ATOM     19  C   UNL     1     142.548  81.108 223.846 -0.55 -0.02    +0.111 A  
DOCKED: ENDBRANCH  13  14
DOCKED: ENDBRANCH  12  13
DOCKED: ENDBRANCH   1  12
DOCKED: BRANCH  11  20
DOCKED: ATOM     20  C   UNL     1     138.708  77.116 221.221 -0.13 -0.04    +0.163 C  
DOCKED: BRANCH  20  21
DOCKED: ATOM     21  C   UNL     1     138.745  78.260 222.207 -0.24 +0.01    -0.028 A  
DOCKED: ATOM     22  C   UNL     1     137.724  79.232 222.207 -0.17 -0.00    +0.005 A  
DOCKED: ATOM     23  C   UNL     1     139.781  78.358 223.152 -0.26 -0.00    +0.005 A  
DOCKED: ATOM     24  C   UNL     1     137.759  80.295 223.115 -0.26 -0.00    +0.000 A  
DOCKED: ATOM     25  C   UNL     1     139.804  79.415 224.069 -0.36 -0.00    +0.000 A  
DOCKED: ATOM     26  C   UNL     1     138.794  80.380 224.052 -0.41 -0.00    +0.000 A  
DOCKED: ENDBRANCH  20  21
DOCKED: ENDBRANCH  11  20
DOCKED: TORSDOF 5
DOCKED: TER
DOCKED: ENDMDL
________________________________________________________________________________


    FINAL DOCKED STATE:
    ________________________


Run:   5 / 20
Time taken for this run:   0.038s

DOCKED: MODEL        5
DOCKED: USER    Run = 5
DOCKED: USER
DOCKED: USER    Estimated Free Energy of Binding    =  -7.16 kcal/mol  [=(1)+(2)+(3)-(4)]
DOCKED: USER
DOCKED: USER    (1) Final Intermolecular Energy     =  -8.65 kcal/mol
DOCKED: USER        vdW + Hbond + desolv Energy     =  -8.50 kcal/mol
DOCKED: USER        Electrostatic Energy            =  -0.15 kcal/mol
DOCKED: USER        Moving Ligand-Fixed Receptor    =  -8.65 kcal/mol
DOCKED: USER        Moving Ligand-Moving Receptor   =  +0.00 kcal/mol
DOCKED: USER    (2) Final Total Internal Energy     =  -1.33 kcal/mol
DOCKED: USER    (3) Torsional Free Energy           =  +1.49 kcal/mol
DOCKED: USER    (4) Unbound System's Energy         =  -1.33 kcal/mol
DOCKED: USER
DOCKED: USER
DOCKED: REMARK SMILES O=c1c2ccccc2nc(/C=C/c2cccnc2)n1Cc1ccccc1
DOCKED: REMARK SMILES IDX 10 1 9 2 8 3 7 4 6 5 5 6 4 7 3 8 2 9 1 10 19 11 11 12 12 13
DOCKED: REMARK SMILES IDX 13 14 18 15 14 16 17 17 15 18 16 19 20 20 21 21 22 22 26 23
DOCKED: REMARK SMILES IDX 23 24 25 25 24 26
DOCKED: REMARK H PARENT
DOCKED: USER                              x       y       z     vdW  Elec       q    Type
DOCKED: USER                           _______ _______ _______ _____ _____    ______ ____
DOCKED: ROOT
DOCKED: ATOM      1  C   UNL     1     141.652  75.379 220.638 -0.23 -0.05    +0.136 A  
DOCKED: ATOM      2  N   UNL     1     141.842  74.047 220.826 -0.18 +0.05    -0.230 NA 
DOCKED: ATOM      3  C   UNL     1     140.883  73.263 221.370 -0.25 -0.01    +0.078 A  
DOCKED: ATOM      4  C   UNL     1     141.109  71.890 221.532 -0.23 -0.00    +0.029 A  
DOCKED: ATOM      5  C   UNL     1     140.119  71.080 222.095 -0.22 -0.00    +0.002 A  
DOCKED: ATOM      6  C   UNL     1     138.905  71.639 222.505 -0.23 -0.00    +0.001 A  
DOCKED: ATOM      7  C   UNL     1     138.672  73.010 222.345 -0.11 -0.01    +0.016 A  
DOCKED: ATOM      8  C   UNL     1     139.661  73.833 221.771 -0.25 -0.01    +0.066 A  
DOCKED: ATOM      9  C   UNL     1     139.471  75.212 221.573 -0.19 -0.05    +0.261 A  
DOCKED: ATOM     10  O   UNL     1     138.385  75.747 221.935 -0.18 +0.06    -0.269 OA 
DOCKED: ATOM     11  N   UNL     1     140.458  75.972 220.991 -0.13 +0.08    -0.288 N  
DOCKED: ENDROOT
DOCKED: BRANCH   1  12
DOCKED: ATOM     12  C   UNL     1     142.757  76.153 220.049 -0.26 -0.03    +0.048 C  
DOCKED: BRANCH  12  13
DOCKED: ATOM     13  C   UNL     1     143.593  75.576 219.177 -0.33 -0.01    +0.013 C  
DOCKED: BRANCH  13  14
DOCKED: ATOM     14  C   UNL     1     144.446  74.407 219.513 -0.30 +0.00    -0.007 A  
DOCKED: ATOM     15  C   UNL     1     144.767  73.395 218.585 -0.20 -0.00    +0.119 A  
DOCKED: ATOM     16  C   UNL     1     144.982  74.315 220.809 -0.46 -0.00    +0.011 A  
DOCKED: ATOM     17  N   UNL     1     145.600  72.380 218.937 -0.66 -0.16    -0.264 NA 
DOCKED: ATOM     18  C   UNL     1     145.841  73.268 221.142 -0.68 -0.00    +0.021 A  
DOCKED: ATOM     19  C   UNL     1     146.144  72.300 220.182 -0.29 +0.04    +0.111 A  
DOCKED: ENDBRANCH  13  14
DOCKED: ENDBRANCH  12  13
DOCKED: ENDBRANCH   1  12
DOCKED: BRANCH  11  20
DOCKED: ATOM     20  C   UNL     1     140.238  77.415 220.743 -0.15 -0.05    +0.163 C  
DOCKED: BRANCH  20  21
DOCKED: ATOM     21  C   UNL     1     141.024  78.267 221.712 -0.35 +0.01    -0.028 A  
DOCKED: ATOM     22  C   UNL     1     141.092  77.915 223.075 -0.47 -0.00    +0.005 A  
DOCKED: ATOM     23  C   UNL     1     141.720  79.404 221.264 -0.38 -0.00    +0.005 A  
DOCKED: ATOM     24  C   UNL     1     141.816  78.705 223.974 -0.60 -0.00    +0.000 A  
DOCKED: ATOM     25  C   UNL     1     142.456  80.182 222.166 -0.53 -0.00    +0.000 A  
DOCKED: ATOM     26  C   UNL     1     142.505  79.832 223.518 -0.64 -0.00    +0.000 A  
DOCKED: ENDBRANCH  20  21
DOCKED: ENDBRANCH  11  20
DOCKED: TORSDOF 5
DOCKED: TER
DOCKED: ENDMDL
________________________________________________________________________________


    FINAL DOCKED STATE:
    ________________________


Run:   6 / 20
Time taken for this run:   0.038s

DOCKED: MODEL        6
DOCKED: USER    Run = 6
DOCKED: USER
DOCKED: USER    Estimated Free Energy of Binding    =  -7.14 kcal/mol  [=(1)+(2)+(3)-(4)]
DOCKED: USER
DOCKED: USER    (1) Final Intermolecular Energy     =  -8.63 kcal/mol
DOCKED: USER        vdW + Hbond + desolv Energy     =  -8.49 kcal/mol
DOCKED: USER        Electrostatic Energy            =  -0.14 kcal/mol
DOCKED: USER        Moving Ligand-Fixed Receptor    =  -8.63 kcal/mol
DOCKED: USER        Moving Ligand-Moving Receptor   =  +0.00 kcal/mol
DOCKED: USER    (2) Final Total Internal Energy     =  -1.34 kcal/mol
DOCKED: USER    (3) Torsional Free Energy           =  +1.49 kcal/mol
DOCKED: USER    (4) Unbound System's Energy         =  -1.34 kcal/mol
DOCKED: USER
DOCKED: USER
DOCKED: REMARK SMILES O=c1c2ccccc2nc(/C=C/c2cccnc2)n1Cc1ccccc1
DOCKED: REMARK SMILES IDX 10 1 9 2 8 3 7 4 6 5 5 6 4 7 3 8 2 9 1 10 19 11 11 12 12 13
DOCKED: REMARK SMILES IDX 13 14 18 15 14 16 17 17 15 18 16 19 20 20 21 21 22 22 26 23
DOCKED: REMARK SMILES IDX 23 24 25 25 24 26
DOCKED: REMARK H PARENT
DOCKED: USER                              x       y       z     vdW  Elec       q    Type
DOCKED: USER                           _______ _______ _______ _____ _____    ______ ____
DOCKED: ROOT
DOCKED: ATOM      1  C   UNL     1     141.642  75.391 220.651 -0.23 -0.05    +0.136 A  
DOCKED: ATOM      2  N   UNL     1     141.853  74.061 220.827 -0.18 +0.05    -0.230 NA 
DOCKED: ATOM      3  C   UNL     1     140.910  73.257 221.370 -0.25 -0.01    +0.078 A  
DOCKED: ATOM      4  C   UNL     1     141.158  71.887 221.520 -0.23 -0.00    +0.029 A  
DOCKED: ATOM      5  C   UNL     1     140.185  71.057 222.083 -0.21 -0.00    +0.002 A  
DOCKED: ATOM      6  C   UNL     1     138.965  71.594 222.505 -0.23 -0.00    +0.001 A  
DOCKED: ATOM      7  C   UNL     1     138.710  72.963 222.358 -0.10 -0.01    +0.016 A  
DOCKED: ATOM      8  C   UNL     1     139.682  73.805 221.784 -0.25 -0.01    +0.066 A  
DOCKED: ATOM      9  C   UNL     1     139.470  75.183 221.599 -0.19 -0.05    +0.261 A  
DOCKED: ATOM     10  O   UNL     1     138.378  75.698 221.972 -0.19 +0.06    -0.269 OA 
DOCKED: ATOM     11  N   UNL     1     140.441  75.963 221.017 -0.13 +0.08    -0.288 N  
DOCKED: ENDROOT
DOCKED: BRANCH   1  12
DOCKED: ATOM     12  C   UNL     1     142.731  76.187 220.062 -0.25 -0.03    +0.048 C  
DOCKED: BRANCH  12  13
DOCKED: ATOM     13  C   UNL     1     143.580  75.625 219.193 -0.33 -0.01    +0.013 C  
DOCKED: BRANCH  13  14
DOCKED: ATOM     14  C   UNL     1     144.439  74.459 219.527 -0.30 +0.00    -0.007 A  
DOCKED: ATOM     15  C   UNL     1     144.743  73.437 218.604 -0.19 -0.01    +0.119 A  
DOCKED: ATOM     16  C   UNL     1     144.997  74.381 220.814 -0.44 -0.00    +0.011 A  
DOCKED: ATOM     17  N   UNL     1     145.582  72.426 218.951 -0.66 -0.15    -0.264 NA 
DOCKED: ATOM     18  C   UNL     1     145.861  73.336 221.143 -0.69 -0.00    +0.021 A  
DOCKED: ATOM     19  C   UNL     1     146.147  72.358 220.187 -0.30 +0.04    +0.111 A  
DOCKED: ENDBRANCH  13  14
DOCKED: ENDBRANCH  12  13
DOCKED: ENDBRANCH   1  12
DOCKED: BRANCH  11  20
DOCKED: ATOM     20  C   UNL     1     140.197  77.404 220.783 -0.15 -0.05    +0.163 C  
DOCKED: BRANCH  20  21
DOCKED: ATOM     21  C   UNL     1     140.997  78.261 221.737 -0.35 +0.01    -0.028 A  
DOCKED: ATOM     22  C   UNL     1     141.096  77.907 223.097 -0.46 -0.00    +0.005 A  
DOCKED: ATOM     23  C   UNL     1     141.675  79.404 221.276 -0.38 -0.00    +0.005 A  
DOCKED: ATOM     24  C   UNL     1     141.832  78.701 223.982 -0.59 -0.00    +0.000 A  
DOCKED: ATOM     25  C   UNL     1     142.423  80.186 222.163 -0.53 -0.00    +0.000 A  
DOCKED: ATOM     26  C   UNL     1     142.503  79.835 223.513 -0.64 -0.00    +0.000 A  
DOCKED: ENDBRANCH  20  21
DOCKED: ENDBRANCH  11  20
DOCKED: TORSDOF 5
DOCKED: TER
DOCKED: ENDMDL
________________________________________________________________________________


    FINAL DOCKED STATE:
    ________________________


Run:   7 / 20
Time taken for this run:   0.038s

DOCKED: MODEL        7
DOCKED: USER    Run = 7
DOCKED: USER
DOCKED: USER    Estimated Free Energy of Binding    =  -7.27 kcal/mol  [=(1)+(2)+(3)-(4)]
DOCKED: USER
DOCKED: USER    (1) Final Intermolecular Energy     =  -8.76 kcal/mol
DOCKED: USER        vdW + Hbond + desolv Energy     =  -8.69 kcal/mol
DOCKED: USER        Electrostatic Energy            =  -0.07 kcal/mol
DOCKED: USER        Moving Ligand-Fixed Receptor    =  -8.76 kcal/mol
DOCKED: USER        Moving Ligand-Moving Receptor   =  +0.00 kcal/mol
DOCKED: USER    (2) Final Total Internal Energy     =  -1.22 kcal/mol
DOCKED: USER    (3) Torsional Free Energy           =  +1.49 kcal/mol
DOCKED: USER    (4) Unbound System's Energy         =  -1.22 kcal/mol
DOCKED: USER
DOCKED: USER
DOCKED: REMARK SMILES O=c1c2ccccc2nc(/C=C/c2cccnc2)n1Cc1ccccc1
DOCKED: REMARK SMILES IDX 10 1 9 2 8 3 7 4 6 5 5 6 4 7 3 8 2 9 1 10 19 11 11 12 12 13
DOCKED: REMARK SMILES IDX 13 14 18 15 14 16 17 17 15 18 16 19 20 20 21 21 22 22 26 23
DOCKED: REMARK SMILES IDX 23 24 25 25 24 26
DOCKED: REMARK H PARENT
DOCKED: USER                              x       y       z     vdW  Elec       q    Type
DOCKED: USER                           _______ _______ _______ _____ _____    ______ ____
DOCKED: ROOT
DOCKED: ATOM      1  C   UNL     1     139.679  70.280 223.463 -0.21 -0.02    +0.136 A  
DOCKED: ATOM      2  N   UNL     1     140.204  71.196 224.318 -0.29 +0.04    -0.230 NA 
DOCKED: ATOM      3  C   UNL     1     140.390  70.919 225.629 -0.51 -0.01    +0.078 A  
DOCKED: ATOM      4  C   UNL     1     140.949  71.883 226.477 -0.67 -0.00    +0.029 A  
DOCKED: ATOM      5  C   UNL     1     141.140  71.598 227.832 -0.79 -0.00    +0.002 A  
DOCKED: ATOM      6  C   UNL     1     140.767  70.351 228.345 -0.56 -0.00    +0.001 A  
DOCKED: ATOM      7  C   UNL     1     140.208  69.383 227.503 -0.60 -0.00    +0.016 A  
DOCKED: ATOM      8  C   UNL     1     140.019  69.659 226.135 -0.45 -0.01    +0.066 A  
DOCKED: ATOM      9  C   UNL     1     139.478  68.716 225.243 -0.27 -0.04    +0.261 A  
DOCKED: ATOM     10  O   UNL     1     139.129  67.581 225.677 -0.88 -0.01    -0.269 OA 
DOCKED: ATOM     11  N   UNL     1     139.329  69.024 223.911 -0.12 +0.05    -0.288 N  
DOCKED: ENDROOT
DOCKED: BRANCH   1  12
DOCKED: ATOM     12  C   UNL     1     139.503  70.677 222.056 -0.18 -0.01    +0.048 C  
DOCKED: BRANCH  12  13
DOCKED: ATOM     13  C   UNL     1     140.483  71.324 221.412 -0.18 -0.00    +0.013 C  
DOCKED: BRANCH  13  14
DOCKED: ATOM     14  C   UNL     1     140.643  72.801 221.438 -0.26 +0.00    -0.007 A  
DOCKED: ATOM     15  C   UNL     1     139.719  73.664 222.062 -0.20 -0.02    +0.119 A  
DOCKED: ATOM     16  C   UNL     1     141.779  73.366 220.835 -0.26 -0.00    +0.011 A  
DOCKED: ATOM     17  N   UNL     1     139.951  75.003 222.103 -0.63 +0.03    -0.264 NA 
DOCKED: ATOM     18  C   UNL     1     141.997  74.742 220.897 -0.29 -0.01    +0.021 A  
DOCKED: ATOM     19  C   UNL     1     141.063  75.554 221.544 -0.31 -0.03    +0.111 A  
DOCKED: ENDBRANCH  13  14
DOCKED: ENDBRANCH  12  13
DOCKED: ENDBRANCH   1  12
DOCKED: BRANCH  11  20
DOCKED: ATOM     20  C   UNL     1     138.801  68.013 222.968 -0.19 -0.03    +0.163 C  
DOCKED: BRANCH  20  21
DOCKED: ATOM     21  C   UNL     1     137.303  68.137 222.809 -0.14 +0.00    -0.028 A  
DOCKED: ATOM     22  C   UNL     1     136.582  69.074 223.577 -0.19 -0.00    +0.005 A  
DOCKED: ATOM     23  C   UNL     1     136.613  67.342 221.878 -0.14 -0.00    +0.005 A  
DOCKED: ATOM     24  C   UNL     1     135.196  69.187 223.436 -0.14 -0.00    +0.000 A  
DOCKED: ATOM     25  C   UNL     1     135.227  67.470 221.729 -0.11 -0.00    +0.000 A  
DOCKED: ATOM     26  C   UNL     1     134.520  68.392 222.505 -0.10 -0.00    +0.000 A  
DOCKED: ENDBRANCH  20  21
DOCKED: ENDBRANCH  11  20
DOCKED: TORSDOF 5
DOCKED: TER
DOCKED: ENDMDL
________________________________________________________________________________


    FINAL DOCKED STATE:
    ________________________


Run:   8 / 20
Time taken for this run:   0.038s

DOCKED: MODEL        8
DOCKED: USER    Run = 8
DOCKED: USER
DOCKED: USER    Estimated Free Energy of Binding    =  -6.47 kcal/mol  [=(1)+(2)+(3)-(4)]
DOCKED: USER
DOCKED: USER    (1) Final Intermolecular Energy     =  -7.96 kcal/mol
DOCKED: USER        vdW + Hbond + desolv Energy     =  -7.94 kcal/mol
DOCKED: USER        Electrostatic Energy            =  -0.03 kcal/mol
DOCKED: USER        Moving Ligand-Fixed Receptor    =  -7.96 kcal/mol
DOCKED: USER        Moving Ligand-Moving Receptor   =  +0.00 kcal/mol
DOCKED: USER    (2) Final Total Internal Energy     =  -1.87 kcal/mol
DOCKED: USER    (3) Torsional Free Energy           =  +1.49 kcal/mol
DOCKED: USER    (4) Unbound System's Energy         =  -1.87 kcal/mol
DOCKED: USER
DOCKED: USER
DOCKED: REMARK SMILES O=c1c2ccccc2nc(/C=C/c2cccnc2)n1Cc1ccccc1
DOCKED: REMARK SMILES IDX 10 1 9 2 8 3 7 4 6 5 5 6 4 7 3 8 2 9 1 10 19 11 11 12 12 13
DOCKED: REMARK SMILES IDX 13 14 18 15 14 16 17 17 15 18 16 19 20 20 21 21 22 22 26 23
DOCKED: REMARK SMILES IDX 23 24 25 25 24 26
DOCKED: REMARK H PARENT
DOCKED: USER                              x       y       z     vdW  Elec       q    Type
DOCKED: USER                           _______ _______ _______ _____ _____    ______ ____
DOCKED: ROOT
DOCKED: ATOM      1  C   UNL     1     140.931  77.401 220.177 -0.17 -0.06    +0.136 A  
DOCKED: ATOM      2  N   UNL     1     142.172  76.999 219.799 -0.19 +0.14    -0.230 NA 
DOCKED: ATOM      3  C   UNL     1     142.651  75.776 220.121 -0.28 -0.04    +0.078 A  
DOCKED: ATOM      4  C   UNL     1     143.930  75.391 219.699 -0.36 -0.02    +0.029 A  
DOCKED: ATOM      5  C   UNL     1     144.427  74.128 220.032 -0.45 -0.00    +0.002 A  
DOCKED: ATOM      6  C   UNL     1     143.651  73.249 220.795 -0.33 -0.00    +0.001 A  
DOCKED: ATOM      7  C   UNL     1     142.372  73.627 221.220 -0.07 -0.00    +0.016 A  
DOCKED: ATOM      8  C   UNL     1     141.861  74.895 220.881 -0.28 -0.02    +0.066 A  
DOCKED: ATOM      9  C   UNL     1     140.576  75.317 221.268 -0.21 -0.06    +0.261 A  
DOCKED: ATOM     10  O   UNL     1     139.852  74.546 221.960 -0.75 +0.03    -0.269 OA 
DOCKED: ATOM     11  N   UNL     1     140.112  76.558 220.898 -0.09 +0.08    -0.288 N  
DOCKED: ENDROOT
DOCKED: BRANCH   1  12
DOCKED: ATOM     12  C   UNL     1     140.500  78.754 219.790 -0.15 -0.02    +0.048 C  
DOCKED: BRANCH  12  13
DOCKED: ATOM     13  C   UNL     1     141.334  79.792 219.929 -0.27 -0.01    +0.013 C  
DOCKED: BRANCH  13  14
DOCKED: ATOM     14  C   UNL     1     141.755  80.331 221.249 -0.39 +0.00    -0.007 A  
DOCKED: ATOM     15  C   UNL     1     141.341  81.588 221.734 -0.34 -0.03    +0.119 A  
DOCKED: ATOM     16  C   UNL     1     142.583  79.542 222.065 -0.39 -0.01    +0.011 A  
DOCKED: ATOM     17  N   UNL     1     141.712  82.001 222.975 -0.22 +0.03    -0.264 NA 
DOCKED: ATOM     18  C   UNL     1     142.943  79.986 223.337 -0.61 -0.01    +0.021 A  
DOCKED: ATOM     19  C   UNL     1     142.492  81.231 223.781 -0.53 -0.02    +0.111 A  
DOCKED: ENDBRANCH  13  14
DOCKED: ENDBRANCH  12  13
DOCKED: ENDBRANCH   1  12
DOCKED: BRANCH  11  20
DOCKED: ATOM     20  C   UNL     1     138.743  76.981 221.270 -0.14 -0.04    +0.163 C  
DOCKED: BRANCH  20  21
DOCKED: ATOM     21  C   UNL     1     138.768  78.157 222.218 -0.24 +0.01    -0.028 A  
DOCKED: ATOM     22  C   UNL     1     137.726  79.106 222.202 -0.18 -0.00    +0.005 A  
DOCKED: ATOM     23  C   UNL     1     139.814  78.306 223.146 -0.26 -0.00    +0.005 A  
DOCKED: ATOM     24  C   UNL     1     137.750  80.197 223.076 -0.26 -0.00    +0.000 A  
DOCKED: ATOM     25  C   UNL     1     139.826  79.392 224.029 -0.37 -0.00    +0.000 A  
DOCKED: ATOM     26  C   UNL     1     138.795  80.335 223.995 -0.41 -0.00    +0.000 A  
DOCKED: ENDBRANCH  20  21
DOCKED: ENDBRANCH  11  20
DOCKED: TORSDOF 5
DOCKED: TER
DOCKED: ENDMDL
________________________________________________________________________________


    FINAL DOCKED STATE:
    ________________________


Run:   9 / 20
Time taken for this run:   0.038s

DOCKED: MODEL        9
DOCKED: USER    Run = 9
DOCKED: USER
DOCKED: USER    Estimated Free Energy of Binding    =  -7.15 kcal/mol  [=(1)+(2)+(3)-(4)]
DOCKED: USER
DOCKED: USER    (1) Final Intermolecular Energy     =  -8.65 kcal/mol
DOCKED: USER        vdW + Hbond + desolv Energy     =  -8.49 kcal/mol
DOCKED: USER        Electrostatic Energy            =  -0.15 kcal/mol
DOCKED: USER        Moving Ligand-Fixed Receptor    =  -8.65 kcal/mol
DOCKED: USER        Moving Ligand-Moving Receptor   =  +0.00 kcal/mol
DOCKED: USER    (2) Final Total Internal Energy     =  -1.33 kcal/mol
DOCKED: USER    (3) Torsional Free Energy           =  +1.49 kcal/mol
DOCKED: USER    (4) Unbound System's Energy         =  -1.33 kcal/mol
DOCKED: USER
DOCKED: USER
DOCKED: REMARK SMILES O=c1c2ccccc2nc(/C=C/c2cccnc2)n1Cc1ccccc1
DOCKED: REMARK SMILES IDX 10 1 9 2 8 3 7 4 6 5 5 6 4 7 3 8 2 9 1 10 19 11 11 12 12 13
DOCKED: REMARK SMILES IDX 13 14 18 15 14 16 17 17 15 18 16 19 20 20 21 21 22 22 26 23
DOCKED: REMARK SMILES IDX 23 24 25 25 24 26
DOCKED: REMARK H PARENT
DOCKED: USER                              x       y       z     vdW  Elec       q    Type
DOCKED: USER                           _______ _______ _______ _____ _____    ______ ____
DOCKED: ROOT
DOCKED: ATOM      1  C   UNL     1     141.650  75.382 220.649 -0.23 -0.05    +0.136 A  
DOCKED: ATOM      2  N   UNL     1     141.832  74.050 220.840 -0.18 +0.05    -0.230 NA 
DOCKED: ATOM      3  C   UNL     1     140.865  73.272 221.380 -0.25 -0.01    +0.078 A  
DOCKED: ATOM      4  C   UNL     1     141.083  71.899 221.546 -0.24 -0.00    +0.029 A  
DOCKED: ATOM      5  C   UNL     1     140.085  71.094 222.105 -0.22 -0.00    +0.002 A  
DOCKED: ATOM      6  C   UNL     1     138.871  71.661 222.505 -0.23 -0.00    +0.001 A  
DOCKED: ATOM      7  C   UNL     1     138.647  73.033 222.341 -0.10 -0.01    +0.016 A  
DOCKED: ATOM      8  C   UNL     1     139.643  73.849 221.771 -0.25 -0.01    +0.066 A  
DOCKED: ATOM      9  C   UNL     1     139.462  75.229 221.569 -0.19 -0.05    +0.261 A  
DOCKED: ATOM     10  O   UNL     1     138.376  75.771 221.922 -0.18 +0.06    -0.269 OA 
DOCKED: ATOM     11  N   UNL     1     140.457  75.983 220.992 -0.13 +0.08    -0.288 N  
DOCKED: ENDROOT
DOCKED: BRANCH   1  12
DOCKED: ATOM     12  C   UNL     1     142.763  76.150 220.066 -0.25 -0.03    +0.048 C  
DOCKED: BRANCH  12  13
DOCKED: ATOM     13  C   UNL     1     143.593  75.571 219.189 -0.33 -0.01    +0.013 C  
DOCKED: BRANCH  13  14
DOCKED: ATOM     14  C   UNL     1     144.452  74.405 219.523 -0.30 +0.00    -0.007 A  
DOCKED: ATOM     15  C   UNL     1     144.783  73.400 218.591 -0.20 -0.00    +0.119 A  
DOCKED: ATOM     16  C   UNL     1     144.983  74.311 220.820 -0.46 -0.00    +0.011 A  
DOCKED: ATOM     17  N   UNL     1     145.622  72.390 218.941 -0.66 -0.17    -0.264 NA 
DOCKED: ATOM     18  C   UNL     1     145.848  73.268 221.152 -0.68 -0.00    +0.021 A  
DOCKED: ATOM     19  C   UNL     1     146.161  72.306 220.188 -0.28 +0.04    +0.111 A  
DOCKED: ENDBRANCH  13  14
DOCKED: ENDBRANCH  12  13
DOCKED: ENDBRANCH   1  12
DOCKED: BRANCH  11  20
DOCKED: ATOM     20  C   UNL     1     140.246  77.426 220.740 -0.15 -0.05    +0.163 C  
DOCKED: BRANCH  20  21
DOCKED: ATOM     21  C   UNL     1     141.026  78.276 221.716 -0.35 +0.01    -0.028 A  
DOCKED: ATOM     22  C   UNL     1     141.088  77.920 223.078 -0.47 -0.00    +0.005 A  
DOCKED: ATOM     23  C   UNL     1     141.722  79.416 221.275 -0.38 -0.00    +0.005 A  
DOCKED: ATOM     24  C   UNL     1     141.806  78.707 223.983 -0.59 -0.00    +0.000 A  
DOCKED: ATOM     25  C   UNL     1     142.452  80.192 222.183 -0.54 -0.00    +0.000 A  
DOCKED: ATOM     26  C   UNL     1     142.495  79.838 223.534 -0.64 -0.00    +0.000 A  
DOCKED: ENDBRANCH  20  21
DOCKED: ENDBRANCH  11  20
DOCKED: TORSDOF 5
DOCKED: TER
DOCKED: ENDMDL
________________________________________________________________________________


    FINAL DOCKED STATE:
    ________________________


Run:   10 / 20
Time taken for this run:   0.038s

DOCKED: MODEL        10
DOCKED: USER    Run = 10
DOCKED: USER
DOCKED: USER    Estimated Free Energy of Binding    =  -6.87 kcal/mol  [=(1)+(2)+(3)-(4)]
DOCKED: USER
DOCKED: USER    (1) Final Intermolecular Energy     =  -8.36 kcal/mol
DOCKED: USER        vdW + Hbond + desolv Energy     =  -8.32 kcal/mol
DOCKED: USER        Electrostatic Energy            =  -0.04 kcal/mol
DOCKED: USER        Moving Ligand-Fixed Receptor    =  -8.36 kcal/mol
DOCKED: USER        Moving Ligand-Moving Receptor   =  +0.00 kcal/mol
DOCKED: USER    (2) Final Total Internal Energy     =  -1.41 kcal/mol
DOCKED: USER    (3) Torsional Free Energy           =  +1.49 kcal/mol
DOCKED: USER    (4) Unbound System's Energy         =  -1.41 kcal/mol
DOCKED: USER
DOCKED: USER
DOCKED: REMARK SMILES O=c1c2ccccc2nc(/C=C/c2cccnc2)n1Cc1ccccc1
DOCKED: REMARK SMILES IDX 10 1 9 2 8 3 7 4 6 5 5 6 4 7 3 8 2 9 1 10 19 11 11 12 12 13
DOCKED: REMARK SMILES IDX 13 14 18 15 14 16 17 17 15 18 16 19 20 20 21 21 22 22 26 23
DOCKED: REMARK SMILES IDX 23 24 25 25 24 26
DOCKED: REMARK H PARENT
DOCKED: USER                              x       y       z     vdW  Elec       q    Type
DOCKED: USER                           _______ _______ _______ _____ _____    ______ ____
DOCKED: ROOT
DOCKED: ATOM      1  C   UNL     1     138.201  69.318 223.940 -0.23 -0.02    +0.136 A  
DOCKED: ATOM      2  N   UNL     1     138.470  68.443 224.943 -0.45 +0.00    -0.230 NA 
DOCKED: ATOM      3  C   UNL     1     139.334  68.748 225.939 -0.45 -0.01    +0.078 A  
DOCKED: ATOM      4  C   UNL     1     139.573  67.826 226.966 -0.60 -0.00    +0.029 A  
DOCKED: ATOM      5  C   UNL     1     140.466  68.140 227.994 -0.65 -0.00    +0.002 A  
DOCKED: ATOM      6  C   UNL     1     141.128  69.372 227.995 -0.58 -0.00    +0.001 A  
DOCKED: ATOM      7  C   UNL     1     140.894  70.297 226.972 -0.58 -0.00    +0.016 A  
DOCKED: ATOM      8  C   UNL     1     139.989  69.993 225.936 -0.45 -0.01    +0.066 A  
DOCKED: ATOM      9  C   UNL     1     139.705  70.894 224.895 -0.29 -0.05    +0.261 A  
DOCKED: ATOM     10  O   UNL     1     140.289  72.014 224.867 -0.26 +0.05    -0.269 OA 
DOCKED: ATOM     11  N   UNL     1     138.800  70.559 223.915 -0.16 +0.06    -0.288 N  
DOCKED: ENDROOT
DOCKED: BRANCH   1  12
DOCKED: ATOM     12  C   UNL     1     137.256  68.893 222.894 -0.17 -0.01    +0.048 C  
DOCKED: BRANCH  12  13
DOCKED: ATOM     13  C   UNL     1     135.973  68.661 223.200 -0.11 -0.00    +0.013 C  
DOCKED: BRANCH  13  14
DOCKED: ATOM     14  C   UNL     1     135.279  69.298 224.349 -0.21 +0.00    -0.007 A  
DOCKED: ATOM     15  C   UNL     1     134.667  68.561 225.383 -0.19 -0.00    +0.119 A  
DOCKED: ATOM     16  C   UNL     1     135.251  70.701 224.424 -0.19 -0.00    +0.011 A  
DOCKED: ATOM     17  N   UNL     1     134.097  69.203 226.438 -0.64 -0.00    -0.264 NA 
DOCKED: ATOM     18  C   UNL     1     134.667  71.334 225.521 -0.18 -0.00    +0.021 A  
DOCKED: ATOM     19  C   UNL     1     134.090  70.561 226.531 -0.32 -0.00    +0.111 A  
DOCKED: ENDBRANCH  13  14
DOCKED: ENDBRANCH  12  13
DOCKED: ENDBRANCH   1  12
DOCKED: BRANCH  11  20
DOCKED: ATOM     20  C   UNL     1     138.470  71.528 222.845 -0.17 -0.04    +0.163 C  
DOCKED: BRANCH  20  21
DOCKED: ATOM     21  C   UNL     1     139.717  72.030 222.153 -0.26 +0.00    -0.028 A  
DOCKED: ATOM     22  C   UNL     1     140.671  71.119 221.659 -0.16 -0.00    +0.005 A  
DOCKED: ATOM     23  C   UNL     1     139.928  73.408 221.970 -0.29 -0.00    +0.005 A  
DOCKED: ATOM     24  C   UNL     1     141.828  71.582 221.023 -0.19 -0.00    +0.000 A  
DOCKED: ATOM     25  C   UNL     1     141.080  73.866 221.320 -0.30 -0.00    +0.000 A  
DOCKED: ATOM     26  C   UNL     1     142.027  72.954 220.845 -0.26 -0.00    +0.000 A  
DOCKED: ENDBRANCH  20  21
DOCKED: ENDBRANCH  11  20
DOCKED: TORSDOF 5
DOCKED: TER
DOCKED: ENDMDL
________________________________________________________________________________


    FINAL DOCKED STATE:
    ________________________


Run:   11 / 20
Time taken for this run:   0.038s

DOCKED: MODEL        11
DOCKED: USER    Run = 11
DOCKED: USER
DOCKED: USER    Estimated Free Energy of Binding    =  -6.40 kcal/mol  [=(1)+(2)+(3)-(4)]
DOCKED: USER
DOCKED: USER    (1) Final Intermolecular Energy     =  -7.90 kcal/mol
DOCKED: USER        vdW + Hbond + desolv Energy     =  -7.87 kcal/mol
DOCKED: USER        Electrostatic Energy            =  -0.03 kcal/mol
DOCKED: USER        Moving Ligand-Fixed Receptor    =  -7.90 kcal/mol
DOCKED: USER        Moving Ligand-Moving Receptor   =  +0.00 kcal/mol
DOCKED: USER    (2) Final Total Internal Energy     =  -1.91 kcal/mol
DOCKED: USER    (3) Torsional Free Energy           =  +1.49 kcal/mol
DOCKED: USER    (4) Unbound System's Energy         =  -1.91 kcal/mol
DOCKED: USER
DOCKED: USER
DOCKED: REMARK SMILES O=c1c2ccccc2nc(/C=C/c2cccnc2)n1Cc1ccccc1
DOCKED: REMARK SMILES IDX 10 1 9 2 8 3 7 4 6 5 5 6 4 7 3 8 2 9 1 10 19 11 11 12 12 13
DOCKED: REMARK SMILES IDX 13 14 18 15 14 16 17 17 15 18 16 19 20 20 21 21 22 22 26 23
DOCKED: REMARK SMILES IDX 23 24 25 25 24 26
DOCKED: REMARK H PARENT
DOCKED: USER                              x       y       z     vdW  Elec       q    Type
DOCKED: USER                           _______ _______ _______ _____ _____    ______ ____
DOCKED: ROOT
DOCKED: ATOM      1  C   UNL     1     140.843  77.582 220.167 -0.16 -0.06    +0.136 A  
DOCKED: ATOM      2  N   UNL     1     142.081  77.185 219.776 -0.18 +0.14    -0.230 NA 
DOCKED: ATOM      3  C   UNL     1     142.568  75.963 220.091 -0.29 -0.04    +0.078 A  
DOCKED: ATOM      4  C   UNL     1     143.844  75.583 219.656 -0.35 -0.02    +0.029 A  
DOCKED: ATOM      5  C   UNL     1     144.349  74.321 219.982 -0.44 -0.00    +0.002 A  
DOCKED: ATOM      6  C   UNL     1     143.583  73.438 220.750 -0.33 -0.00    +0.001 A  
DOCKED: ATOM      7  C   UNL     1     142.307  73.811 221.188 -0.10 -0.00    +0.016 A  
DOCKED: ATOM      8  C   UNL     1     141.788  75.078 220.857 -0.28 -0.02    +0.066 A  
DOCKED: ATOM      9  C   UNL     1     140.506  75.495 221.257 -0.20 -0.06    +0.261 A  
DOCKED: ATOM     10  O   UNL     1     139.791  74.720 221.954 -0.69 +0.04    -0.269 OA 
DOCKED: ATOM     11  N   UNL     1     140.034  76.734 220.894 -0.08 +0.08    -0.288 N  
DOCKED: ENDROOT
DOCKED: BRANCH   1  12
DOCKED: ATOM     12  C   UNL     1     140.403  78.934 219.786 -0.14 -0.02    +0.048 C  
DOCKED: BRANCH  12  13
DOCKED: ATOM     13  C   UNL     1     141.223  79.980 219.955 -0.26 -0.01    +0.013 C  
DOCKED: BRANCH  13  14
DOCKED: ATOM     14  C   UNL     1     141.707  80.433 221.284 -0.39 +0.00    -0.007 A  
DOCKED: ATOM     15  C   UNL     1     141.340  81.668 221.858 -0.34 -0.02    +0.119 A  
DOCKED: ATOM     16  C   UNL     1     142.550  79.582 222.019 -0.40 -0.01    +0.011 A  
DOCKED: ATOM     17  N   UNL     1     141.770  82.000 223.104 -0.22 +0.03    -0.264 NA 
DOCKED: ATOM     18  C   UNL     1     142.971  79.944 223.299 -0.60 -0.01    +0.021 A  
DOCKED: ATOM     19  C   UNL     1     142.565  81.169 223.832 -0.55 -0.02    +0.111 A  
DOCKED: ENDBRANCH  13  14
DOCKED: ENDBRANCH  12  13
DOCKED: ENDBRANCH   1  12
DOCKED: BRANCH  11  20
DOCKED: ATOM     20  C   UNL     1     138.667  77.152 221.280 -0.13 -0.04    +0.163 C  
DOCKED: BRANCH  20  21
DOCKED: ATOM     21  C   UNL     1     138.698  78.258 222.309 -0.25 +0.01    -0.028 A  
DOCKED: ATOM     22  C   UNL     1     139.808  78.399 223.167 -0.27 -0.00    +0.005 A  
DOCKED: ATOM     23  C   UNL     1     137.637  79.175 222.408 -0.19 -0.00    +0.005 A  
DOCKED: ATOM     24  C   UNL     1     139.837  79.419 224.123 -0.34 -0.00    +0.000 A  
DOCKED: ATOM     25  C   UNL     1     137.678  80.203 223.356 -0.28 -0.00    +0.000 A  
DOCKED: ATOM     26  C   UNL     1     138.776  80.326 224.211 -0.41 -0.00    +0.000 A  
DOCKED: ENDBRANCH  20  21
DOCKED: ENDBRANCH  11  20
DOCKED: TORSDOF 5
DOCKED: TER
DOCKED: ENDMDL
________________________________________________________________________________


    FINAL DOCKED STATE:
    ________________________


Run:   12 / 20
Time taken for this run:   0.038s

DOCKED: MODEL        12
DOCKED: USER    Run = 12
DOCKED: USER
DOCKED: USER    Estimated Free Energy of Binding    =  -7.16 kcal/mol  [=(1)+(2)+(3)-(4)]
DOCKED: USER
DOCKED: USER    (1) Final Intermolecular Energy     =  -8.65 kcal/mol
DOCKED: USER        vdW + Hbond + desolv Energy     =  -8.51 kcal/mol
DOCKED: USER        Electrostatic Energy            =  -0.14 kcal/mol
DOCKED: USER        Moving Ligand-Fixed Receptor    =  -8.65 kcal/mol
DOCKED: USER        Moving Ligand-Moving Receptor   =  +0.00 kcal/mol
DOCKED: USER    (2) Final Total Internal Energy     =  -1.33 kcal/mol
DOCKED: USER    (3) Torsional Free Energy           =  +1.49 kcal/mol
DOCKED: USER    (4) Unbound System's Energy         =  -1.33 kcal/mol
DOCKED: USER
DOCKED: USER
DOCKED: REMARK SMILES O=c1c2ccccc2nc(/C=C/c2cccnc2)n1Cc1ccccc1
DOCKED: REMARK SMILES IDX 10 1 9 2 8 3 7 4 6 5 5 6 4 7 3 8 2 9 1 10 19 11 11 12 12 13
DOCKED: REMARK SMILES IDX 13 14 18 15 14 16 17 17 15 18 16 19 20 20 21 21 22 22 26 23
DOCKED: REMARK SMILES IDX 23 24 25 25 24 26
DOCKED: REMARK H PARENT
DOCKED: USER                              x       y       z     vdW  Elec       q    Type
DOCKED: USER                           _______ _______ _______ _____ _____    ______ ____
DOCKED: ROOT
DOCKED: ATOM      1  C   UNL     1     141.642  75.398 220.649 -0.23 -0.05    +0.136 A  
DOCKED: ATOM      2  N   UNL     1     141.840  74.067 220.828 -0.18 +0.05    -0.230 NA 
DOCKED: ATOM      3  C   UNL     1     140.886  73.273 221.368 -0.25 -0.01    +0.078 A  
DOCKED: ATOM      4  C   UNL     1     141.122  71.901 221.522 -0.23 -0.00    +0.029 A  
DOCKED: ATOM      5  C   UNL     1     140.138  71.080 222.081 -0.22 -0.00    +0.002 A  
DOCKED: ATOM      6  C   UNL     1     138.920  71.629 222.495 -0.23 -0.00    +0.001 A  
DOCKED: ATOM      7  C   UNL     1     138.679  73.000 222.344 -0.11 -0.01    +0.016 A  
DOCKED: ATOM      8  C   UNL     1     139.661  73.832 221.774 -0.25 -0.01    +0.066 A  
DOCKED: ATOM      9  C   UNL     1     139.462  75.211 221.584 -0.19 -0.05    +0.261 A  
DOCKED: ATOM     10  O   UNL     1     138.373  75.738 221.950 -0.18 +0.06    -0.269 OA 
DOCKED: ATOM     11  N   UNL     1     140.445  75.982 221.006 -0.13 +0.08    -0.288 N  
DOCKED: ENDROOT
DOCKED: BRANCH   1  12
DOCKED: ATOM     12  C   UNL     1     142.741  76.183 220.064 -0.25 -0.03    +0.048 C  
DOCKED: BRANCH  12  13
DOCKED: ATOM     13  C   UNL     1     143.585  75.614 219.194 -0.33 -0.01    +0.013 C  
DOCKED: BRANCH  13  14
DOCKED: ATOM     14  C   UNL     1     144.440  74.446 219.529 -0.30 +0.00    -0.007 A  
DOCKED: ATOM     15  C   UNL     1     144.736  73.419 218.609 -0.20 -0.01    +0.119 A  
DOCKED: ATOM     16  C   UNL     1     145.003  74.370 220.814 -0.44 -0.00    +0.011 A  
DOCKED: ATOM     17  N   UNL     1     145.573  72.406 218.957 -0.66 -0.15    -0.264 NA 
DOCKED: ATOM     18  C   UNL     1     145.864  73.324 221.144 -0.69 -0.00    +0.021 A  
DOCKED: ATOM     19  C   UNL     1     146.142  72.340 220.192 -0.30 +0.04    +0.111 A  
DOCKED: ENDBRANCH  13  14
DOCKED: ENDBRANCH  12  13
DOCKED: ENDBRANCH   1  12
DOCKED: BRANCH  11  20
DOCKED: ATOM     20  C   UNL     1     140.214  77.425 220.768 -0.15 -0.05    +0.163 C  
DOCKED: BRANCH  20  21
DOCKED: ATOM     21  C   UNL     1     141.007  78.276 221.732 -0.35 +0.01    -0.028 A  
DOCKED: ATOM     22  C   UNL     1     141.643  79.452 221.286 -0.38 -0.00    +0.005 A  
DOCKED: ATOM     23  C   UNL     1     141.099  77.922 223.090 -0.47 -0.00    +0.005 A  
DOCKED: ATOM     24  C   UNL     1     142.381  80.238 222.176 -0.54 -0.00    +0.000 A  
DOCKED: ATOM     25  C   UNL     1     141.826  78.721 223.980 -0.60 -0.00    +0.000 A  
DOCKED: ATOM     26  C   UNL     1     142.464  79.877 223.525 -0.64 -0.00    +0.000 A  
DOCKED: ENDBRANCH  20  21
DOCKED: ENDBRANCH  11  20
DOCKED: TORSDOF 5
DOCKED: TER
DOCKED: ENDMDL
________________________________________________________________________________


    FINAL DOCKED STATE:
    ________________________


Run:   13 / 20
Time taken for this run:   0.038s

DOCKED: MODEL        13
DOCKED: USER    Run = 13
DOCKED: USER
DOCKED: USER    Estimated Free Energy of Binding    =  -7.29 kcal/mol  [=(1)+(2)+(3)-(4)]
DOCKED: USER
DOCKED: USER    (1) Final Intermolecular Energy     =  -8.79 kcal/mol
DOCKED: USER        vdW + Hbond + desolv Energy     =  -8.72 kcal/mol
DOCKED: USER        Electrostatic Energy            =  -0.07 kcal/mol
DOCKED: USER        Moving Ligand-Fixed Receptor    =  -8.79 kcal/mol
DOCKED: USER        Moving Ligand-Moving Receptor   =  +0.00 kcal/mol
DOCKED: USER    (2) Final Total Internal Energy     =  -1.21 kcal/mol
DOCKED: USER    (3) Torsional Free Energy           =  +1.49 kcal/mol
DOCKED: USER    (4) Unbound System's Energy         =  -1.21 kcal/mol
DOCKED: USER
DOCKED: USER
DOCKED: REMARK SMILES O=c1c2ccccc2nc(/C=C/c2cccnc2)n1Cc1ccccc1
DOCKED: REMARK SMILES IDX 10 1 9 2 8 3 7 4 6 5 5 6 4 7 3 8 2 9 1 10 19 11 11 12 12 13
DOCKED: REMARK SMILES IDX 13 14 18 15 14 16 17 17 15 18 16 19 20 20 21 21 22 22 26 23
DOCKED: REMARK SMILES IDX 23 24 25 25 24 26
DOCKED: REMARK H PARENT
DOCKED: USER                              x       y       z     vdW  Elec       q    Type
DOCKED: USER                           _______ _______ _______ _____ _____    ______ ____
DOCKED: ROOT
DOCKED: ATOM      1  C   UNL     1     139.570  70.292 223.484 -0.23 -0.02    +0.136 A  
DOCKED: ATOM      2  N   UNL     1     140.084  71.205 224.347 -0.29 +0.04    -0.230 NA 
DOCKED: ATOM      3  C   UNL     1     140.317  70.904 225.645 -0.50 -0.01    +0.078 A  
DOCKED: ATOM      4  C   UNL     1     140.864  71.868 226.501 -0.66 -0.00    +0.029 A  
DOCKED: ATOM      5  C   UNL     1     141.104  71.558 227.843 -0.80 -0.00    +0.002 A  
DOCKED: ATOM      6  C   UNL     1     140.791  70.286 228.334 -0.57 -0.00    +0.001 A  
DOCKED: ATOM      7  C   UNL     1     140.244  69.318 227.484 -0.60 -0.00    +0.016 A  
DOCKED: ATOM      8  C   UNL     1     140.007  69.620 226.129 -0.45 -0.01    +0.066 A  
DOCKED: ATOM      9  C   UNL     1     139.476  68.678 225.230 -0.27 -0.04    +0.261 A  
DOCKED: ATOM     10  O   UNL     1     139.181  67.522 225.644 -0.90 -0.01    -0.269 OA 
DOCKED: ATOM     11  N   UNL     1     139.279  69.013 223.910 -0.13 +0.05    -0.288 N  
DOCKED: ENDROOT
DOCKED: BRANCH   1  12
DOCKED: ATOM     12  C   UNL     1     139.340  70.715 222.093 -0.18 -0.01    +0.048 C  
DOCKED: BRANCH  12  13
DOCKED: ATOM     13  C   UNL     1     140.317  71.314 221.402 -0.19 -0.00    +0.013 C  
DOCKED: BRANCH  13  14
DOCKED: ATOM     14  C   UNL     1     140.548  72.782 221.417 -0.26 +0.00    -0.007 A  
DOCKED: ATOM     15  C   UNL     1     139.656  73.695 222.016 -0.22 -0.02    +0.119 A  
DOCKED: ATOM     16  C   UNL     1     141.721  73.285 220.830 -0.26 -0.00    +0.011 A  
DOCKED: ATOM     17  N   UNL     1     139.951  75.022 222.048 -0.63 +0.03    -0.264 NA 
DOCKED: ATOM     18  C   UNL     1     142.004  74.650 220.883 -0.29 -0.01    +0.021 A  
DOCKED: ATOM     19  C   UNL     1     141.099  75.513 221.505 -0.30 -0.03    +0.111 A  
DOCKED: ENDBRANCH  13  14
DOCKED: ENDBRANCH  12  13
DOCKED: ENDBRANCH   1  12
DOCKED: BRANCH  11  20
DOCKED: ATOM     20  C   UNL     1     138.761  68.006 222.957 -0.19 -0.03    +0.163 C  
DOCKED: BRANCH  20  21
DOCKED: ATOM     21  C   UNL     1     137.265  68.131 222.781 -0.14 +0.00    -0.028 A  
DOCKED: ATOM     22  C   UNL     1     136.523  69.003 223.604 -0.18 -0.00    +0.005 A  
DOCKED: ATOM     23  C   UNL     1     136.598  67.404 221.779 -0.14 -0.00    +0.005 A  
DOCKED: ATOM     24  C   UNL     1     135.139  69.117 223.446 -0.14 -0.00    +0.000 A  
DOCKED: ATOM     25  C   UNL     1     135.214  67.533 221.615 -0.10 -0.00    +0.000 A  
DOCKED: ATOM     26  C   UNL     1     134.486  68.389 222.446 -0.09 -0.00    +0.000 A  
DOCKED: ENDBRANCH  20  21
DOCKED: ENDBRANCH  11  20
DOCKED: TORSDOF 5
DOCKED: TER
DOCKED: ENDMDL
________________________________________________________________________________


    FINAL DOCKED STATE:
    ________________________


Run:   14 / 20
Time taken for this run:   0.038s

DOCKED: MODEL        14
DOCKED: USER    Run = 14
DOCKED: USER
DOCKED: USER    Estimated Free Energy of Binding    =  -7.05 kcal/mol  [=(1)+(2)+(3)-(4)]
DOCKED: USER
DOCKED: USER    (1) Final Intermolecular Energy     =  -8.54 kcal/mol
DOCKED: USER        vdW + Hbond + desolv Energy     =  -8.49 kcal/mol
DOCKED: USER        Electrostatic Energy            =  -0.05 kcal/mol
DOCKED: USER        Moving Ligand-Fixed Receptor    =  -8.54 kcal/mol
DOCKED: USER        Moving Ligand-Moving Receptor   =  +0.00 kcal/mol
DOCKED: USER    (2) Final Total Internal Energy     =  -1.34 kcal/mol
DOCKED: USER    (3) Torsional Free Energy           =  +1.49 kcal/mol
DOCKED: USER    (4) Unbound System's Energy         =  -1.34 kcal/mol
DOCKED: USER
DOCKED: USER
DOCKED: REMARK SMILES O=c1c2ccccc2nc(/C=C/c2cccnc2)n1Cc1ccccc1
DOCKED: REMARK SMILES IDX 10 1 9 2 8 3 7 4 6 5 5 6 4 7 3 8 2 9 1 10 19 11 11 12 12 13
DOCKED: REMARK SMILES IDX 13 14 18 15 14 16 17 17 15 18 16 19 20 20 21 21 22 22 26 23
DOCKED: REMARK SMILES IDX 23 24 25 25 24 26
DOCKED: REMARK H PARENT
DOCKED: USER                              x       y       z     vdW  Elec       q    Type
DOCKED: USER                           _______ _______ _______ _____ _____    ______ ____
DOCKED: ROOT
DOCKED: ATOM      1  C   UNL     1     138.177  69.119 224.334 -0.26 -0.01    +0.136 A  
DOCKED: ATOM      2  N   UNL     1     138.502  68.288 225.358 -0.51 -0.00    -0.230 NA 
DOCKED: ATOM      3  C   UNL     1     139.398  68.646 226.307 -0.48 -0.01    +0.078 A  
DOCKED: ATOM      4  C   UNL     1     139.694  67.768 227.357 -0.51 -0.01    +0.029 A  
DOCKED: ATOM      5  C   UNL     1     140.621  68.136 228.336 -0.63 -0.00    +0.002 A  
DOCKED: ATOM      6  C   UNL     1     141.258  69.379 228.265 -0.52 -0.00    +0.001 A  
DOCKED: ATOM      7  C   UNL     1     140.966  70.261 227.218 -0.58 -0.00    +0.016 A  
DOCKED: ATOM      8  C   UNL     1     140.028  69.901 226.232 -0.46 -0.01    +0.066 A  
DOCKED: ATOM      9  C   UNL     1     139.686  70.757 225.170 -0.29 -0.05    +0.261 A  
DOCKED: ATOM     10  O   UNL     1     140.246  71.886 225.077 -0.34 +0.05    -0.269 OA 
DOCKED: ATOM     11  N   UNL     1     138.750  70.370 224.240 -0.16 +0.05    -0.288 N  
DOCKED: ENDROOT
DOCKED: BRANCH   1  12
DOCKED: ATOM     12  C   UNL     1     137.201  68.638 223.343 -0.13 -0.00    +0.048 C  
DOCKED: BRANCH  12  13
DOCKED: ATOM     13  C   UNL     1     135.982  69.190 223.276 -0.16 -0.00    +0.013 C  
DOCKED: BRANCH  13  14
DOCKED: ATOM     14  C   UNL     1     135.188  69.564 224.475 -0.21 +0.00    -0.007 A  
DOCKED: ATOM     15  C   UNL     1     134.629  68.615 225.356 -0.21 -0.00    +0.119 A  
DOCKED: ATOM     16  C   UNL     1     135.004  70.927 224.762 -0.19 -0.00    +0.011 A  
DOCKED: ATOM     17  N   UNL     1     133.961  69.021 226.468 -0.72 -0.01    -0.264 NA 
DOCKED: ATOM     18  C   UNL     1     134.321  71.317 225.915 -0.28 -0.00    +0.021 A  
DOCKED: ATOM     19  C   UNL     1     133.803  70.339 226.767 -0.29 -0.00    +0.111 A  
DOCKED: ENDBRANCH  13  14
DOCKED: ENDBRANCH  12  13
DOCKED: ENDBRANCH   1  12
DOCKED: BRANCH  11  20
DOCKED: ATOM     20  C   UNL     1     138.360  71.292 223.148 -0.18 -0.04    +0.163 C  
DOCKED: BRANCH  20  21
DOCKED: ATOM     21  C   UNL     1     139.561  71.730 222.343 -0.26 +0.01    -0.028 A  
DOCKED: ATOM     22  C   UNL     1     139.960  73.082 222.340 -0.29 -0.00    +0.005 A  
DOCKED: ATOM     23  C   UNL     1     140.311  70.795 221.608 -0.16 -0.00    +0.005 A  
DOCKED: ATOM     24  C   UNL     1     141.068  73.490 221.591 -0.30 -0.00    +0.000 A  
DOCKED: ATOM     25  C   UNL     1     141.428  71.206 220.872 -0.14 -0.00    +0.000 A  
DOCKED: ATOM     26  C   UNL     1     141.807  72.551 220.866 -0.24 -0.00    +0.000 A  
DOCKED: ENDBRANCH  20  21
DOCKED: ENDBRANCH  11  20
DOCKED: TORSDOF 5
DOCKED: TER
DOCKED: ENDMDL
________________________________________________________________________________


    FINAL DOCKED STATE:
    ________________________


Run:   15 / 20
Time taken for this run:   0.038s

DOCKED: MODEL        15
DOCKED: USER    Run = 15
DOCKED: USER
DOCKED: USER    Estimated Free Energy of Binding    =  -7.17 kcal/mol  [=(1)+(2)+(3)-(4)]
DOCKED: USER
DOCKED: USER    (1) Final Intermolecular Energy     =  -8.66 kcal/mol
DOCKED: USER        vdW + Hbond + desolv Energy     =  -8.51 kcal/mol
DOCKED: USER        Electrostatic Energy            =  -0.15 kcal/mol
DOCKED: USER        Moving Ligand-Fixed Receptor    =  -8.66 kcal/mol
DOCKED: USER        Moving Ligand-Moving Receptor   =  +0.00 kcal/mol
DOCKED: USER    (2) Final Total Internal Energy     =  -1.33 kcal/mol
DOCKED: USER    (3) Torsional Free Energy           =  +1.49 kcal/mol
DOCKED: USER    (4) Unbound System's Energy         =  -1.33 kcal/mol
DOCKED: USER
DOCKED: USER
DOCKED: REMARK SMILES O=c1c2ccccc2nc(/C=C/c2cccnc2)n1Cc1ccccc1
DOCKED: REMARK SMILES IDX 10 1 9 2 8 3 7 4 6 5 5 6 4 7 3 8 2 9 1 10 19 11 11 12 12 13
DOCKED: REMARK SMILES IDX 13 14 18 15 14 16 17 17 15 18 16 19 20 20 21 21 22 22 26 23
DOCKED: REMARK SMILES IDX 23 24 25 25 24 26
DOCKED: REMARK H PARENT
DOCKED: USER                              x       y       z     vdW  Elec       q    Type
DOCKED: USER                           _______ _______ _______ _____ _____    ______ ____
DOCKED: ROOT
DOCKED: ATOM      1  C   UNL     1     141.656  75.360 220.652 -0.24 -0.05    +0.136 A  
DOCKED: ATOM      2  N   UNL     1     141.839  74.028 220.841 -0.18 +0.05    -0.230 NA 
DOCKED: ATOM      3  C   UNL     1     140.873  73.248 221.380 -0.25 -0.01    +0.078 A  
DOCKED: ATOM      4  C   UNL     1     141.093  71.874 221.543 -0.23 -0.00    +0.029 A  
DOCKED: ATOM      5  C   UNL     1     140.096  71.068 222.101 -0.22 -0.00    +0.002 A  
DOCKED: ATOM      6  C   UNL     1     138.882  71.633 222.504 -0.23 -0.00    +0.001 A  
DOCKED: ATOM      7  C   UNL     1     138.657  73.005 222.343 -0.11 -0.01    +0.016 A  
DOCKED: ATOM      8  C   UNL     1     139.652  73.823 221.774 -0.25 -0.01    +0.066 A  
DOCKED: ATOM      9  C   UNL     1     139.469  75.203 221.574 -0.19 -0.05    +0.261 A  
DOCKED: ATOM     10  O   UNL     1     138.384  75.743 221.930 -0.18 +0.06    -0.269 OA 
DOCKED: ATOM     11  N   UNL     1     140.463  75.959 220.998 -0.13 +0.08    -0.288 N  
DOCKED: ENDROOT
DOCKED: BRANCH   1  12
DOCKED: ATOM     12  C   UNL     1     142.768  76.129 220.069 -0.25 -0.03    +0.048 C  
DOCKED: BRANCH  12  13
DOCKED: ATOM     13  C   UNL     1     143.597  75.553 219.190 -0.33 -0.01    +0.013 C  
DOCKED: BRANCH  13  14
DOCKED: ATOM     14  C   UNL     1     144.453  74.383 219.519 -0.30 +0.00    -0.007 A  
DOCKED: ATOM     15  C   UNL     1     144.767  73.373 218.587 -0.20 -0.00    +0.119 A  
DOCKED: ATOM     16  C   UNL     1     144.997  74.289 220.811 -0.47 -0.00    +0.011 A  
DOCKED: ATOM     17  N   UNL     1     145.604  72.358 218.931 -0.66 -0.17    -0.264 NA 
DOCKED: ATOM     18  C   UNL     1     145.858  73.242 221.137 -0.68 -0.00    +0.021 A  
DOCKED: ATOM     19  C   UNL     1     146.155  72.275 220.173 -0.28 +0.05    +0.111 A  
DOCKED: ENDBRANCH  13  14
DOCKED: ENDBRANCH  12  13
DOCKED: ENDBRANCH   1  12
DOCKED: BRANCH  11  20
DOCKED: ATOM     20  C   UNL     1     140.250  77.403 220.749 -0.15 -0.05    +0.163 C  
DOCKED: BRANCH  20  21
DOCKED: ATOM     21  C   UNL     1     141.050  78.251 221.710 -0.35 +0.01    -0.028 A  
DOCKED: ATOM     22  C   UNL     1     141.749  79.384 221.247 -0.38 -0.00    +0.005 A  
DOCKED: ATOM     23  C   UNL     1     141.085  77.940 223.081 -0.47 -0.00    +0.005 A  
DOCKED: ATOM     24  C   UNL     1     142.493  80.167 222.134 -0.53 -0.00    +0.000 A  
DOCKED: ATOM     25  C   UNL     1     141.819  78.736 223.968 -0.60 -0.00    +0.000 A  
DOCKED: ATOM     26  C   UNL     1     142.520  79.849 223.496 -0.65 -0.00    +0.000 A  
DOCKED: ENDBRANCH  20  21
DOCKED: ENDBRANCH  11  20
DOCKED: TORSDOF 5
DOCKED: TER
DOCKED: ENDMDL
________________________________________________________________________________


    FINAL DOCKED STATE:
    ________________________


Run:   16 / 20
Time taken for this run:   0.038s

DOCKED: MODEL        16
DOCKED: USER    Run = 16
DOCKED: USER
DOCKED: USER    Estimated Free Energy of Binding    =  -6.89 kcal/mol  [=(1)+(2)+(3)-(4)]
DOCKED: USER
DOCKED: USER    (1) Final Intermolecular Energy     =  -8.39 kcal/mol
DOCKED: USER        vdW + Hbond + desolv Energy     =  -8.34 kcal/mol
DOCKED: USER        Electrostatic Energy            =  -0.04 kcal/mol
DOCKED: USER        Moving Ligand-Fixed Receptor    =  -8.39 kcal/mol
DOCKED: USER        Moving Ligand-Moving Receptor   =  +0.00 kcal/mol
DOCKED: USER    (2) Final Total Internal Energy     =  -1.40 kcal/mol
DOCKED: USER    (3) Torsional Free Energy           =  +1.49 kcal/mol
DOCKED: USER    (4) Unbound System's Energy         =  -1.40 kcal/mol
DOCKED: USER
DOCKED: USER
DOCKED: REMARK SMILES O=c1c2ccccc2nc(/C=C/c2cccnc2)n1Cc1ccccc1
DOCKED: REMARK SMILES IDX 10 1 9 2 8 3 7 4 6 5 5 6 4 7 3 8 2 9 1 10 19 11 11 12 12 13
DOCKED: REMARK SMILES IDX 13 14 18 15 14 16 17 17 15 18 16 19 20 20 21 21 22 22 26 23
DOCKED: REMARK SMILES IDX 23 24 25 25 24 26
DOCKED: REMARK H PARENT
DOCKED: USER                              x       y       z     vdW  Elec       q    Type
DOCKED: USER                           _______ _______ _______ _____ _____    ______ ____
DOCKED: ROOT
DOCKED: ATOM      1  C   UNL     1     138.180  69.350 223.945 -0.23 -0.02    +0.136 A  
DOCKED: ATOM      2  N   UNL     1     138.447  68.470 224.944 -0.44 +0.00    -0.230 NA 
DOCKED: ATOM      3  C   UNL     1     139.321  68.763 225.934 -0.44 -0.01    +0.078 A  
DOCKED: ATOM      4  C   UNL     1     139.559  67.835 226.956 -0.59 -0.00    +0.029 A  
DOCKED: ATOM      5  C   UNL     1     140.463  68.137 227.979 -0.65 -0.00    +0.002 A  
DOCKED: ATOM      6  C   UNL     1     141.137  69.362 227.979 -0.57 -0.00    +0.001 A  
DOCKED: ATOM      7  C   UNL     1     140.903  70.294 226.961 -0.58 -0.00    +0.016 A  
DOCKED: ATOM      8  C   UNL     1     139.989  70.001 225.931 -0.45 -0.01    +0.066 A  
DOCKED: ATOM      9  C   UNL     1     139.706  70.909 224.894 -0.29 -0.05    +0.261 A  
DOCKED: ATOM     10  O   UNL     1     140.301  72.023 224.866 -0.26 +0.05    -0.269 OA 
DOCKED: ATOM     11  N   UNL     1     138.790  70.586 223.920 -0.16 +0.06    -0.288 N  
DOCKED: ENDROOT
DOCKED: BRANCH   1  12
DOCKED: ATOM     12  C   UNL     1     137.223  68.938 222.905 -0.17 -0.01    +0.048 C  
DOCKED: BRANCH  12  13
DOCKED: ATOM     13  C   UNL     1     135.959  68.644 223.232 -0.10 -0.00    +0.013 C  
DOCKED: BRANCH  13  14
DOCKED: ATOM     14  C   UNL     1     135.236  69.286 224.361 -0.21 +0.00    -0.007 A  
DOCKED: ATOM     15  C   UNL     1     134.578  68.553 225.370 -0.21 -0.00    +0.119 A  
DOCKED: ATOM     16  C   UNL     1     135.227  70.688 224.443 -0.19 -0.00    +0.011 A  
DOCKED: ATOM     17  N   UNL     1     133.984  69.197 226.409 -0.68 -0.01    -0.264 NA 
DOCKED: ATOM     18  C   UNL     1     134.616  71.324 225.524 -0.19 -0.00    +0.021 A  
DOCKED: ATOM     19  C   UNL     1     133.994  70.554 226.509 -0.32 -0.01    +0.111 A  
DOCKED: ENDBRANCH  13  14
DOCKED: ENDBRANCH  12  13
DOCKED: ENDBRANCH   1  12
DOCKED: BRANCH  11  20
DOCKED: ATOM     20  C   UNL     1     138.463  71.562 222.855 -0.17 -0.04    +0.163 C  
DOCKED: BRANCH  20  21
DOCKED: ATOM     21  C   UNL     1     139.707  72.039 222.143 -0.26 +0.00    -0.028 A  
DOCKED: ATOM     22  C   UNL     1     139.941  73.417 221.967 -0.29 -0.00    +0.005 A  
DOCKED: ATOM     23  C   UNL     1     140.660  71.118 221.672 -0.16 -0.00    +0.005 A  
DOCKED: ATOM     24  C   UNL     1     141.090  73.860 221.304 -0.29 -0.00    +0.000 A  
DOCKED: ATOM     25  C   UNL     1     141.815  71.567 221.022 -0.18 -0.00    +0.000 A  
DOCKED: ATOM     26  C   UNL     1     142.031  72.936 220.841 -0.26 -0.00    +0.000 A  
DOCKED: ENDBRANCH  20  21
DOCKED: ENDBRANCH  11  20
DOCKED: TORSDOF 5
DOCKED: TER
DOCKED: ENDMDL
________________________________________________________________________________


    FINAL DOCKED STATE:
    ________________________


Run:   17 / 20
Time taken for this run:   0.038s

DOCKED: MODEL        17
DOCKED: USER    Run = 17
DOCKED: USER
DOCKED: USER    Estimated Free Energy of Binding    =  -6.48 kcal/mol  [=(1)+(2)+(3)-(4)]
DOCKED: USER
DOCKED: USER    (1) Final Intermolecular Energy     =  -7.97 kcal/mol
DOCKED: USER        vdW + Hbond + desolv Energy     =  -7.94 kcal/mol
DOCKED: USER        Electrostatic Energy            =  -0.03 kcal/mol
DOCKED: USER        Moving Ligand-Fixed Receptor    =  -7.97 kcal/mol
DOCKED: USER        Moving Ligand-Moving Receptor   =  +0.00 kcal/mol
DOCKED: USER    (2) Final Total Internal Energy     =  -1.85 kcal/mol
DOCKED: USER    (3) Torsional Free Energy           =  +1.49 kcal/mol
DOCKED: USER    (4) Unbound System's Energy         =  -1.85 kcal/mol
DOCKED: USER
DOCKED: USER
DOCKED: REMARK SMILES O=c1c2ccccc2nc(/C=C/c2cccnc2)n1Cc1ccccc1
DOCKED: REMARK SMILES IDX 10 1 9 2 8 3 7 4 6 5 5 6 4 7 3 8 2 9 1 10 19 11 11 12 12 13
DOCKED: REMARK SMILES IDX 13 14 18 15 14 16 17 17 15 18 16 19 20 20 21 21 22 22 26 23
DOCKED: REMARK SMILES IDX 23 24 25 25 24 26
DOCKED: REMARK H PARENT
DOCKED: USER                              x       y       z     vdW  Elec       q    Type
DOCKED: USER                           _______ _______ _______ _____ _____    ______ ____
DOCKED: ROOT
DOCKED: ATOM      1  C   UNL     1     140.913  77.430 220.161 -0.16 -0.06    +0.136 A  
DOCKED: ATOM      2  N   UNL     1     142.157  77.039 219.781 -0.19 +0.14    -0.230 NA 
DOCKED: ATOM      3  C   UNL     1     142.645  75.817 220.097 -0.29 -0.04    +0.078 A  
DOCKED: ATOM      4  C   UNL     1     143.926  75.444 219.674 -0.35 -0.02    +0.029 A  
DOCKED: ATOM      5  C   UNL     1     144.431  74.182 220.001 -0.45 -0.00    +0.002 A  
DOCKED: ATOM      6  C   UNL     1     143.661  73.294 220.759 -0.34 -0.00    +0.001 A  
DOCKED: ATOM      7  C   UNL     1     142.379  73.662 221.185 -0.08 -0.00    +0.016 A  
DOCKED: ATOM      8  C   UNL     1     141.860  74.927 220.853 -0.28 -0.02    +0.066 A  
DOCKED: ATOM      9  C   UNL     1     140.572  75.339 221.241 -0.20 -0.06    +0.261 A  
DOCKED: ATOM     10  O   UNL     1     139.853  74.560 221.929 -0.72 +0.03    -0.269 OA 
DOCKED: ATOM     11  N   UNL     1     140.100  76.578 220.877 -0.09 +0.08    -0.288 N  
DOCKED: ENDROOT
DOCKED: BRANCH   1  12
DOCKED: ATOM     12  C   UNL     1     140.473  78.782 219.780 -0.14 -0.02    +0.048 C  
DOCKED: BRANCH  12  13
DOCKED: ATOM     13  C   UNL     1     141.300  79.825 219.927 -0.26 -0.01    +0.013 C  
DOCKED: BRANCH  13  14
DOCKED: ATOM     14  C   UNL     1     141.747  80.334 221.250 -0.39 +0.00    -0.007 A  
DOCKED: ATOM     15  C   UNL     1     141.375  81.596 221.755 -0.34 -0.03    +0.119 A  
DOCKED: ATOM     16  C   UNL     1     142.559  79.510 222.047 -0.39 -0.01    +0.011 A  
DOCKED: ATOM     17  N   UNL     1     141.770  81.981 222.998 -0.23 +0.03    -0.264 NA 
DOCKED: ATOM     18  C   UNL     1     142.944  79.925 223.322 -0.60 -0.01    +0.021 A  
DOCKED: ATOM     19  C   UNL     1     142.534  81.177 223.787 -0.54 -0.02    +0.111 A  
DOCKED: ENDBRANCH  13  14
DOCKED: ENDBRANCH  12  13
DOCKED: ENDBRANCH   1  12
DOCKED: BRANCH  11  20
DOCKED: ATOM     20  C   UNL     1     138.727  76.990 221.251 -0.13 -0.04    +0.163 C  
DOCKED: BRANCH  20  21
DOCKED: ATOM     21  C   UNL     1     138.744  78.161 222.205 -0.24 +0.01    -0.028 A  
DOCKED: ATOM     22  C   UNL     1     139.804  78.318 223.120 -0.29 -0.00    +0.005 A  
DOCKED: ATOM     23  C   UNL     1     137.719  79.124 222.176 -0.17 -0.00    +0.005 A  
DOCKED: ATOM     24  C   UNL     1     139.819  79.398 224.008 -0.38 -0.00    +0.000 A  
DOCKED: ATOM     25  C   UNL     1     137.747  80.212 223.055 -0.25 -0.00    +0.000 A  
DOCKED: ATOM     26  C   UNL     1     138.796  80.350 223.968 -0.41 -0.00    +0.000 A  
DOCKED: ENDBRANCH  20  21
DOCKED: ENDBRANCH  11  20
DOCKED: TORSDOF 5
DOCKED: TER
DOCKED: ENDMDL
________________________________________________________________________________


    FINAL DOCKED STATE:
    ________________________


Run:   18 / 20
Time taken for this run:   0.038s

DOCKED: MODEL        18
DOCKED: USER    Run = 18
DOCKED: USER
DOCKED: USER    Estimated Free Energy of Binding    =  -6.77 kcal/mol  [=(1)+(2)+(3)-(4)]
DOCKED: USER
DOCKED: USER    (1) Final Intermolecular Energy     =  -8.26 kcal/mol
DOCKED: USER        vdW + Hbond + desolv Energy     =  -8.21 kcal/mol
DOCKED: USER        Electrostatic Energy            =  -0.05 kcal/mol
DOCKED: USER        Moving Ligand-Fixed Receptor    =  -8.26 kcal/mol
DOCKED: USER        Moving Ligand-Moving Receptor   =  +0.00 kcal/mol
DOCKED: USER    (2) Final Total Internal Energy     =  -1.51 kcal/mol
DOCKED: USER    (3) Torsional Free Energy           =  +1.49 kcal/mol
DOCKED: USER    (4) Unbound System's Energy         =  -1.51 kcal/mol
DOCKED: USER
DOCKED: USER
DOCKED: REMARK SMILES O=c1c2ccccc2nc(/C=C/c2cccnc2)n1Cc1ccccc1
DOCKED: REMARK SMILES IDX 10 1 9 2 8 3 7 4 6 5 5 6 4 7 3 8 2 9 1 10 19 11 11 12 12 13
DOCKED: REMARK SMILES IDX 13 14 18 15 14 16 17 17 15 18 16 19 20 20 21 21 22 22 26 23
DOCKED: REMARK SMILES IDX 23 24 25 25 24 26
DOCKED: REMARK H PARENT
DOCKED: USER                              x       y       z     vdW  Elec       q    Type
DOCKED: USER                           _______ _______ _______ _____ _____    ______ ____
DOCKED: ROOT
DOCKED: ATOM      1  C   UNL     1     138.556  70.183 223.906 -0.24 -0.02    +0.136 A  
DOCKED: ATOM      2  N   UNL     1     139.122  71.027 224.807 -0.22 +0.05    -0.230 NA 
DOCKED: ATOM      3  C   UNL     1     139.794  70.567 225.888 -0.41 -0.01    +0.078 A  
DOCKED: ATOM      4  C   UNL     1     140.378  71.469 226.786 -0.62 -0.01    +0.029 A  
DOCKED: ATOM      5  C   UNL     1     141.071  70.994 227.903 -0.72 -0.00    +0.002 A  
DOCKED: ATOM      6  C   UNL     1     141.174  69.618 228.131 -0.54 -0.00    +0.001 A  
DOCKED: ATOM      7  C   UNL     1     140.592  68.711 227.237 -0.63 -0.00    +0.016 A  
DOCKED: ATOM      8  C   UNL     1     139.900  69.181 226.104 -0.46 -0.01    +0.066 A  
DOCKED: ATOM      9  C   UNL     1     139.312  68.313 225.167 -0.28 -0.03    +0.261 A  
DOCKED: ATOM     10  O   UNL     1     139.386  67.064 225.346 -0.80 -0.02    -0.269 OA 
DOCKED: ATOM     11  N   UNL     1     138.661  68.817 224.065 -0.16 +0.03    -0.288 N  
DOCKED: ENDROOT
DOCKED: BRANCH   1  12
DOCKED: ATOM     12  C   UNL     1     137.836  70.776 222.768 -0.17 -0.01    +0.048 C  
DOCKED: BRANCH  12  13
DOCKED: ATOM     13  C   UNL     1     136.503  70.901 222.805 -0.13 -0.00    +0.013 C  
DOCKED: BRANCH  13  14
DOCKED: ATOM     14  C   UNL     1     135.634  70.106 223.712 -0.16 +0.00    -0.007 A  
DOCKED: ATOM     15  C   UNL     1     135.103  68.848 223.362 -0.12 -0.01    +0.119 A  
DOCKED: ATOM     16  C   UNL     1     135.345  70.619 224.987 -0.18 -0.00    +0.011 A  
DOCKED: ATOM     17  N   UNL     1     134.362  68.143 224.257 -0.70 +0.01    -0.264 NA 
DOCKED: ATOM     18  C   UNL     1     134.588  69.872 225.890 -0.29 -0.00    +0.021 A  
DOCKED: ATOM     19  C   UNL     1     134.100  68.621 225.504 -0.25 -0.01    +0.111 A  
DOCKED: ENDBRANCH  13  14
DOCKED: ENDBRANCH  12  13
DOCKED: ENDBRANCH   1  12
DOCKED: BRANCH  11  20
DOCKED: ATOM     20  C   UNL     1     138.082  67.899 223.058 -0.10 -0.02    +0.163 C  
DOCKED: BRANCH  20  21
DOCKED: ATOM     21  C   UNL     1     139.069  67.600 221.954 -0.19 +0.01    -0.028 A  
DOCKED: ATOM     22  C   UNL     1     139.399  66.267 221.637 -0.26 -0.00    +0.005 A  
DOCKED: ATOM     23  C   UNL     1     139.651  68.643 221.211 -0.13 -0.00    +0.005 A  
DOCKED: ATOM     24  C   UNL     1     140.316  65.988 220.619 -0.19 -0.00    +0.000 A  
DOCKED: ATOM     25  C   UNL     1     140.557  68.358 220.183 -0.13 -0.00    +0.000 A  
DOCKED: ATOM     26  C   UNL     1     140.887  67.033 219.886 -0.15 -0.00    +0.000 A  
DOCKED: ENDBRANCH  20  21
DOCKED: ENDBRANCH  11  20
DOCKED: TORSDOF 5
DOCKED: TER
DOCKED: ENDMDL
________________________________________________________________________________


    FINAL DOCKED STATE:
    ________________________


Run:   19 / 20
Time taken for this run:   0.038s

DOCKED: MODEL        19
DOCKED: USER    Run = 19
DOCKED: USER
DOCKED: USER    Estimated Free Energy of Binding    =  -7.16 kcal/mol  [=(1)+(2)+(3)-(4)]
DOCKED: USER
DOCKED: USER    (1) Final Intermolecular Energy     =  -8.65 kcal/mol
DOCKED: USER        vdW + Hbond + desolv Energy     =  -8.51 kcal/mol
DOCKED: USER        Electrostatic Energy            =  -0.15 kcal/mol
DOCKED: USER        Moving Ligand-Fixed Receptor    =  -8.65 kcal/mol
DOCKED: USER        Moving Ligand-Moving Receptor   =  +0.00 kcal/mol
DOCKED: USER    (2) Final Total Internal Energy     =  -1.33 kcal/mol
DOCKED: USER    (3) Torsional Free Energy           =  +1.49 kcal/mol
DOCKED: USER    (4) Unbound System's Energy         =  -1.33 kcal/mol
DOCKED: USER
DOCKED: USER
DOCKED: REMARK SMILES O=c1c2ccccc2nc(/C=C/c2cccnc2)n1Cc1ccccc1
DOCKED: REMARK SMILES IDX 10 1 9 2 8 3 7 4 6 5 5 6 4 7 3 8 2 9 1 10 19 11 11 12 12 13
DOCKED: REMARK SMILES IDX 13 14 18 15 14 16 17 17 15 18 16 19 20 20 21 21 22 22 26 23
DOCKED: REMARK SMILES IDX 23 24 25 25 24 26
DOCKED: REMARK H PARENT
DOCKED: USER                              x       y       z     vdW  Elec       q    Type
DOCKED: USER                           _______ _______ _______ _____ _____    ______ ____
DOCKED: ROOT
DOCKED: ATOM      1  C   UNL     1     141.659  75.373 220.643 -0.23 -0.05    +0.136 A  
DOCKED: ATOM      2  N   UNL     1     141.838  74.041 220.836 -0.18 +0.05    -0.230 NA 
DOCKED: ATOM      3  C   UNL     1     140.871  73.265 221.379 -0.25 -0.01    +0.078 A  
DOCKED: ATOM      4  C   UNL     1     141.088  71.892 221.547 -0.24 -0.00    +0.029 A  
DOCKED: ATOM      5  C   UNL     1     140.090  71.090 222.109 -0.22 -0.00    +0.002 A  
DOCKED: ATOM      6  C   UNL     1     138.877  71.660 222.511 -0.23 -0.00    +0.001 A  
DOCKED: ATOM      7  C   UNL     1     138.655  73.032 222.346 -0.10 -0.01    +0.016 A  
DOCKED: ATOM      8  C   UNL     1     139.652  73.845 221.773 -0.25 -0.01    +0.066 A  
DOCKED: ATOM      9  C   UNL     1     139.473  75.225 221.569 -0.19 -0.05    +0.261 A  
DOCKED: ATOM     10  O   UNL     1     138.389  75.769 221.924 -0.18 +0.06    -0.269 OA 
DOCKED: ATOM     11  N   UNL     1     140.468  75.976 220.989 -0.13 +0.08    -0.288 N  
DOCKED: ENDROOT
DOCKED: BRANCH   1  12
DOCKED: ATOM     12  C   UNL     1     142.772  76.138 220.057 -0.25 -0.03    +0.048 C  
DOCKED: BRANCH  12  13
DOCKED: ATOM     13  C   UNL     1     143.592  75.559 219.171 -0.33 -0.01    +0.013 C  
DOCKED: BRANCH  13  14
DOCKED: ATOM     14  C   UNL     1     144.450  74.389 219.494 -0.30 +0.00    -0.007 A  
DOCKED: ATOM     15  C   UNL     1     144.764  73.383 218.558 -0.20 -0.00    +0.119 A  
DOCKED: ATOM     16  C   UNL     1     144.996  74.291 220.785 -0.48 -0.00    +0.011 A  
DOCKED: ATOM     17  N   UNL     1     145.602  72.368 218.897 -0.66 -0.17    -0.264 NA 
DOCKED: ATOM     18  C   UNL     1     145.859  73.244 221.105 -0.68 -0.00    +0.021 A  
DOCKED: ATOM     19  C   UNL     1     146.156  72.281 220.137 -0.29 +0.05    +0.111 A  
DOCKED: ENDBRANCH  13  14
DOCKED: ENDBRANCH  12  13
DOCKED: ENDBRANCH   1  12
DOCKED: BRANCH  11  20
DOCKED: ATOM     20  C   UNL     1     140.258  77.420 220.736 -0.15 -0.05    +0.163 C  
DOCKED: BRANCH  20  21
DOCKED: ATOM     21  C   UNL     1     141.044  78.270 221.707 -0.35 +0.01    -0.028 A  
DOCKED: ATOM     22  C   UNL     1     141.098  77.923 223.072 -0.47 -0.00    +0.005 A  
DOCKED: ATOM     23  C   UNL     1     141.753  79.399 221.261 -0.38 -0.00    +0.005 A  
DOCKED: ATOM     24  C   UNL     1     141.820  78.711 223.974 -0.60 -0.00    +0.000 A  
DOCKED: ATOM     25  C   UNL     1     142.487  80.175 222.164 -0.53 -0.00    +0.000 A  
DOCKED: ATOM     26  C   UNL     1     142.522  79.831 223.518 -0.64 -0.00    +0.000 A  
DOCKED: ENDBRANCH  20  21
DOCKED: ENDBRANCH  11  20
DOCKED: TORSDOF 5
DOCKED: TER
DOCKED: ENDMDL
________________________________________________________________________________


    FINAL DOCKED STATE:
    ________________________


Run:   20 / 20
Time taken for this run:   0.038s

DOCKED: MODEL        20
DOCKED: USER    Run = 20
DOCKED: USER
DOCKED: USER    Estimated Free Energy of Binding    =  -6.43 kcal/mol  [=(1)+(2)+(3)-(4)]
DOCKED: USER
DOCKED: USER    (1) Final Intermolecular Energy     =  -7.93 kcal/mol
DOCKED: USER        vdW + Hbond + desolv Energy     =  -7.90 kcal/mol
DOCKED: USER        Electrostatic Energy            =  -0.02 kcal/mol
DOCKED: USER        Moving Ligand-Fixed Receptor    =  -7.93 kcal/mol
DOCKED: USER        Moving Ligand-Moving Receptor   =  +0.00 kcal/mol
DOCKED: USER    (2) Final Total Internal Energy     =  -1.90 kcal/mol
DOCKED: USER    (3) Torsional Free Energy           =  +1.49 kcal/mol
DOCKED: USER    (4) Unbound System's Energy         =  -1.90 kcal/mol
DOCKED: USER
DOCKED: USER
DOCKED: REMARK SMILES O=c1c2ccccc2nc(/C=C/c2cccnc2)n1Cc1ccccc1
DOCKED: REMARK SMILES IDX 10 1 9 2 8 3 7 4 6 5 5 6 4 7 3 8 2 9 1 10 19 11 11 12 12 13
DOCKED: REMARK SMILES IDX 13 14 18 15 14 16 17 17 15 18 16 19 20 20 21 21 22 22 26 23
DOCKED: REMARK SMILES IDX 23 24 25 25 24 26
DOCKED: REMARK H PARENT
DOCKED: USER                              x       y       z     vdW  Elec       q    Type
DOCKED: USER                           _______ _______ _______ _____ _____    ______ ____
DOCKED: ROOT
DOCKED: ATOM      1  C   UNL     1     140.998  77.393 220.122 -0.17 -0.06    +0.136 A  
DOCKED: ATOM      2  N   UNL     1     142.239  76.968 219.770 -0.19 +0.14    -0.230 NA 
DOCKED: ATOM      3  C   UNL     1     142.692  75.738 220.109 -0.28 -0.04    +0.078 A  
DOCKED: ATOM      4  C   UNL     1     143.972  75.329 219.714 -0.36 -0.02    +0.029 A  
DOCKED: ATOM      5  C   UNL     1     144.440  74.060 220.066 -0.46 -0.00    +0.002 A  
DOCKED: ATOM      6  C   UNL     1     143.635  73.200 220.819 -0.33 -0.00    +0.001 A  
DOCKED: ATOM      7  C   UNL     1     142.355  73.603 221.217 -0.08 -0.00    +0.016 A  
DOCKED: ATOM      8  C   UNL     1     141.872  74.876 220.860 -0.28 -0.02    +0.066 A  
DOCKED: ATOM      9  C   UNL     1     140.588  75.323 221.220 -0.20 -0.06    +0.261 A  
DOCKED: ATOM     10  O   UNL     1     139.837  74.569 221.903 -0.69 +0.04    -0.269 OA 
DOCKED: ATOM     11  N   UNL     1     140.152  76.569 220.833 -0.09 +0.09    -0.288 N  
DOCKED: ENDROOT
DOCKED: BRANCH   1  12
DOCKED: ATOM     12  C   UNL     1     140.598  78.750 219.718 -0.15 -0.02    +0.048 C  
DOCKED: BRANCH  12  13
DOCKED: ATOM     13  C   UNL     1     141.435  79.780 219.896 -0.28 -0.01    +0.013 C  
DOCKED: BRANCH  13  14
DOCKED: ATOM     14  C   UNL     1     141.818  80.300 221.235 -0.40 +0.00    -0.007 A  
DOCKED: ATOM     15  C   UNL     1     141.440  81.576 221.701 -0.34 -0.03    +0.119 A  
DOCKED: ATOM     16  C   UNL     1     142.570  79.475 222.087 -0.40 -0.01    +0.011 A  
DOCKED: ATOM     17  N   UNL     1     141.771  81.972 222.959 -0.23 +0.03    -0.264 NA 
DOCKED: ATOM     18  C   UNL     1     142.890  79.903 223.376 -0.59 -0.01    +0.021 A  
DOCKED: ATOM     19  C   UNL     1     142.477  81.167 223.800 -0.54 -0.02    +0.111 A  
DOCKED: ENDBRANCH  13  14
DOCKED: ENDBRANCH  12  13
DOCKED: ENDBRANCH   1  12
DOCKED: BRANCH  11  20
DOCKED: ATOM     20  C   UNL     1     138.783  77.017 221.176 -0.13 -0.04    +0.163 C  
DOCKED: BRANCH  20  21
DOCKED: ATOM     21  C   UNL     1     138.811  78.210 222.104 -0.23 +0.01    -0.028 A  
DOCKED: ATOM     22  C   UNL     1     137.865  79.245 221.959 -0.16 -0.00    +0.005 A  
DOCKED: ATOM     23  C   UNL     1     139.760  78.291 223.137 -0.26 -0.00    +0.005 A  
DOCKED: ATOM     24  C   UNL     1     137.892  80.352 222.814 -0.23 -0.00    +0.000 A  
DOCKED: ATOM     25  C   UNL     1     139.774  79.393 224.000 -0.38 -0.00    +0.000 A  
DOCKED: ATOM     26  C   UNL     1     138.840  80.421 223.840 -0.42 -0.00    +0.000 A  
DOCKED: ENDBRANCH  20  21
DOCKED: ENDBRANCH  11  20
DOCKED: TORSDOF 5
DOCKED: TER
DOCKED: ENDMDL
________________________________________________________________________________


    CLUSTERING HISTOGRAM
    ____________________


________________________________________________________________________________
     |           |     |           |     |
Clus | Lowest    | Run | Mean      | Num | Histogram
-ter | Binding   |     | Binding   | in  |
Rank | Energy    |     | Energy    | Clus|    5    10   15   20   25   30   35
_____|___________|_____|___________|_____|____:____|____:____|____:____|____:___
   1 |     -7.29 |  13 |     -7.27 |   3 |###
   2 |     -7.17 |  15 |     -7.16 |   7 |#######
   3 |     -7.05 |  14 |     -6.86 |   4 |####
   4 |     -6.77 |  18 |     -6.77 |   1 |#
   5 |     -6.48 |  17 |     -6.44 |   5 |#####
_____|___________|_____|___________|_____|______________________________________


    RMSD TABLE
    __________


_______________________________________________________________________
     |      |      |           |         |                 |
Rank | Sub- | Run  | Binding   | Cluster | Reference       | Grep
     | Rank |      | Energy    | RMSD    | RMSD            | Pattern
_____|______|______|___________|_________|_________________|___________
   1      1     13       -7.29      0.00    269.34           RANKING
   1      2      7       -7.27      0.09    269.38           RANKING
   1      3      3       -7.23      0.15    269.38           RANKING
   2      1     15       -7.17      0.00    269.96           RANKING
   2      2     19       -7.16      0.02    269.96           RANKING
   2      3      2       -7.16      0.05    269.98           RANKING
   2      4     12       -7.16      0.06    269.97           RANKING
   2      5      5       -7.16      0.03    269.97           RANKING
   2      6      9       -7.15      0.03    269.97           RANKING
   2      7      6       -7.14      0.07    269.98           RANKING
   3      1     14       -7.05      0.00    269.68           RANKING
   3      2     16       -6.89      0.41    269.54           RANKING
   3      3     10       -6.87      0.41    269.55           RANKING
   3      4      1       -6.62      1.52    269.45           RANKING
   4      1     18       -6.77      0.00    268.94           RANKING
   5      1     17       -6.48      0.00    270.53           RANKING
   5      2      8       -6.47      0.04    270.54           RANKING
   5      3     20       -6.43      0.12    270.52           RANKING
   5      4      4       -6.40      0.09    270.54           RANKING
   5      5     11       -6.40      0.17    270.57           RANKING

Run time 0.712 sec
Idle time 0.000 sec
