AutoDock-GPU version: v1.6

**********************************************************
**    AutoDock-GPU AUTODOCKTOOLS-COMPATIBLE DLG FILE    **
**********************************************************


    DOCKING PARAMETERS
    ________________________


Ligand file:                               /home/a/REINVENT4/ReinventStudies/scoringData/graph-dock-h4r84i/graph-DockGPU/node-autodockgpu/inputs/HDANWICVGDYKAH-QCKAFINTNA-M.pdbqt
Grid fld file:                             /home/a/REINVENT4/ReinventStudies/mols/Rad51/maps/rad51_receptor.maps.fld

Random seed:                               42
Number of runs:                            20
Number of energy evaluations:              1132076
Number of generations:                     42000
Size of population:                        150
Rate of crossover:                         80.000000%
Tournament selection probability limit:    60.000000%
Rate of mutation:                          2.000000%
Maximal allowed delta movement:            +/- 6.000000A
Maximal allowed delta angle:               +/- 90.000000

Rate of local search:                      100.000000%
Maximal number of local search iterations: 300
Rho lower bound:                           0.010000
Spread of local search delta movement:     2.000000A
Spread of local search delta angle:        74.999999
Limit of consecutive successes/failures:   4

Handle symmetry during clustering:         YES
RMSD tolerance:                            2.000000A

Program call in command line was:          /home/a/REINVENT4/ReinventStudies/adgpu-v1.6_linux_x64_cuda12_128wi --filelist batch.txt --heuristics 1 --nrun 20 --psize 150 --lsit 300 --seed 42 --heurmax 12000000 


    GRID PARAMETERS
    ________________________


Receptor name:                             rad51_receptor
Number of grid points (x, y, z):           53, 53, 53
Grid center (x, y, z):                     139.950000, 75.640000, 221.970000A
Grid size (x, y, z):                       19.500000, 19.500000, 19.500000A
Grid spacing:                              0.375000A


    LIGAND PARAMETERS
    ________________________


Ligand name:                               /home/a/REINVENT4/ReinventStudies/scoringData/graph-dock-h4r84i/graph-DockGPU/node-autodockgpu/inputs/HDANWICVGDYKAH-QCKAFINTNA-M
Number of atoms:                           29
Number of rotatable bonds:                 6
Number of atom types:                      6


    DUMMY DATA (only for ADT-compatibility)
    ________________________


DPF> outlev 1
DPF> ga_run 20
DPF> fld /home/a/REINVENT4/ReinventStudies/mols/Rad51/maps/rad51_receptor.maps.fld
DPF> move /home/a/REINVENT4/ReinventStudies/scoringData/graph-dock-h4r84i/graph-DockGPU/node-autodockgpu/inputs/HDANWICVGDYKAH-QCKAFINTNA-M.pdbqt


    COUNTER STATES
    ________________________


Number of energy evaluations performed:    744170
Number of generations used:                35


    INPUT LIGAND PDBQT FILE:
    ________________________


INPUT-LIGAND-PDBQT: REMARK SMILES [H]/N=c1/nc2nc3ccccn3c(O)c-2cc1C(=O)[N-][C@@H](C)c1ccccc1
INPUT-LIGAND-PDBQT: REMARK SMILES IDX 18 1 19 2 17 3 3 4 4 5 5 6 16 7 6 8 15 9 7 10 13 11 8 12
INPUT-LIGAND-PDBQT: REMARK SMILES IDX 12 13 9 14 11 15 10 16 2 17 1 18 14 19 20 21 21 22 22 23
INPUT-LIGAND-PDBQT: REMARK SMILES IDX 23 24 24 25 28 26 25 27 27 28 26 29
INPUT-LIGAND-PDBQT: REMARK H PARENT 14 20
INPUT-LIGAND-PDBQT: ROOT
INPUT-LIGAND-PDBQT: ATOM      1  C   UNL     1       1.407   0.817   2.298  1.00  0.00     0.086 C 
INPUT-LIGAND-PDBQT: ATOM      2  O   UNL     1       1.237   1.334   3.435  1.00  0.00    -0.315 OA
INPUT-LIGAND-PDBQT: ENDROOT
INPUT-LIGAND-PDBQT: BRANCH   1   3
INPUT-LIGAND-PDBQT: ATOM      3  C   UNL     1       0.645  -0.389   1.903  1.00  0.00     0.044 A 
INPUT-LIGAND-PDBQT: ATOM      4  C   UNL     1       0.433  -1.490   2.779  1.00  0.00     0.156 A 
INPUT-LIGAND-PDBQT: ATOM      5  N   UNL     1      -0.343  -2.533   2.383  1.00  0.00    -0.209 NA
INPUT-LIGAND-PDBQT: ATOM      6  C   UNL     1      -0.919  -2.587   1.160  1.00  0.00     0.169 A 
INPUT-LIGAND-PDBQT: ATOM      7  C   UNL     1       0.085  -0.418   0.612  1.00  0.00     0.031 A 
INPUT-LIGAND-PDBQT: ATOM      8  N   UNL     1      -1.686  -3.641   0.816  1.00  0.00    -0.210 NA
INPUT-LIGAND-PDBQT: ATOM      9  C   UNL     1      -0.703  -1.500   0.196  1.00  0.00     0.081 A 
INPUT-LIGAND-PDBQT: ATOM     10  C   UNL     1      -2.268  -3.723  -0.407  1.00  0.00     0.141 A 
INPUT-LIGAND-PDBQT: ATOM     11  C   UNL     1      -1.316  -1.621  -1.070  1.00  0.00     0.208 A 
INPUT-LIGAND-PDBQT: ATOM     12  C   UNL     1      -3.054  -4.844  -0.697  1.00  0.00     0.048 A 
INPUT-LIGAND-PDBQT: ATOM     13  N   UNL     1      -2.090  -2.726  -1.349  1.00  0.00    -0.272 N 
INPUT-LIGAND-PDBQT: ATOM     14  C   UNL     1      -3.661  -4.956  -1.943  1.00  0.00     0.005 A 
INPUT-LIGAND-PDBQT: ATOM     15  C   UNL     1      -2.693  -2.844  -2.578  1.00  0.00     0.096 A 
INPUT-LIGAND-PDBQT: ATOM     16  C   UNL     1      -3.481  -3.954  -2.889  1.00  0.00     0.019 A 
INPUT-LIGAND-PDBQT: BRANCH   4  17
INPUT-LIGAND-PDBQT: ATOM     17  N   UNL     1       0.993  -1.561   3.948  1.00  0.00    -0.282 NA
INPUT-LIGAND-PDBQT: ATOM     18  H   UNL     1       1.641  -0.848   4.346  1.00  0.00     0.189 HD
INPUT-LIGAND-PDBQT: ENDBRANCH   4  17
INPUT-LIGAND-PDBQT: BRANCH  11  19
INPUT-LIGAND-PDBQT: ATOM     19  O   UNL     1      -1.152  -0.637  -2.055  1.00  0.00    -0.494 OA
INPUT-LIGAND-PDBQT: ATOM     20  H   UNL     1      -0.583   0.191  -1.954  1.00  0.00     0.295 HD
INPUT-LIGAND-PDBQT: ENDBRANCH  11  19
INPUT-LIGAND-PDBQT: ENDBRANCH   1   3
INPUT-LIGAND-PDBQT: BRANCH   1  21
INPUT-LIGAND-PDBQT: ATOM     21  N   UNL     1       2.292   1.434   1.356  1.00  0.00    -0.643 NA
INPUT-LIGAND-PDBQT: BRANCH  21  22
INPUT-LIGAND-PDBQT: ATOM     22  C   UNL     1       2.985   2.695   1.607  1.00  0.00    -0.079 C 
INPUT-LIGAND-PDBQT: ATOM     23  C   UNL     1       4.019   2.934   0.508  1.00  0.00    -0.008 C 
INPUT-LIGAND-PDBQT: BRANCH  22  24
INPUT-LIGAND-PDBQT: ATOM     24  C   UNL     1       1.998   3.841   1.661  1.00  0.00    -0.063 A 
INPUT-LIGAND-PDBQT: ATOM     25  C   UNL     1       1.008   3.987   0.671  1.00  0.00     0.002 A 
INPUT-LIGAND-PDBQT: ATOM     26  C   UNL     1       2.083   4.797   2.689  1.00  0.00     0.002 A 
INPUT-LIGAND-PDBQT: ATOM     27  C   UNL     1       0.111   5.057   0.722  1.00  0.00     0.000 A 
INPUT-LIGAND-PDBQT: ATOM     28  C   UNL     1       1.183   5.867   2.734  1.00  0.00     0.000 A 
INPUT-LIGAND-PDBQT: ATOM     29  C   UNL     1       0.197   5.995   1.753  1.00  0.00     0.000 A 
INPUT-LIGAND-PDBQT: ENDBRANCH  22  24
INPUT-LIGAND-PDBQT: ENDBRANCH  21  22
INPUT-LIGAND-PDBQT: ENDBRANCH   1  21
INPUT-LIGAND-PDBQT: TORSDOF 6


    FINAL DOCKED STATE:
    ________________________


Run:   1 / 20
Time taken for this run:   0.029s

DOCKED: MODEL        1
DOCKED: USER    Run = 1
DOCKED: USER
DOCKED: USER    Estimated Free Energy of Binding    =  -7.93 kcal/mol  [=(1)+(2)+(3)-(4)]
DOCKED: USER
DOCKED: USER    (1) Final Intermolecular Energy     =  -9.72 kcal/mol
DOCKED: USER        vdW + Hbond + desolv Energy     =  -9.69 kcal/mol
DOCKED: USER        Electrostatic Energy            =  -0.03 kcal/mol
DOCKED: USER        Moving Ligand-Fixed Receptor    =  -9.72 kcal/mol
DOCKED: USER        Moving Ligand-Moving Receptor   =  +0.00 kcal/mol
DOCKED: USER    (2) Final Total Internal Energy     =  -0.95 kcal/mol
DOCKED: USER    (3) Torsional Free Energy           =  +1.79 kcal/mol
DOCKED: USER    (4) Unbound System's Energy         =  -0.95 kcal/mol
DOCKED: USER
DOCKED: USER
DOCKED: REMARK SMILES [H]/N=c1/nc2nc3ccccn3c(O)c-2cc1C(=O)[N-][C@@H](C)c1ccccc1
DOCKED: REMARK SMILES IDX 18 1 19 2 17 3 3 4 4 5 5 6 16 7 6 8 15 9 7 10 13 11 8 12
DOCKED: REMARK SMILES IDX 12 13 9 14 11 15 10 16 2 17 1 18 14 19 20 21 21 22 22 23
DOCKED: REMARK SMILES IDX 23 24 24 25 28 26 25 27 27 28 26 29
DOCKED: REMARK H PARENT 14 20
DOCKED: USER                              x       y       z     vdW  Elec       q    Type
DOCKED: USER                           _______ _______ _______ _____ _____    ______ ____
DOCKED: ROOT
DOCKED: ATOM      1  C   UNL     1     135.694  69.500 224.578 -0.20 -0.01    +0.086 C  
DOCKED: ATOM      2  O   UNL     1     135.210  68.401 224.196 -0.54 -0.02    -0.315 OA 
DOCKED: ENDROOT
DOCKED: BRANCH   1   3
DOCKED: ATOM      3  C   UNL     1     134.840  70.496 225.263 -0.21 -0.00    +0.044 A  
DOCKED: ATOM      4  C   UNL     1     133.819  70.133 226.186 -0.25 -0.01    +0.156 A  
DOCKED: ATOM      5  N   UNL     1     133.122  71.098 226.842 -0.27 +0.02    -0.209 NA 
DOCKED: ATOM      6  C   UNL     1     133.342  72.417 226.640 -0.31 -0.01    +0.169 A  
DOCKED: ATOM      7  C   UNL     1     135.082  71.858 225.005 -0.12 -0.00    +0.031 A  
DOCKED: ATOM      8  N   UNL     1     132.629  73.337 227.321 -0.54 +0.02    -0.210 NA 
DOCKED: ATOM      9  C   UNL     1     134.355  72.855 225.670 -0.24 -0.00    +0.081 A  
DOCKED: ATOM     10  C   UNL     1     132.825  74.666 227.131 -0.31 +0.00    +0.141 A  
DOCKED: ATOM     11  C   UNL     1     134.527  74.245 225.490 -0.24 -0.00    +0.208 A  
DOCKED: ATOM     12  C   UNL     1     132.052  75.567 227.872 -0.31 +0.00    +0.048 A  
DOCKED: ATOM     13  N   UNL     1     133.764  75.126 226.225 -0.22 -0.01    -0.272 N  
DOCKED: ATOM     14  C   UNL     1     132.230  76.935 227.697 -0.34 +0.00    +0.005 A  
DOCKED: ATOM     15  C   UNL     1     133.933  76.479 226.057 -0.27 -0.01    +0.096 A  
DOCKED: ATOM     16  C   UNL     1     133.173  77.395 226.786 -0.30 -0.00    +0.019 A  
DOCKED: BRANCH   4  17
DOCKED: ATOM     17  N   UNL     1     133.490  68.896 226.401 -0.70 -0.02    -0.282 NA 
DOCKED: ATOM     18  H   UNL     1     133.828  68.081 225.846 +0.07 -0.01    +0.189 HD 
DOCKED: ENDBRANCH   4  17
DOCKED: BRANCH  11  19
DOCKED: ATOM     19  O   UNL     1     135.461  74.750 224.575 -0.17 +0.09    -0.494 OA 
DOCKED: ATOM     20  H   UNL     1     136.365  74.341 224.388 -0.33 -0.14    +0.295 HD 
DOCKED: ENDBRANCH  11  19
DOCKED: ENDBRANCH   1   3
DOCKED: BRANCH   1  21
DOCKED: ATOM     21  N   UNL     1     137.091  69.765 224.408 +0.03 +0.07    -0.643 NA 
DOCKED: BRANCH  21  22
DOCKED: ATOM     22  C   UNL     1     138.145  68.881 224.899 -0.31 +0.00    -0.079 C  
DOCKED: ATOM     23  C   UNL     1     138.871  68.249 223.712 -0.28 +0.00    -0.008 C  
DOCKED: BRANCH  22  24
DOCKED: ATOM     24  C   UNL     1     139.120  69.648 225.766 -0.38 +0.01    -0.063 A  
DOCKED: ATOM     25  C   UNL     1     139.880  70.706 225.234 -0.48 -0.00    +0.002 A  
DOCKED: ATOM     26  C   UNL     1     139.302  69.285 227.113 -0.50 -0.00    +0.002 A  
DOCKED: ATOM     27  C   UNL     1     140.788  71.398 226.039 -0.64 -0.00    +0.000 A  
DOCKED: ATOM     28  C   UNL     1     140.213  69.981 227.914 -0.63 -0.00    +0.000 A  
DOCKED: ATOM     29  C   UNL     1     140.953  71.037 227.378 -0.71 -0.00    +0.000 A  
DOCKED: ENDBRANCH  22  24
DOCKED: ENDBRANCH  21  22
DOCKED: ENDBRANCH   1  21
DOCKED: TORSDOF 6
DOCKED: TER
DOCKED: ENDMDL
________________________________________________________________________________


    FINAL DOCKED STATE:
    ________________________


Run:   2 / 20
Time taken for this run:   0.029s

DOCKED: MODEL        2
DOCKED: USER    Run = 2
DOCKED: USER
DOCKED: USER    Estimated Free Energy of Binding    =  -7.59 kcal/mol  [=(1)+(2)+(3)-(4)]
DOCKED: USER
DOCKED: USER    (1) Final Intermolecular Energy     =  -9.38 kcal/mol
DOCKED: USER        vdW + Hbond + desolv Energy     =  -9.39 kcal/mol
DOCKED: USER        Electrostatic Energy            =  +0.00 kcal/mol
DOCKED: USER        Moving Ligand-Fixed Receptor    =  -9.38 kcal/mol
DOCKED: USER        Moving Ligand-Moving Receptor   =  +0.00 kcal/mol
DOCKED: USER    (2) Final Total Internal Energy     =  -0.54 kcal/mol
DOCKED: USER    (3) Torsional Free Energy           =  +1.79 kcal/mol
DOCKED: USER    (4) Unbound System's Energy         =  -0.54 kcal/mol
DOCKED: USER
DOCKED: USER
DOCKED: REMARK SMILES [H]/N=c1/nc2nc3ccccn3c(O)c-2cc1C(=O)[N-][C@@H](C)c1ccccc1
DOCKED: REMARK SMILES IDX 18 1 19 2 17 3 3 4 4 5 5 6 16 7 6 8 15 9 7 10 13 11 8 12
DOCKED: REMARK SMILES IDX 12 13 9 14 11 15 10 16 2 17 1 18 14 19 20 21 21 22 22 23
DOCKED: REMARK SMILES IDX 23 24 24 25 28 26 25 27 27 28 26 29
DOCKED: REMARK H PARENT 14 20
DOCKED: USER                              x       y       z     vdW  Elec       q    Type
DOCKED: USER                           _______ _______ _______ _____ _____    ______ ____
DOCKED: ROOT
DOCKED: ATOM      1  C   UNL     1     136.621  68.889 223.997 -0.11 -0.00    +0.086 C  
DOCKED: ATOM      2  O   UNL     1     136.384  68.325 222.895 -0.14 +0.03    -0.315 OA 
DOCKED: ENDROOT
DOCKED: BRANCH   1   3
DOCKED: ATOM      3  C   UNL     1     135.558  69.650 224.691 -0.22 -0.00    +0.044 A  
DOCKED: ATOM      4  C   UNL     1     134.501  69.023 225.407 -0.21 -0.01    +0.156 A  
DOCKED: ATOM      5  N   UNL     1     133.601  69.778 226.090 -0.47 +0.01    -0.209 NA 
DOCKED: ATOM      6  C   UNL     1     133.650  71.130 226.105 -0.25 -0.01    +0.169 A  
DOCKED: ATOM      7  C   UNL     1     135.630  71.056 224.659 -0.12 -0.00    +0.031 A  
DOCKED: ATOM      8  N   UNL     1     132.738  71.836 226.803 -0.24 +0.02    -0.210 NA 
DOCKED: ATOM      9  C   UNL     1     134.694  71.837 225.350 -0.17 -0.00    +0.081 A  
DOCKED: ATOM     10  C   UNL     1     132.760  73.192 226.827 -0.33 -0.01    +0.141 A  
DOCKED: ATOM     11  C   UNL     1     134.683  73.248 225.390 -0.15 -0.01    +0.208 A  
DOCKED: ATOM     12  C   UNL     1     131.784  73.861 227.574 -0.40 -0.01    +0.048 A  
DOCKED: ATOM     13  N   UNL     1     133.721  73.902 226.129 -0.19 -0.01    -0.272 N  
DOCKED: ATOM     14  C   UNL     1     131.781  75.251 227.615 -0.39 -0.00    +0.005 A  
DOCKED: ATOM     15  C   UNL     1     133.711  75.275 226.175 -0.33 +0.00    +0.096 A  
DOCKED: ATOM     16  C   UNL     1     132.747  75.963 226.914 -0.35 -0.00    +0.019 A  
DOCKED: BRANCH   4  17
DOCKED: ATOM     17  N   UNL     1     134.332  67.736 225.402 -0.54 +0.01    -0.282 NA 
DOCKED: ATOM     18  H   UNL     1     134.425  67.122 224.565 +0.00 +0.01    +0.189 HD 
DOCKED: ENDBRANCH   4  17
DOCKED: BRANCH  11  19
DOCKED: ATOM     19  O   UNL     1     135.633  74.004 224.689 -0.12 +0.10    -0.494 OA 
DOCKED: ATOM     20  H   UNL     1     136.507  73.644 224.333 -0.45 -0.16    +0.295 HD 
DOCKED: ENDBRANCH  11  19
DOCKED: ENDBRANCH   1   3
DOCKED: BRANCH   1  21
DOCKED: ATOM     21  N   UNL     1     137.904  68.742 224.616 -0.01 +0.02    -0.643 NA 
DOCKED: BRANCH  21  22
DOCKED: ATOM     22  C   UNL     1     139.049  69.596 224.312 -0.30 +0.01    -0.079 C  
DOCKED: ATOM     23  C   UNL     1     138.596  70.759 223.430 -0.27 +0.00    -0.008 C  
DOCKED: BRANCH  22  24
DOCKED: ATOM     24  C   UNL     1     139.676  70.116 225.588 -0.41 +0.01    -0.063 A  
DOCKED: ATOM     25  C   UNL     1     139.434  69.481 226.820 -0.50 -0.00    +0.002 A  
DOCKED: ATOM     26  C   UNL     1     140.485  71.266 225.559 -0.57 -0.00    +0.002 A  
DOCKED: ATOM     27  C   UNL     1     140.006  69.977 227.995 -0.64 -0.00    +0.000 A  
DOCKED: ATOM     28  C   UNL     1     141.054  71.759 226.738 -0.75 -0.00    +0.000 A  
DOCKED: ATOM     29  C   UNL     1     140.816  71.114 227.953 -0.75 -0.00    +0.000 A  
DOCKED: ENDBRANCH  22  24
DOCKED: ENDBRANCH  21  22
DOCKED: ENDBRANCH   1  21
DOCKED: TORSDOF 6
DOCKED: TER
DOCKED: ENDMDL
________________________________________________________________________________


    FINAL DOCKED STATE:
    ________________________


Run:   3 / 20
Time taken for this run:   0.029s

DOCKED: MODEL        3
DOCKED: USER    Run = 3
DOCKED: USER
DOCKED: USER    Estimated Free Energy of Binding    =  -6.41 kcal/mol  [=(1)+(2)+(3)-(4)]
DOCKED: USER
DOCKED: USER    (1) Final Intermolecular Energy     =  -8.20 kcal/mol
DOCKED: USER        vdW + Hbond + desolv Energy     =  -8.31 kcal/mol
DOCKED: USER        Electrostatic Energy            =  +0.11 kcal/mol
DOCKED: USER        Moving Ligand-Fixed Receptor    =  -8.20 kcal/mol
DOCKED: USER        Moving Ligand-Moving Receptor   =  +0.00 kcal/mol
DOCKED: USER    (2) Final Total Internal Energy     =  -1.66 kcal/mol
DOCKED: USER    (3) Torsional Free Energy           =  +1.79 kcal/mol
DOCKED: USER    (4) Unbound System's Energy         =  -1.66 kcal/mol
DOCKED: USER
DOCKED: USER
DOCKED: REMARK SMILES [H]/N=c1/nc2nc3ccccn3c(O)c-2cc1C(=O)[N-][C@@H](C)c1ccccc1
DOCKED: REMARK SMILES IDX 18 1 19 2 17 3 3 4 4 5 5 6 16 7 6 8 15 9 7 10 13 11 8 12
DOCKED: REMARK SMILES IDX 12 13 9 14 11 15 10 16 2 17 1 18 14 19 20 21 21 22 22 23
DOCKED: REMARK SMILES IDX 23 24 24 25 28 26 25 27 27 28 26 29
DOCKED: REMARK H PARENT 14 20
DOCKED: USER                              x       y       z     vdW  Elec       q    Type
DOCKED: USER                           _______ _______ _______ _____ _____    ______ ____
DOCKED: ROOT
DOCKED: ATOM      1  C   UNL     1     138.002  78.744 222.105 -0.17 -0.02    +0.086 C  
DOCKED: ATOM      2  O   UNL     1     137.020  78.059 222.501 -0.11 +0.05    -0.315 OA 
DOCKED: ENDROOT
DOCKED: BRANCH   1   3
DOCKED: ATOM      3  C   UNL     1     139.166  78.085 221.471 -0.18 -0.01    +0.044 A  
DOCKED: ATOM      4  C   UNL     1     140.062  78.769 220.603 -0.11 -0.05    +0.156 A  
DOCKED: ATOM      5  N   UNL     1     141.158  78.129 220.116 -0.13 +0.10    -0.209 NA 
DOCKED: ATOM      6  C   UNL     1     141.432  76.836 220.405 -0.21 -0.08    +0.169 A  
DOCKED: ATOM      7  C   UNL     1     139.401  76.731 221.776 -0.28 -0.01    +0.031 A  
DOCKED: ATOM      8  N   UNL     1     142.535  76.246 219.903 -0.22 +0.12    -0.210 NA 
DOCKED: ATOM      9  C   UNL     1     140.522  76.064 221.262 -0.28 -0.02    +0.081 A  
DOCKED: ATOM     10  C   UNL     1     142.828  74.949 220.171 -0.27 -0.06    +0.141 A  
DOCKED: ATOM     11  C   UNL     1     140.852  74.715 221.514 -0.24 -0.03    +0.208 A  
DOCKED: ATOM     12  C   UNL     1     143.991  74.401 219.619 -0.35 -0.02    +0.048 A  
DOCKED: ATOM     13  N   UNL     1     141.999  74.182 220.969 -0.16 +0.06    -0.272 N  
DOCKED: ATOM     14  C   UNL     1     144.316  73.073 219.874 -0.36 -0.00    +0.005 A  
DOCKED: ATOM     15  C   UNL     1     142.327  72.870 221.217 -0.14 -0.01    +0.096 A  
DOCKED: ATOM     16  C   UNL     1     143.482  72.303 220.676 -0.30 -0.00    +0.019 A  
DOCKED: BRANCH   4  17
DOCKED: ATOM     17  N   UNL     1     139.853  79.991 220.217 -0.03 +0.08    -0.282 NA 
DOCKED: ATOM     18  H   UNL     1     139.132  80.630 220.615 +0.05 -0.04    +0.189 HD 
DOCKED: ENDBRANCH   4  17
DOCKED: BRANCH  11  19
DOCKED: ATOM     19  O   UNL     1     140.033  73.902 222.309 -0.74 +0.02    -0.494 OA 
DOCKED: ATOM     20  H   UNL     1     139.190  74.210 222.773 -0.47 -0.09    +0.295 HD 
DOCKED: ENDBRANCH  11  19
DOCKED: ENDBRANCH   1   3
DOCKED: BRANCH   1  21
DOCKED: ATOM     21  N   UNL     1     137.966  80.172 222.207 +0.04 +0.10    -0.643 NA 
DOCKED: BRANCH  21  22
DOCKED: ATOM     22  C   UNL     1     138.634  80.921 223.268 -0.30 +0.01    -0.079 C  
DOCKED: ATOM     23  C   UNL     1     137.948  80.635 224.602 -0.37 +0.00    -0.008 C  
DOCKED: BRANCH  22  24
DOCKED: ATOM     24  C   UNL     1     140.100  80.549 223.338 -0.39 +0.01    -0.063 A  
DOCKED: ATOM     25  C   UNL     1     141.075  81.338 222.700 -0.45 -0.00    +0.002 A  
DOCKED: ATOM     26  C   UNL     1     140.500  79.385 224.018 -0.42 -0.00    +0.002 A  
DOCKED: ATOM     27  C   UNL     1     142.424  80.978 222.758 -0.54 -0.00    +0.000 A  
DOCKED: ATOM     28  C   UNL     1     141.852  79.028 224.071 -0.59 -0.00    +0.000 A  
DOCKED: ATOM     29  C   UNL     1     142.812  79.825 223.444 -0.60 -0.00    +0.000 A  
DOCKED: ENDBRANCH  22  24
DOCKED: ENDBRANCH  21  22
DOCKED: ENDBRANCH   1  21
DOCKED: TORSDOF 6
DOCKED: TER
DOCKED: ENDMDL
________________________________________________________________________________


    FINAL DOCKED STATE:
    ________________________


Run:   4 / 20
Time taken for this run:   0.029s

DOCKED: MODEL        4
DOCKED: USER    Run = 4
DOCKED: USER
DOCKED: USER    Estimated Free Energy of Binding    =  -7.98 kcal/mol  [=(1)+(2)+(3)-(4)]
DOCKED: USER
DOCKED: USER    (1) Final Intermolecular Energy     =  -9.77 kcal/mol
DOCKED: USER        vdW + Hbond + desolv Energy     =  -9.76 kcal/mol
DOCKED: USER        Electrostatic Energy            =  -0.01 kcal/mol
DOCKED: USER        Moving Ligand-Fixed Receptor    =  -9.77 kcal/mol
DOCKED: USER        Moving Ligand-Moving Receptor   =  +0.00 kcal/mol
DOCKED: USER    (2) Final Total Internal Energy     =  -0.93 kcal/mol
DOCKED: USER    (3) Torsional Free Energy           =  +1.79 kcal/mol
DOCKED: USER    (4) Unbound System's Energy         =  -0.93 kcal/mol
DOCKED: USER
DOCKED: USER
DOCKED: REMARK SMILES [H]/N=c1/nc2nc3ccccn3c(O)c-2cc1C(=O)[N-][C@@H](C)c1ccccc1
DOCKED: REMARK SMILES IDX 18 1 19 2 17 3 3 4 4 5 5 6 16 7 6 8 15 9 7 10 13 11 8 12
DOCKED: REMARK SMILES IDX 12 13 9 14 11 15 10 16 2 17 1 18 14 19 20 21 21 22 22 23
DOCKED: REMARK SMILES IDX 23 24 24 25 28 26 25 27 27 28 26 29
DOCKED: REMARK H PARENT 14 20
DOCKED: USER                              x       y       z     vdW  Elec       q    Type
DOCKED: USER                           _______ _______ _______ _____ _____    ______ ____
DOCKED: ROOT
DOCKED: ATOM      1  C   UNL     1     135.732  69.556 224.542 -0.20 -0.01    +0.086 C  
DOCKED: ATOM      2  O   UNL     1     135.246  68.479 224.103 -0.56 -0.01    -0.315 OA 
DOCKED: ENDROOT
DOCKED: BRANCH   1   3
DOCKED: ATOM      3  C   UNL     1     134.869  70.538 225.235 -0.20 -0.00    +0.044 A  
DOCKED: ATOM      4  C   UNL     1     133.861  70.160 226.165 -0.25 -0.01    +0.156 A  
DOCKED: ATOM      5  N   UNL     1     133.156  71.114 226.828 -0.27 +0.02    -0.209 NA 
DOCKED: ATOM      6  C   UNL     1     133.355  72.437 226.626 -0.31 -0.01    +0.169 A  
DOCKED: ATOM      7  C   UNL     1     135.089  71.904 224.976 -0.14 -0.00    +0.031 A  
DOCKED: ATOM      8  N   UNL     1     132.634  73.345 227.313 -0.55 +0.02    -0.210 NA 
DOCKED: ATOM      9  C   UNL     1     134.353  72.889 225.647 -0.24 -0.00    +0.081 A  
DOCKED: ATOM     10  C   UNL     1     132.809  74.677 227.122 -0.31 +0.00    +0.141 A  
DOCKED: ATOM     11  C   UNL     1     134.503  74.282 225.467 -0.24 -0.00    +0.208 A  
DOCKED: ATOM     12  C   UNL     1     132.029  75.566 227.871 -0.31 +0.00    +0.048 A  
DOCKED: ATOM     13  N   UNL     1     133.733  75.151 226.209 -0.22 -0.00    -0.272 N  
DOCKED: ATOM     14  C   UNL     1     132.185  76.936 227.695 -0.33 +0.00    +0.005 A  
DOCKED: ATOM     15  C   UNL     1     133.881  76.507 226.040 -0.27 -0.01    +0.096 A  
DOCKED: ATOM     16  C   UNL     1     133.113  77.411 226.777 -0.30 -0.00    +0.019 A  
DOCKED: BRANCH   4  17
DOCKED: ATOM     17  N   UNL     1     133.552  68.918 226.383 -0.71 -0.02    -0.282 NA 
DOCKED: ATOM     18  H   UNL     1     133.899  68.108 225.825 +0.07 -0.01    +0.189 HD 
DOCKED: ENDBRANCH   4  17
DOCKED: BRANCH  11  19
DOCKED: ATOM     19  O   UNL     1     135.422  74.801 224.545 -0.17 +0.09    -0.494 OA 
DOCKED: ATOM     20  H   UNL     1     136.310  74.380 224.316 -0.31 -0.13    +0.295 HD 
DOCKED: ENDBRANCH  11  19
DOCKED: ENDBRANCH   1   3
DOCKED: BRANCH   1  21
DOCKED: ATOM     21  N   UNL     1     137.138  69.805 224.429 +0.03 +0.07    -0.643 NA 
DOCKED: BRANCH  21  22
DOCKED: ATOM     22  C   UNL     1     138.160  68.924 224.988 -0.32 +0.00    -0.079 C  
DOCKED: ATOM     23  C   UNL     1     138.851  68.166 223.856 -0.29 +0.00    -0.008 C  
DOCKED: BRANCH  22  24
DOCKED: ATOM     24  C   UNL     1     139.172  69.723 225.782 -0.38 +0.01    -0.063 A  
DOCKED: ATOM     25  C   UNL     1     139.386  69.459 227.148 -0.51 -0.00    +0.002 A  
DOCKED: ATOM     26  C   UNL     1     139.887  70.765 225.166 -0.49 -0.00    +0.002 A  
DOCKED: ATOM     27  C   UNL     1     140.311  70.212 227.876 -0.64 -0.00    +0.000 A  
DOCKED: ATOM     28  C   UNL     1     140.811  71.517 225.900 -0.63 -0.00    +0.000 A  
DOCKED: ATOM     29  C   UNL     1     141.024  71.238 227.253 -0.73 -0.00    +0.000 A  
DOCKED: ENDBRANCH  22  24
DOCKED: ENDBRANCH  21  22
DOCKED: ENDBRANCH   1  21
DOCKED: TORSDOF 6
DOCKED: TER
DOCKED: ENDMDL
________________________________________________________________________________


    FINAL DOCKED STATE:
    ________________________


Run:   5 / 20
Time taken for this run:   0.029s

DOCKED: MODEL        5
DOCKED: USER    Run = 5
DOCKED: USER
DOCKED: USER    Estimated Free Energy of Binding    =  -6.55 kcal/mol  [=(1)+(2)+(3)-(4)]
DOCKED: USER
DOCKED: USER    (1) Final Intermolecular Energy     =  -8.34 kcal/mol
DOCKED: USER        vdW + Hbond + desolv Energy     =  -8.42 kcal/mol
DOCKED: USER        Electrostatic Energy            =  +0.08 kcal/mol
DOCKED: USER        Moving Ligand-Fixed Receptor    =  -8.34 kcal/mol
DOCKED: USER        Moving Ligand-Moving Receptor   =  +0.00 kcal/mol
DOCKED: USER    (2) Final Total Internal Energy     =  -1.46 kcal/mol
DOCKED: USER    (3) Torsional Free Energy           =  +1.79 kcal/mol
DOCKED: USER    (4) Unbound System's Energy         =  -1.46 kcal/mol
DOCKED: USER
DOCKED: USER
DOCKED: REMARK SMILES [H]/N=c1/nc2nc3ccccn3c(O)c-2cc1C(=O)[N-][C@@H](C)c1ccccc1
DOCKED: REMARK SMILES IDX 18 1 19 2 17 3 3 4 4 5 5 6 16 7 6 8 15 9 7 10 13 11 8 12
DOCKED: REMARK SMILES IDX 12 13 9 14 11 15 10 16 2 17 1 18 14 19 20 21 21 22 22 23
DOCKED: REMARK SMILES IDX 23 24 24 25 28 26 25 27 27 28 26 29
DOCKED: REMARK H PARENT 14 20
DOCKED: USER                              x       y       z     vdW  Elec       q    Type
DOCKED: USER                           _______ _______ _______ _____ _____    ______ ____
DOCKED: ROOT
DOCKED: ATOM      1  C   UNL     1     138.608  78.679 221.360 -0.13 -0.02    +0.086 C  
DOCKED: ATOM      2  O   UNL     1     138.518  79.274 220.253 -0.02 +0.07    -0.315 OA 
DOCKED: ENDROOT
DOCKED: BRANCH   1   3
DOCKED: ATOM      3  C   UNL     1     139.359  77.407 221.467 -0.21 -0.01    +0.044 A  
DOCKED: ATOM      4  C   UNL     1     138.906  76.306 222.245 -0.26 -0.03    +0.156 A  
DOCKED: ATOM      5  N   UNL     1     139.601  75.138 222.238 -0.58 +0.03    -0.209 NA 
DOCKED: ATOM      6  C   UNL     1     140.741  74.975 221.528 -0.27 -0.03    +0.169 A  
DOCKED: ATOM      7  C   UNL     1     140.555  77.288 220.735 -0.22 -0.01    +0.031 A  
DOCKED: ATOM      8  N   UNL     1     141.391  73.795 221.548 -0.31 +0.02    -0.210 NA 
DOCKED: ATOM      9  C   UNL     1     141.282  76.090 220.739 -0.26 -0.03    +0.081 A  
DOCKED: ATOM     10  C   UNL     1     142.541  73.608 220.852 -0.20 -0.03    +0.141 A  
DOCKED: ATOM     11  C   UNL     1     142.484  75.865 220.033 -0.22 -0.11    +0.208 A  
DOCKED: ATOM     12  C   UNL     1     143.163  72.356 220.916 -0.23 -0.01    +0.048 A  
DOCKED: ATOM     13  N   UNL     1     143.091  74.629 220.098 -0.19 +0.10    -0.272 N  
DOCKED: ATOM     14  C   UNL     1     144.344  72.137 220.215 -0.35 -0.00    +0.005 A  
DOCKED: ATOM     15  C   UNL     1     144.258  74.405 219.408 -0.25 -0.04    +0.096 A  
DOCKED: ATOM     16  C   UNL     1     144.895  73.164 219.458 -0.36 -0.00    +0.019 A  
DOCKED: BRANCH   4  17
DOCKED: ATOM     17  N   UNL     1     137.858  76.383 223.007 -0.18 +0.06    -0.282 NA 
DOCKED: ATOM     18  H   UNL     1     137.368  77.266 223.265 +0.05 -0.03    +0.189 HD 
DOCKED: ENDBRANCH   4  17
DOCKED: BRANCH  11  19
DOCKED: ATOM     19  O   UNL     1     143.078  76.876 219.266 -0.17 +0.35    -0.494 OA 
DOCKED: ATOM     20  H   UNL     1     143.656  77.617 219.636 -0.40 -0.33    +0.295 HD 
DOCKED: ENDBRANCH  11  19
DOCKED: ENDBRANCH   1   3
DOCKED: BRANCH   1  21
DOCKED: ATOM     21  N   UNL     1     138.039  79.264 222.537 +0.02 +0.10    -0.643 NA 
DOCKED: BRANCH  21  22
DOCKED: ATOM     22  C   UNL     1     138.603  80.432 223.210 -0.30 +0.01    -0.079 C  
DOCKED: ATOM     23  C   UNL     1     138.030  80.529 224.623 -0.36 +0.00    -0.008 C  
DOCKED: BRANCH  22  24
DOCKED: ATOM     24  C   UNL     1     140.112  80.339 223.258 -0.39 +0.01    -0.063 A  
DOCKED: ATOM     25  C   UNL     1     140.915  81.364 222.722 -0.43 -0.00    +0.002 A  
DOCKED: ATOM     26  C   UNL     1     140.732  79.204 223.811 -0.50 -0.00    +0.002 A  
DOCKED: ATOM     27  C   UNL     1     142.308  81.261 222.758 -0.48 -0.00    +0.000 A  
DOCKED: ATOM     28  C   UNL     1     142.127  79.106 223.843 -0.57 -0.00    +0.000 A  
DOCKED: ATOM     29  C   UNL     1     142.914  80.135 223.319 -0.67 -0.00    +0.000 A  
DOCKED: ENDBRANCH  22  24
DOCKED: ENDBRANCH  21  22
DOCKED: ENDBRANCH   1  21
DOCKED: TORSDOF 6
DOCKED: TER
DOCKED: ENDMDL
________________________________________________________________________________


    FINAL DOCKED STATE:
    ________________________


Run:   6 / 20
Time taken for this run:   0.029s

DOCKED: MODEL        6
DOCKED: USER    Run = 6
DOCKED: USER
DOCKED: USER    Estimated Free Energy of Binding    =  -6.65 kcal/mol  [=(1)+(2)+(3)-(4)]
DOCKED: USER
DOCKED: USER    (1) Final Intermolecular Energy     =  -8.44 kcal/mol
DOCKED: USER        vdW + Hbond + desolv Energy     =  -8.34 kcal/mol
DOCKED: USER        Electrostatic Energy            =  -0.10 kcal/mol
DOCKED: USER        Moving Ligand-Fixed Receptor    =  -8.44 kcal/mol
DOCKED: USER        Moving Ligand-Moving Receptor   =  +0.00 kcal/mol
DOCKED: USER    (2) Final Total Internal Energy     =  -1.41 kcal/mol
DOCKED: USER    (3) Torsional Free Energy           =  +1.79 kcal/mol
DOCKED: USER    (4) Unbound System's Energy         =  -1.41 kcal/mol
DOCKED: USER
DOCKED: USER
DOCKED: REMARK SMILES [H]/N=c1/nc2nc3ccccn3c(O)c-2cc1C(=O)[N-][C@@H](C)c1ccccc1
DOCKED: REMARK SMILES IDX 18 1 19 2 17 3 3 4 4 5 5 6 16 7 6 8 15 9 7 10 13 11 8 12
DOCKED: REMARK SMILES IDX 12 13 9 14 11 15 10 16 2 17 1 18 14 19 20 21 21 22 22 23
DOCKED: REMARK SMILES IDX 23 24 24 25 28 26 25 27 27 28 26 29
DOCKED: REMARK H PARENT 14 20
DOCKED: USER                              x       y       z     vdW  Elec       q    Type
DOCKED: USER                           _______ _______ _______ _____ _____    ______ ____
DOCKED: ROOT
DOCKED: ATOM      1  C   UNL     1     138.079  69.239 224.929 -0.31 -0.01    +0.086 C  
DOCKED: ATOM      2  O   UNL     1     137.165  70.016 225.315 +0.01 +0.02    -0.315 OA 
DOCKED: ENDROOT
DOCKED: BRANCH   1   3
DOCKED: ATOM      3  C   UNL     1     138.814  69.514 223.674 -0.26 -0.01    +0.044 A  
DOCKED: ATOM      4  C   UNL     1     139.161  68.495 222.743 -0.11 -0.03    +0.156 A  
DOCKED: ATOM      5  N   UNL     1     139.766  68.823 221.571 -0.05 +0.04    -0.209 NA 
DOCKED: ATOM      6  C   UNL     1     140.081  70.099 221.249 -0.06 -0.03    +0.169 A  
DOCKED: ATOM      7  C   UNL     1     139.148  70.851 223.388 -0.29 -0.01    +0.031 A  
DOCKED: ATOM      8  N   UNL     1     140.676  70.375 220.071 -0.06 +0.03    -0.210 NA 
DOCKED: ATOM      9  C   UNL     1     139.786  71.190 222.187 -0.21 -0.01    +0.081 A  
DOCKED: ATOM     10  C   UNL     1     141.009  71.644 219.727 -0.07 -0.02    +0.141 A  
DOCKED: ATOM     11  C   UNL     1     140.154  72.497 221.802 -0.20 -0.03    +0.208 A  
DOCKED: ATOM     12  C   UNL     1     141.621  71.860 218.487 -0.04 -0.01    +0.048 A  
DOCKED: ATOM     13  N   UNL     1     140.755  72.704 220.579 -0.08 +0.04    -0.272 N  
DOCKED: ATOM     14  C   UNL     1     141.977  73.150 218.109 -0.05 -0.00    +0.005 A  
DOCKED: ATOM     15  C   UNL     1     141.109  73.975 220.199 -0.15 -0.02    +0.096 A  
DOCKED: ATOM     16  C   UNL     1     141.721  74.214 218.967 -0.10 -0.01    +0.019 A  
DOCKED: BRANCH   4  17
DOCKED: ATOM     17  N   UNL     1     138.958  67.236 222.988 -0.19 +0.04    -0.282 NA 
DOCKED: ATOM     18  H   UNL     1     138.801  66.828 223.934 +0.05 +0.02    +0.189 HD 
DOCKED: ENDBRANCH   4  17
DOCKED: BRANCH  11  19
DOCKED: ATOM     19  O   UNL     1     139.922  73.596 222.642 -0.65 +0.02    -0.494 OA 
DOCKED: ATOM     20  H   UNL     1     139.044  73.797 223.098 -0.47 -0.15    +0.295 HD 
DOCKED: ENDBRANCH  11  19
DOCKED: ENDBRANCH   1   3
DOCKED: BRANCH   1  21
DOCKED: ATOM     21  N   UNL     1     138.457  68.119 225.739 -0.23 -0.02    -0.643 NA 
DOCKED: BRANCH  21  22
DOCKED: ATOM     22  C   UNL     1     139.592  68.135 226.658 -0.56 +0.01    -0.079 C  
DOCKED: ATOM     23  C   UNL     1     140.716  67.269 226.092 -0.47 +0.00    -0.008 C  
DOCKED: BRANCH  22  24
DOCKED: ATOM     24  C   UNL     1     140.077  69.552 226.877 -0.51 +0.01    -0.063 A  
DOCKED: ATOM     25  C   UNL     1     140.965  70.158 225.969 -0.55 -0.00    +0.002 A  
DOCKED: ATOM     26  C   UNL     1     139.669  70.269 228.016 -0.58 -0.00    +0.002 A  
DOCKED: ATOM     27  C   UNL     1     141.419  71.462 226.188 -0.66 -0.00    +0.000 A  
DOCKED: ATOM     28  C   UNL     1     140.128  71.573 228.231 -0.68 -0.00    +0.000 A  
DOCKED: ATOM     29  C   UNL     1     141.000  72.169 227.317 -0.81 -0.00    +0.000 A  
DOCKED: ENDBRANCH  22  24
DOCKED: ENDBRANCH  21  22
DOCKED: ENDBRANCH   1  21
DOCKED: TORSDOF 6
DOCKED: TER
DOCKED: ENDMDL
________________________________________________________________________________


    FINAL DOCKED STATE:
    ________________________


Run:   7 / 20
Time taken for this run:   0.029s

DOCKED: MODEL        7
DOCKED: USER    Run = 7
DOCKED: USER
DOCKED: USER    Estimated Free Energy of Binding    =  -7.96 kcal/mol  [=(1)+(2)+(3)-(4)]
DOCKED: USER
DOCKED: USER    (1) Final Intermolecular Energy     =  -9.75 kcal/mol
DOCKED: USER        vdW + Hbond + desolv Energy     =  -9.73 kcal/mol
DOCKED: USER        Electrostatic Energy            =  -0.02 kcal/mol
DOCKED: USER        Moving Ligand-Fixed Receptor    =  -9.75 kcal/mol
DOCKED: USER        Moving Ligand-Moving Receptor   =  +0.00 kcal/mol
DOCKED: USER    (2) Final Total Internal Energy     =  -0.95 kcal/mol
DOCKED: USER    (3) Torsional Free Energy           =  +1.79 kcal/mol
DOCKED: USER    (4) Unbound System's Energy         =  -0.95 kcal/mol
DOCKED: USER
DOCKED: USER
DOCKED: REMARK SMILES [H]/N=c1/nc2nc3ccccn3c(O)c-2cc1C(=O)[N-][C@@H](C)c1ccccc1
DOCKED: REMARK SMILES IDX 18 1 19 2 17 3 3 4 4 5 5 6 16 7 6 8 15 9 7 10 13 11 8 12
DOCKED: REMARK SMILES IDX 12 13 9 14 11 15 10 16 2 17 1 18 14 19 20 21 21 22 22 23
DOCKED: REMARK SMILES IDX 23 24 24 25 28 26 25 27 27 28 26 29
DOCKED: REMARK H PARENT 14 20
DOCKED: USER                              x       y       z     vdW  Elec       q    Type
DOCKED: USER                           _______ _______ _______ _____ _____    ______ ____
DOCKED: ROOT
DOCKED: ATOM      1  C   UNL     1     135.669  69.513 224.548 -0.20 -0.01    +0.086 C  
DOCKED: ATOM      2  O   UNL     1     135.178  68.421 224.155 -0.57 -0.02    -0.315 OA 
DOCKED: ENDROOT
DOCKED: BRANCH   1   3
DOCKED: ATOM      3  C   UNL     1     134.821  70.510 225.239 -0.21 -0.00    +0.044 A  
DOCKED: ATOM      4  C   UNL     1     133.807  70.149 226.170 -0.24 -0.01    +0.156 A  
DOCKED: ATOM      5  N   UNL     1     133.116  71.115 226.831 -0.26 +0.02    -0.209 NA 
DOCKED: ATOM      6  C   UNL     1     133.335  72.434 226.625 -0.31 -0.01    +0.169 A  
DOCKED: ATOM      7  C   UNL     1     135.062  71.872 224.977 -0.15 -0.00    +0.031 A  
DOCKED: ATOM      8  N   UNL     1     132.628  73.355 227.310 -0.55 +0.02    -0.210 NA 
DOCKED: ATOM      9  C   UNL     1     134.340  72.870 225.646 -0.25 -0.00    +0.081 A  
DOCKED: ATOM     10  C   UNL     1     132.823  74.684 227.116 -0.31 +0.00    +0.141 A  
DOCKED: ATOM     11  C   UNL     1     134.511  74.259 225.463 -0.24 -0.00    +0.208 A  
DOCKED: ATOM     12  C   UNL     1     132.056  75.586 227.863 -0.31 +0.00    +0.048 A  
DOCKED: ATOM     13  N   UNL     1     133.755  75.142 226.202 -0.22 -0.00    -0.272 N  
DOCKED: ATOM     14  C   UNL     1     132.233  76.953 227.684 -0.34 +0.00    +0.005 A  
DOCKED: ATOM     15  C   UNL     1     133.923  76.495 226.031 -0.27 -0.01    +0.096 A  
DOCKED: ATOM     16  C   UNL     1     133.169  77.412 226.765 -0.30 -0.00    +0.019 A  
DOCKED: BRANCH   4  17
DOCKED: ATOM     17  N   UNL     1     133.479  68.912 226.390 -0.69 -0.02    -0.282 NA 
DOCKED: ATOM     18  H   UNL     1     133.820  68.095 225.840 +0.07 -0.01    +0.189 HD 
DOCKED: ENDBRANCH   4  17
DOCKED: BRANCH  11  19
DOCKED: ATOM     19  O   UNL     1     135.438  74.763 224.539 -0.17 +0.09    -0.494 OA 
DOCKED: ATOM     20  H   UNL     1     136.360  74.382 224.382 -0.32 -0.14    +0.295 HD 
DOCKED: ENDBRANCH  11  19
DOCKED: ENDBRANCH   1   3
DOCKED: BRANCH   1  21
DOCKED: ATOM     21  N   UNL     1     137.070  69.767 224.387 +0.03 +0.07    -0.643 NA 
DOCKED: BRANCH  21  22
DOCKED: ATOM     22  C   UNL     1     138.114  68.900 224.925 -0.31 +0.00    -0.079 C  
DOCKED: ATOM     23  C   UNL     1     138.842  68.207 223.775 -0.29 +0.00    -0.008 C  
DOCKED: BRANCH  22  24
DOCKED: ATOM     24  C   UNL     1     139.090  69.701 225.761 -0.37 +0.01    -0.063 A  
DOCKED: ATOM     25  C   UNL     1     139.834  70.751 225.192 -0.48 -0.00    +0.002 A  
DOCKED: ATOM     26  C   UNL     1     139.288  69.378 227.115 -0.49 -0.00    +0.002 A  
DOCKED: ATOM     27  C   UNL     1     140.742  71.474 225.968 -0.63 -0.00    +0.000 A  
DOCKED: ATOM     28  C   UNL     1     140.201  70.104 227.887 -0.64 -0.00    +0.000 A  
DOCKED: ATOM     29  C   UNL     1     140.925  71.153 227.315 -0.72 -0.00    +0.000 A  
DOCKED: ENDBRANCH  22  24
DOCKED: ENDBRANCH  21  22
DOCKED: ENDBRANCH   1  21
DOCKED: TORSDOF 6
DOCKED: TER
DOCKED: ENDMDL
________________________________________________________________________________


    FINAL DOCKED STATE:
    ________________________


Run:   8 / 20
Time taken for this run:   0.029s

DOCKED: MODEL        8
DOCKED: USER    Run = 8
DOCKED: USER
DOCKED: USER    Estimated Free Energy of Binding    =  -7.94 kcal/mol  [=(1)+(2)+(3)-(4)]
DOCKED: USER
DOCKED: USER    (1) Final Intermolecular Energy     =  -9.73 kcal/mol
DOCKED: USER        vdW + Hbond + desolv Energy     =  -9.67 kcal/mol
DOCKED: USER        Electrostatic Energy            =  -0.06 kcal/mol
DOCKED: USER        Moving Ligand-Fixed Receptor    =  -9.73 kcal/mol
DOCKED: USER        Moving Ligand-Moving Receptor   =  +0.00 kcal/mol
DOCKED: USER    (2) Final Total Internal Energy     =  -0.53 kcal/mol
DOCKED: USER    (3) Torsional Free Energy           =  +1.79 kcal/mol
DOCKED: USER    (4) Unbound System's Energy         =  -0.53 kcal/mol
DOCKED: USER
DOCKED: USER
DOCKED: REMARK SMILES [H]/N=c1/nc2nc3ccccn3c(O)c-2cc1C(=O)[N-][C@@H](C)c1ccccc1
DOCKED: REMARK SMILES IDX 18 1 19 2 17 3 3 4 4 5 5 6 16 7 6 8 15 9 7 10 13 11 8 12
DOCKED: REMARK SMILES IDX 12 13 9 14 11 15 10 16 2 17 1 18 14 19 20 21 21 22 22 23
DOCKED: REMARK SMILES IDX 23 24 24 25 28 26 25 27 27 28 26 29
DOCKED: REMARK H PARENT 14 20
DOCKED: USER                              x       y       z     vdW  Elec       q    Type
DOCKED: USER                           _______ _______ _______ _____ _____    ______ ____
DOCKED: ROOT
DOCKED: ATOM      1  C   UNL     1     136.047  69.199 224.485 -0.17 -0.00    +0.086 C  
DOCKED: ATOM      2  O   UNL     1     135.598  68.515 223.526 -0.43 +0.01    -0.315 OA 
DOCKED: ENDROOT
DOCKED: BRANCH   1   3
DOCKED: ATOM      3  C   UNL     1     135.220  70.264 225.096 -0.20 -0.00    +0.044 A  
DOCKED: ATOM      4  C   UNL     1     134.243  70.004 226.097 -0.25 -0.01    +0.156 A  
DOCKED: ATOM      5  N   UNL     1     133.572  71.036 226.675 -0.28 +0.01    -0.209 NA 
DOCKED: ATOM      6  C   UNL     1     133.778  72.325 226.322 -0.28 -0.00    +0.169 A  
DOCKED: ATOM      7  C   UNL     1     135.445  71.590 224.681 -0.12 -0.00    +0.031 A  
DOCKED: ATOM      8  N   UNL     1     133.092  73.314 226.929 -0.71 +0.00    -0.210 NA 
DOCKED: ATOM      9  C   UNL     1     134.744  72.654 225.265 -0.17 -0.00    +0.081 A  
DOCKED: ATOM     10  C   UNL     1     133.274  74.615 226.587 -0.25 +0.01    +0.141 A  
DOCKED: ATOM     11  C   UNL     1     134.902  74.015 224.928 -0.22 -0.02    +0.208 A  
DOCKED: ATOM     12  C   UNL     1     132.531  75.591 227.261 -0.36 +0.00    +0.048 A  
DOCKED: ATOM     13  N   UNL     1     134.169  74.972 225.596 -0.21 +0.01    -0.272 N  
DOCKED: ATOM     14  C   UNL     1     132.695  76.931 226.930 -0.32 -0.00    +0.005 A  
DOCKED: ATOM     15  C   UNL     1     134.326  76.299 225.274 -0.25 -0.01    +0.096 A  
DOCKED: ATOM     16  C   UNL     1     133.594  77.289 225.933 -0.22 -0.00    +0.019 A  
DOCKED: BRANCH   4  17
DOCKED: ATOM     17  N   UNL     1     133.929  68.798 226.460 -0.72 -0.01    -0.282 NA 
DOCKED: ATOM     18  H   UNL     1     134.232  67.928 225.973 +0.07 -0.01    +0.189 HD 
DOCKED: ENDBRANCH   4  17
DOCKED: BRANCH  11  19
DOCKED: ATOM     19  O   UNL     1     135.792  74.417 223.922 -0.12 +0.14    -0.494 OA 
DOCKED: ATOM     20  H   UNL     1     136.743  74.091 223.829 -0.42 -0.19    +0.295 HD 
DOCKED: ENDBRANCH  11  19
DOCKED: ENDBRANCH   1   3
DOCKED: BRANCH   1  21
DOCKED: ATOM     21  N   UNL     1     137.337  68.905 225.032 +0.07 +0.02    -0.643 NA 
DOCKED: BRANCH  21  22
DOCKED: ATOM     22  C   UNL     1     138.579  69.485 224.526 -0.31 +0.01    -0.079 C  
DOCKED: ATOM     23  C   UNL     1     138.252  70.613 223.550 -0.26 +0.00    -0.008 C  
DOCKED: BRANCH  22  24
DOCKED: ATOM     24  C   UNL     1     139.425  70.004 225.669 -0.39 +0.01    -0.063 A  
DOCKED: ATOM     25  C   UNL     1     139.366  69.405 226.941 -0.50 -0.00    +0.002 A  
DOCKED: ATOM     26  C   UNL     1     140.260  71.120 225.477 -0.55 -0.00    +0.002 A  
DOCKED: ATOM     27  C   UNL     1     140.140  69.901 227.992 -0.63 -0.00    +0.000 A  
DOCKED: ATOM     28  C   UNL     1     141.032  71.614 226.534 -0.72 -0.00    +0.000 A  
DOCKED: ATOM     29  C   UNL     1     140.974  71.003 227.789 -0.72 -0.00    +0.000 A  
DOCKED: ENDBRANCH  22  24
DOCKED: ENDBRANCH  21  22
DOCKED: ENDBRANCH   1  21
DOCKED: TORSDOF 6
DOCKED: TER
DOCKED: ENDMDL
________________________________________________________________________________


    FINAL DOCKED STATE:
    ________________________


Run:   9 / 20
Time taken for this run:   0.029s

DOCKED: MODEL        9
DOCKED: USER    Run = 9
DOCKED: USER
DOCKED: USER    Estimated Free Energy of Binding    =  -6.41 kcal/mol  [=(1)+(2)+(3)-(4)]
DOCKED: USER
DOCKED: USER    (1) Final Intermolecular Energy     =  -8.20 kcal/mol
DOCKED: USER        vdW + Hbond + desolv Energy     =  -8.30 kcal/mol
DOCKED: USER        Electrostatic Energy            =  +0.10 kcal/mol
DOCKED: USER        Moving Ligand-Fixed Receptor    =  -8.20 kcal/mol
DOCKED: USER        Moving Ligand-Moving Receptor   =  +0.00 kcal/mol
DOCKED: USER    (2) Final Total Internal Energy     =  -1.66 kcal/mol
DOCKED: USER    (3) Torsional Free Energy           =  +1.79 kcal/mol
DOCKED: USER    (4) Unbound System's Energy         =  -1.66 kcal/mol
DOCKED: USER
DOCKED: USER
DOCKED: REMARK SMILES [H]/N=c1/nc2nc3ccccn3c(O)c-2cc1C(=O)[N-][C@@H](C)c1ccccc1
DOCKED: REMARK SMILES IDX 18 1 19 2 17 3 3 4 4 5 5 6 16 7 6 8 15 9 7 10 13 11 8 12
DOCKED: REMARK SMILES IDX 12 13 9 14 11 15 10 16 2 17 1 18 14 19 20 21 21 22 22 23
DOCKED: REMARK SMILES IDX 23 24 24 25 28 26 25 27 27 28 26 29
DOCKED: REMARK H PARENT 14 20
DOCKED: USER                              x       y       z     vdW  Elec       q    Type
DOCKED: USER                           _______ _______ _______ _____ _____    ______ ____
DOCKED: ROOT
DOCKED: ATOM      1  C   UNL     1     137.984  78.737 222.134 -0.17 -0.01    +0.086 C  
DOCKED: ATOM      2  O   UNL     1     137.011  78.044 222.536 -0.11 +0.05    -0.315 OA 
DOCKED: ENDROOT
DOCKED: BRANCH   1   3
DOCKED: ATOM      3  C   UNL     1     139.149  78.090 221.491 -0.18 -0.01    +0.044 A  
DOCKED: ATOM      4  C   UNL     1     140.030  78.782 220.613 -0.11 -0.05    +0.156 A  
DOCKED: ATOM      5  N   UNL     1     141.128  78.152 220.118 -0.13 +0.10    -0.209 NA 
DOCKED: ATOM      6  C   UNL     1     141.419  76.863 220.408 -0.21 -0.08    +0.169 A  
DOCKED: ATOM      7  C   UNL     1     139.401  76.740 221.796 -0.28 -0.01    +0.031 A  
DOCKED: ATOM      8  N   UNL     1     142.524  76.284 219.896 -0.22 +0.12    -0.210 NA 
DOCKED: ATOM      9  C   UNL     1     140.525  76.084 221.274 -0.28 -0.02    +0.081 A  
DOCKED: ATOM     10  C   UNL     1     142.833  74.990 220.165 -0.27 -0.06    +0.141 A  
DOCKED: ATOM     11  C   UNL     1     140.872  74.738 221.526 -0.24 -0.03    +0.208 A  
DOCKED: ATOM     12  C   UNL     1     143.997  74.453 219.603 -0.35 -0.02    +0.048 A  
DOCKED: ATOM     13  N   UNL     1     142.020  74.216 220.972 -0.16 +0.06    -0.272 N  
DOCKED: ATOM     14  C   UNL     1     144.338  73.130 219.859 -0.36 -0.00    +0.005 A  
DOCKED: ATOM     15  C   UNL     1     142.364  72.909 221.220 -0.13 -0.01    +0.096 A  
DOCKED: ATOM     16  C   UNL     1     143.520  72.353 220.670 -0.30 -0.00    +0.019 A  
DOCKED: BRANCH   4  17
DOCKED: ATOM     17  N   UNL     1     139.804  80.000 220.226 -0.03 +0.08    -0.282 NA 
DOCKED: ATOM     18  H   UNL     1     139.129  80.656 220.674 +0.05 -0.04    +0.189 HD 
DOCKED: ENDBRANCH   4  17
DOCKED: BRANCH  11  19
DOCKED: ATOM     19  O   UNL     1     140.069  73.918 222.331 -0.74 +0.01    -0.494 OA 
DOCKED: ATOM     20  H   UNL     1     139.201  74.204 222.761 -0.46 -0.09    +0.295 HD 
DOCKED: ENDBRANCH  11  19
DOCKED: ENDBRANCH   1   3
DOCKED: BRANCH   1  21
DOCKED: ATOM     21  N   UNL     1     137.936  80.165 222.238 +0.04 +0.10    -0.643 NA 
DOCKED: BRANCH  21  22
DOCKED: ATOM     22  C   UNL     1     138.608  80.919 223.294 -0.30 +0.01    -0.079 C  
DOCKED: ATOM     23  C   UNL     1     137.924  80.639 224.631 -0.37 +0.00    -0.008 C  
DOCKED: BRANCH  22  24
DOCKED: ATOM     24  C   UNL     1     140.073  80.547 223.362 -0.39 +0.01    -0.063 A  
DOCKED: ATOM     25  C   UNL     1     141.048  81.335 222.722 -0.45 -0.00    +0.002 A  
DOCKED: ATOM     26  C   UNL     1     140.474  79.382 224.041 -0.41 -0.00    +0.002 A  
DOCKED: ATOM     27  C   UNL     1     142.396  80.974 222.778 -0.55 -0.00    +0.000 A  
DOCKED: ATOM     28  C   UNL     1     141.825  79.025 224.093 -0.60 -0.00    +0.000 A  
DOCKED: ATOM     29  C   UNL     1     142.785  79.822 223.465 -0.60 -0.00    +0.000 A  
DOCKED: ENDBRANCH  22  24
DOCKED: ENDBRANCH  21  22
DOCKED: ENDBRANCH   1  21
DOCKED: TORSDOF 6
DOCKED: TER
DOCKED: ENDMDL
________________________________________________________________________________


    FINAL DOCKED STATE:
    ________________________


Run:   10 / 20
Time taken for this run:   0.029s

DOCKED: MODEL        10
DOCKED: USER    Run = 10
DOCKED: USER
DOCKED: USER    Estimated Free Energy of Binding    =  -7.65 kcal/mol  [=(1)+(2)+(3)-(4)]
DOCKED: USER
DOCKED: USER    (1) Final Intermolecular Energy     =  -9.44 kcal/mol
DOCKED: USER        vdW + Hbond + desolv Energy     =  -9.45 kcal/mol
DOCKED: USER        Electrostatic Energy            =  +0.01 kcal/mol
DOCKED: USER        Moving Ligand-Fixed Receptor    =  -9.44 kcal/mol
DOCKED: USER        Moving Ligand-Moving Receptor   =  +0.00 kcal/mol
DOCKED: USER    (2) Final Total Internal Energy     =  -1.00 kcal/mol
DOCKED: USER    (3) Torsional Free Energy           =  +1.79 kcal/mol
DOCKED: USER    (4) Unbound System's Energy         =  -1.00 kcal/mol
DOCKED: USER
DOCKED: USER
DOCKED: REMARK SMILES [H]/N=c1/nc2nc3ccccn3c(O)c-2cc1C(=O)[N-][C@@H](C)c1ccccc1
DOCKED: REMARK SMILES IDX 18 1 19 2 17 3 3 4 4 5 5 6 16 7 6 8 15 9 7 10 13 11 8 12
DOCKED: REMARK SMILES IDX 12 13 9 14 11 15 10 16 2 17 1 18 14 19 20 21 21 22 22 23
DOCKED: REMARK SMILES IDX 23 24 24 25 28 26 25 27 27 28 26 29
DOCKED: REMARK H PARENT 14 20
DOCKED: USER                              x       y       z     vdW  Elec       q    Type
DOCKED: USER                           _______ _______ _______ _____ _____    ______ ____
DOCKED: ROOT
DOCKED: ATOM      1  C   UNL     1     135.833  69.736 224.605 -0.20 -0.01    +0.086 C  
DOCKED: ATOM      2  O   UNL     1     135.489  68.525 224.547 -0.49 -0.02    -0.315 OA 
DOCKED: ENDROOT
DOCKED: BRANCH   1   3
DOCKED: ATOM      3  C   UNL     1     134.960  70.731 225.268 -0.18 -0.00    +0.044 A  
DOCKED: ATOM      4  C   UNL     1     133.958  70.372 226.211 -0.26 -0.01    +0.156 A  
DOCKED: ATOM      5  N   UNL     1     133.243  71.340 226.844 -0.27 +0.02    -0.209 NA 
DOCKED: ATOM      6  C   UNL     1     133.428  72.657 226.598 -0.30 -0.00    +0.169 A  
DOCKED: ATOM      7  C   UNL     1     135.166  72.090 224.964 -0.10 -0.00    +0.031 A  
DOCKED: ATOM      8  N   UNL     1     132.698  73.580 227.256 -0.65 +0.01    -0.210 NA 
DOCKED: ATOM      9  C   UNL     1     134.419  73.089 225.604 -0.23 -0.00    +0.081 A  
DOCKED: ATOM     10  C   UNL     1     132.858  74.907 227.022 -0.31 +0.00    +0.141 A  
DOCKED: ATOM     11  C   UNL     1     134.554  74.476 225.379 -0.26 -0.01    +0.208 A  
DOCKED: ATOM     12  C   UNL     1     132.069  75.811 227.743 -0.32 +0.00    +0.048 A  
DOCKED: ATOM     13  N   UNL     1     133.776  75.361 226.093 -0.22 +0.00    -0.272 N  
DOCKED: ATOM     14  C   UNL     1     132.210  77.176 227.523 -0.32 -0.00    +0.005 A  
DOCKED: ATOM     15  C   UNL     1     133.909  76.712 225.880 -0.22 -0.01    +0.096 A  
DOCKED: ATOM     16  C   UNL     1     133.132  77.631 226.588 -0.27 -0.00    +0.019 A  
DOCKED: BRANCH   4  17
DOCKED: ATOM     17  N   UNL     1     133.663  69.135 226.469 -0.69 -0.02    -0.282 NA 
DOCKED: ATOM     18  H   UNL     1     134.099  68.307 226.010 +0.07 -0.01    +0.189 HD 
DOCKED: ENDBRANCH   4  17
DOCKED: BRANCH  11  19
DOCKED: ATOM     19  O   UNL     1     135.466  74.975 224.439 -0.16 +0.09    -0.494 OA 
DOCKED: ATOM     20  H   UNL     1     136.367  74.567 224.235 -0.27 -0.13    +0.295 HD 
DOCKED: ENDBRANCH  11  19
DOCKED: ENDBRANCH   1   3
DOCKED: BRANCH   1  21
DOCKED: ATOM     21  N   UNL     1     137.105  70.145 224.087 +0.03 +0.09    -0.643 NA 
DOCKED: BRANCH  21  22
DOCKED: ATOM     22  C   UNL     1     138.329  69.365 224.246 -0.29 +0.01    -0.079 C  
DOCKED: ATOM     23  C   UNL     1     139.135  69.414 222.950 -0.22 +0.00    -0.008 C  
DOCKED: BRANCH  22  24
DOCKED: ATOM     24  C   UNL     1     139.151  69.898 225.400 -0.37 +0.01    -0.063 A  
DOCKED: ATOM     25  C   UNL     1     139.944  71.051 225.247 -0.50 -0.00    +0.002 A  
DOCKED: ATOM     26  C   UNL     1     139.157  69.222 226.633 -0.47 -0.00    +0.002 A  
DOCKED: ATOM     27  C   UNL     1     140.711  71.526 226.314 -0.67 -0.00    +0.000 A  
DOCKED: ATOM     28  C   UNL     1     139.928  69.702 227.697 -0.62 -0.00    +0.000 A  
DOCKED: ATOM     29  C   UNL     1     140.702  70.854 227.538 -0.70 -0.00    +0.000 A  
DOCKED: ENDBRANCH  22  24
DOCKED: ENDBRANCH  21  22
DOCKED: ENDBRANCH   1  21
DOCKED: TORSDOF 6
DOCKED: TER
DOCKED: ENDMDL
________________________________________________________________________________


    FINAL DOCKED STATE:
    ________________________


Run:   11 / 20
Time taken for this run:   0.029s

DOCKED: MODEL        11
DOCKED: USER    Run = 11
DOCKED: USER
DOCKED: USER    Estimated Free Energy of Binding    =  -6.46 kcal/mol  [=(1)+(2)+(3)-(4)]
DOCKED: USER
DOCKED: USER    (1) Final Intermolecular Energy     =  -8.25 kcal/mol
DOCKED: USER        vdW + Hbond + desolv Energy     =  -8.33 kcal/mol
DOCKED: USER        Electrostatic Energy            =  +0.08 kcal/mol
DOCKED: USER        Moving Ligand-Fixed Receptor    =  -8.25 kcal/mol
DOCKED: USER        Moving Ligand-Moving Receptor   =  +0.00 kcal/mol
DOCKED: USER    (2) Final Total Internal Energy     =  -1.54 kcal/mol
DOCKED: USER    (3) Torsional Free Energy           =  +1.79 kcal/mol
DOCKED: USER    (4) Unbound System's Energy         =  -1.54 kcal/mol
DOCKED: USER
DOCKED: USER
DOCKED: REMARK SMILES [H]/N=c1/nc2nc3ccccn3c(O)c-2cc1C(=O)[N-][C@@H](C)c1ccccc1
DOCKED: REMARK SMILES IDX 18 1 19 2 17 3 3 4 4 5 5 6 16 7 6 8 15 9 7 10 13 11 8 12
DOCKED: REMARK SMILES IDX 12 13 9 14 11 15 10 16 2 17 1 18 14 19 20 21 21 22 22 23
DOCKED: REMARK SMILES IDX 23 24 24 25 28 26 25 27 27 28 26 29
DOCKED: REMARK H PARENT 14 20
DOCKED: USER                              x       y       z     vdW  Elec       q    Type
DOCKED: USER                           _______ _______ _______ _____ _____    ______ ____
DOCKED: ROOT
DOCKED: ATOM      1  C   UNL     1     138.549  78.794 221.346 -0.12 -0.02    +0.086 C  
DOCKED: ATOM      2  O   UNL     1     138.459  79.384 220.236 -0.01 +0.07    -0.315 OA 
DOCKED: ENDROOT
DOCKED: BRANCH   1   3
DOCKED: ATOM      3  C   UNL     1     139.306  77.527 221.461 -0.20 -0.01    +0.044 A  
DOCKED: ATOM      4  C   UNL     1     138.863  76.431 222.252 -0.25 -0.03    +0.156 A  
DOCKED: ATOM      5  N   UNL     1     139.563  75.266 222.252 -0.55 +0.03    -0.209 NA 
DOCKED: ATOM      6  C   UNL     1     140.700  75.102 221.537 -0.27 -0.03    +0.169 A  
DOCKED: ATOM      7  C   UNL     1     140.499  77.406 220.723 -0.21 -0.01    +0.031 A  
DOCKED: ATOM      8  N   UNL     1     141.356  73.925 221.565 -0.33 +0.02    -0.210 NA 
DOCKED: ATOM      9  C   UNL     1     141.231  76.211 220.734 -0.25 -0.03    +0.081 A  
DOCKED: ATOM     10  C   UNL     1     142.503  73.737 220.864 -0.19 -0.03    +0.141 A  
DOCKED: ATOM     11  C   UNL     1     142.430  75.985 220.024 -0.22 -0.11    +0.208 A  
DOCKED: ATOM     12  C   UNL     1     143.131  72.488 220.936 -0.21 -0.01    +0.048 A  
DOCKED: ATOM     13  N   UNL     1     143.043  74.753 220.097 -0.19 +0.11    -0.272 N  
DOCKED: ATOM     14  C   UNL     1     144.308  72.268 220.229 -0.36 -0.00    +0.005 A  
DOCKED: ATOM     15  C   UNL     1     144.207  74.528 219.402 -0.25 -0.04    +0.096 A  
DOCKED: ATOM     16  C   UNL     1     144.850  73.290 219.459 -0.36 -0.00    +0.019 A  
DOCKED: BRANCH   4  17
DOCKED: ATOM     17  N   UNL     1     137.819  76.510 223.020 -0.17 +0.06    -0.282 NA 
DOCKED: ATOM     18  H   UNL     1     137.314  77.391 223.254 +0.06 -0.03    +0.189 HD 
DOCKED: ENDBRANCH   4  17
DOCKED: BRANCH  11  19
DOCKED: ATOM     19  O   UNL     1     143.014  76.992 219.243 -0.17 +0.35    -0.494 OA 
DOCKED: ATOM     20  H   UNL     1     143.691  77.662 219.578 -0.40 -0.33    +0.295 HD 
DOCKED: ENDBRANCH  11  19
DOCKED: ENDBRANCH   1   3
DOCKED: BRANCH   1  21
DOCKED: ATOM     21  N   UNL     1     137.973  79.381 222.519 +0.03 +0.10    -0.643 NA 
DOCKED: BRANCH  21  22
DOCKED: ATOM     22  C   UNL     1     138.579  80.495 223.243 -0.31 +0.01    -0.079 C  
DOCKED: ATOM     23  C   UNL     1     138.078  80.496 224.686 -0.32 +0.00    -0.008 C  
DOCKED: BRANCH  22  24
DOCKED: ATOM     24  C   UNL     1     140.089  80.391 223.210 -0.38 +0.01    -0.063 A  
DOCKED: ATOM     25  C   UNL     1     140.862  81.343 222.518 -0.41 -0.00    +0.002 A  
DOCKED: ATOM     26  C   UNL     1     140.736  79.316 223.845 -0.52 -0.00    +0.002 A  
DOCKED: ATOM     27  C   UNL     1     142.254  81.229 222.481 -0.48 -0.00    +0.000 A  
DOCKED: ATOM     28  C   UNL     1     142.130  79.207 223.803 -0.59 -0.00    +0.000 A  
DOCKED: ATOM     29  C   UNL     1     142.887  80.164 223.123 -0.67 -0.00    +0.000 A  
DOCKED: ENDBRANCH  22  24
DOCKED: ENDBRANCH  21  22
DOCKED: ENDBRANCH   1  21
DOCKED: TORSDOF 6
DOCKED: TER
DOCKED: ENDMDL
________________________________________________________________________________


    FINAL DOCKED STATE:
    ________________________


Run:   12 / 20
Time taken for this run:   0.029s

DOCKED: MODEL        12
DOCKED: USER    Run = 12
DOCKED: USER
DOCKED: USER    Estimated Free Energy of Binding    =  -6.33 kcal/mol  [=(1)+(2)+(3)-(4)]
DOCKED: USER
DOCKED: USER    (1) Final Intermolecular Energy     =  -8.12 kcal/mol
DOCKED: USER        vdW + Hbond + desolv Energy     =  -8.24 kcal/mol
DOCKED: USER        Electrostatic Energy            =  +0.11 kcal/mol
DOCKED: USER        Moving Ligand-Fixed Receptor    =  -8.12 kcal/mol
DOCKED: USER        Moving Ligand-Moving Receptor   =  +0.00 kcal/mol
DOCKED: USER    (2) Final Total Internal Energy     =  -1.72 kcal/mol
DOCKED: USER    (3) Torsional Free Energy           =  +1.79 kcal/mol
DOCKED: USER    (4) Unbound System's Energy         =  -1.72 kcal/mol
DOCKED: USER
DOCKED: USER
DOCKED: REMARK SMILES [H]/N=c1/nc2nc3ccccn3c(O)c-2cc1C(=O)[N-][C@@H](C)c1ccccc1
DOCKED: REMARK SMILES IDX 18 1 19 2 17 3 3 4 4 5 5 6 16 7 6 8 15 9 7 10 13 11 8 12
DOCKED: REMARK SMILES IDX 12 13 9 14 11 15 10 16 2 17 1 18 14 19 20 21 21 22 22 23
DOCKED: REMARK SMILES IDX 23 24 24 25 28 26 25 27 27 28 26 29
DOCKED: REMARK H PARENT 14 20
DOCKED: USER                              x       y       z     vdW  Elec       q    Type
DOCKED: USER                           _______ _______ _______ _____ _____    ______ ____
DOCKED: ROOT
DOCKED: ATOM      1  C   UNL     1     137.958  78.915 222.025 -0.16 -0.02    +0.086 C  
DOCKED: ATOM      2  O   UNL     1     136.933  78.247 222.327 -0.09 +0.05    -0.315 OA 
DOCKED: ENDROOT
DOCKED: BRANCH   1   3
DOCKED: ATOM      3  C   UNL     1     139.127  78.252 221.404 -0.16 -0.01    +0.044 A  
DOCKED: ATOM      4  C   UNL     1     140.029  78.930 220.537 -0.10 -0.05    +0.156 A  
DOCKED: ATOM      5  N   UNL     1     141.128  78.286 220.063 -0.13 +0.10    -0.209 NA 
DOCKED: ATOM      6  C   UNL     1     141.400  76.996 220.364 -0.20 -0.08    +0.169 A  
DOCKED: ATOM      7  C   UNL     1     139.360  76.901 221.720 -0.26 -0.01    +0.031 A  
DOCKED: ATOM      8  N   UNL     1     142.507  76.402 219.873 -0.22 +0.13    -0.210 NA 
DOCKED: ATOM      9  C   UNL     1     140.484  76.230 221.220 -0.26 -0.02    +0.081 A  
DOCKED: ATOM     10  C   UNL     1     142.798  75.107 220.153 -0.27 -0.06    +0.141 A  
DOCKED: ATOM     11  C   UNL     1     140.812  74.883 221.484 -0.25 -0.04    +0.208 A  
DOCKED: ATOM     12  C   UNL     1     143.965  74.555 219.613 -0.35 -0.02    +0.048 A  
DOCKED: ATOM     13  N   UNL     1     141.963  74.345 220.951 -0.16 +0.07    -0.272 N  
DOCKED: ATOM     14  C   UNL     1     144.288  73.229 219.881 -0.37 -0.00    +0.005 A  
DOCKED: ATOM     15  C   UNL     1     142.289  73.036 221.211 -0.14 -0.01    +0.096 A  
DOCKED: ATOM     16  C   UNL     1     143.448  72.464 220.682 -0.30 -0.00    +0.019 A  
DOCKED: BRANCH   4  17
DOCKED: ATOM     17  N   UNL     1     139.823  80.149 220.140 -0.03 +0.08    -0.282 NA 
DOCKED: ATOM     18  H   UNL     1     139.103  80.793 220.533 +0.05 -0.04    +0.189 HD 
DOCKED: ENDBRANCH   4  17
DOCKED: BRANCH  11  19
DOCKED: ATOM     19  O   UNL     1     139.987  74.075 222.279 -0.74 +0.02    -0.494 OA 
DOCKED: ATOM     20  H   UNL     1     139.208  74.410 222.828 -0.44 -0.08    +0.295 HD 
DOCKED: ENDBRANCH  11  19
DOCKED: ENDBRANCH   1   3
DOCKED: BRANCH   1  21
DOCKED: ATOM     21  N   UNL     1     137.972  80.334 222.221 +0.04 +0.10    -0.643 NA 
DOCKED: BRANCH  21  22
DOCKED: ATOM     22  C   UNL     1     138.666  80.988 223.327 -0.29 +0.01    -0.079 C  
DOCKED: ATOM     23  C   UNL     1     137.984  80.620 224.644 -0.36 +0.00    -0.008 C  
DOCKED: BRANCH  22  24
DOCKED: ATOM     24  C   UNL     1     140.123  80.580 223.355 -0.39 +0.01    -0.063 A  
DOCKED: ATOM     25  C   UNL     1     141.103  81.363 222.718 -0.46 -0.00    +0.002 A  
DOCKED: ATOM     26  C   UNL     1     140.509  79.388 223.993 -0.43 -0.00    +0.002 A  
DOCKED: ATOM     27  C   UNL     1     142.444  80.969 222.737 -0.54 -0.00    +0.000 A  
DOCKED: ATOM     28  C   UNL     1     141.852  78.998 224.008 -0.60 -0.00    +0.000 A  
DOCKED: ATOM     29  C   UNL     1     142.818  79.789 223.383 -0.60 -0.00    +0.000 A  
DOCKED: ENDBRANCH  22  24
DOCKED: ENDBRANCH  21  22
DOCKED: ENDBRANCH   1  21
DOCKED: TORSDOF 6
DOCKED: TER
DOCKED: ENDMDL
________________________________________________________________________________


    FINAL DOCKED STATE:
    ________________________


Run:   13 / 20
Time taken for this run:   0.029s

DOCKED: MODEL        13
DOCKED: USER    Run = 13
DOCKED: USER
DOCKED: USER    Estimated Free Energy of Binding    =  -6.33 kcal/mol  [=(1)+(2)+(3)-(4)]
DOCKED: USER
DOCKED: USER    (1) Final Intermolecular Energy     =  -8.12 kcal/mol
DOCKED: USER        vdW + Hbond + desolv Energy     =  -8.23 kcal/mol
DOCKED: USER        Electrostatic Energy            =  +0.11 kcal/mol
DOCKED: USER        Moving Ligand-Fixed Receptor    =  -8.12 kcal/mol
DOCKED: USER        Moving Ligand-Moving Receptor   =  +0.00 kcal/mol
DOCKED: USER    (2) Final Total Internal Energy     =  -1.71 kcal/mol
DOCKED: USER    (3) Torsional Free Energy           =  +1.79 kcal/mol
DOCKED: USER    (4) Unbound System's Energy         =  -1.71 kcal/mol
DOCKED: USER
DOCKED: USER
DOCKED: REMARK SMILES [H]/N=c1/nc2nc3ccccn3c(O)c-2cc1C(=O)[N-][C@@H](C)c1ccccc1
DOCKED: REMARK SMILES IDX 18 1 19 2 17 3 3 4 4 5 5 6 16 7 6 8 15 9 7 10 13 11 8 12
DOCKED: REMARK SMILES IDX 12 13 9 14 11 15 10 16 2 17 1 18 14 19 20 21 21 22 22 23
DOCKED: REMARK SMILES IDX 23 24 24 25 28 26 25 27 27 28 26 29
DOCKED: REMARK H PARENT 14 20
DOCKED: USER                              x       y       z     vdW  Elec       q    Type
DOCKED: USER                           _______ _______ _______ _____ _____    ______ ____
DOCKED: ROOT
DOCKED: ATOM      1  C   UNL     1     137.948  78.861 221.979 -0.15 -0.02    +0.086 C  
DOCKED: ATOM      2  O   UNL     1     136.918  78.200 222.279 -0.08 +0.05    -0.315 OA 
DOCKED: ENDROOT
DOCKED: BRANCH   1   3
DOCKED: ATOM      3  C   UNL     1     139.111  78.191 221.354 -0.16 -0.01    +0.044 A  
DOCKED: ATOM      4  C   UNL     1     139.998  78.856 220.462 -0.10 -0.05    +0.156 A  
DOCKED: ATOM      5  N   UNL     1     141.092  78.207 219.984 -0.12 +0.10    -0.209 NA 
DOCKED: ATOM      6  C   UNL     1     141.374  76.924 220.305 -0.20 -0.08    +0.169 A  
DOCKED: ATOM      7  C   UNL     1     139.353  76.847 221.692 -0.26 -0.01    +0.031 A  
DOCKED: ATOM      8  N   UNL     1     142.476  76.325 219.810 -0.21 +0.12    -0.210 NA 
DOCKED: ATOM      9  C   UNL     1     140.473  76.171 221.188 -0.26 -0.02    +0.081 A  
DOCKED: ATOM     10  C   UNL     1     142.776  75.037 220.109 -0.27 -0.06    +0.141 A  
DOCKED: ATOM     11  C   UNL     1     140.811  74.830 221.472 -0.24 -0.04    +0.208 A  
DOCKED: ATOM     12  C   UNL     1     143.938  74.479 219.563 -0.34 -0.02    +0.048 A  
DOCKED: ATOM     13  N   UNL     1     141.956  74.287 220.933 -0.16 +0.06    -0.272 N  
DOCKED: ATOM     14  C   UNL     1     144.270  73.160 219.851 -0.36 -0.00    +0.005 A  
DOCKED: ATOM     15  C   UNL     1     142.291  72.984 221.213 -0.14 -0.01    +0.096 A  
DOCKED: ATOM     16  C   UNL     1     143.445  72.407 220.678 -0.30 -0.00    +0.019 A  
DOCKED: BRANCH   4  17
DOCKED: ATOM     17  N   UNL     1     139.781  80.066 220.045 -0.03 +0.08    -0.282 NA 
DOCKED: ATOM     18  H   UNL     1     139.150  80.755 220.509 +0.05 -0.04    +0.189 HD 
DOCKED: ENDBRANCH   4  17
DOCKED: BRANCH  11  19
DOCKED: ATOM     19  O   UNL     1     140.001  74.034 222.295 -0.74 +0.02    -0.494 OA 
DOCKED: ATOM     20  H   UNL     1     139.186  74.362 222.792 -0.45 -0.09    +0.295 HD 
DOCKED: ENDBRANCH  11  19
DOCKED: ENDBRANCH   1   3
DOCKED: BRANCH   1  21
DOCKED: ATOM     21  N   UNL     1     137.974  80.279 222.181 +0.04 +0.10    -0.643 NA 
DOCKED: BRANCH  21  22
DOCKED: ATOM     22  C   UNL     1     138.712  80.926 223.263 -0.30 +0.01    -0.079 C  
DOCKED: ATOM     23  C   UNL     1     138.071  80.564 224.602 -0.37 +0.00    -0.008 C  
DOCKED: BRANCH  22  24
DOCKED: ATOM     24  C   UNL     1     140.165  80.502 223.242 -0.39 +0.01    -0.063 A  
DOCKED: ATOM     25  C   UNL     1     140.579  79.317 223.879 -0.48 -0.00    +0.002 A  
DOCKED: ATOM     26  C   UNL     1     141.126  81.311 222.611 -0.45 -0.00    +0.002 A  
DOCKED: ATOM     27  C   UNL     1     141.925  78.942 223.866 -0.60 -0.00    +0.000 A  
DOCKED: ATOM     28  C   UNL     1     142.473  80.931 222.603 -0.54 -0.00    +0.000 A  
DOCKED: ATOM     29  C   UNL     1     142.871  79.747 223.227 -0.61 -0.00    +0.000 A  
DOCKED: ENDBRANCH  22  24
DOCKED: ENDBRANCH  21  22
DOCKED: ENDBRANCH   1  21
DOCKED: TORSDOF 6
DOCKED: TER
DOCKED: ENDMDL
________________________________________________________________________________


    FINAL DOCKED STATE:
    ________________________


Run:   14 / 20
Time taken for this run:   0.029s

DOCKED: MODEL        14
DOCKED: USER    Run = 14
DOCKED: USER
DOCKED: USER    Estimated Free Energy of Binding    =  -7.94 kcal/mol  [=(1)+(2)+(3)-(4)]
DOCKED: USER
DOCKED: USER    (1) Final Intermolecular Energy     =  -9.73 kcal/mol
DOCKED: USER        vdW + Hbond + desolv Energy     =  -9.71 kcal/mol
DOCKED: USER        Electrostatic Energy            =  -0.02 kcal/mol
DOCKED: USER        Moving Ligand-Fixed Receptor    =  -9.73 kcal/mol
DOCKED: USER        Moving Ligand-Moving Receptor   =  +0.00 kcal/mol
DOCKED: USER    (2) Final Total Internal Energy     =  -0.95 kcal/mol
DOCKED: USER    (3) Torsional Free Energy           =  +1.79 kcal/mol
DOCKED: USER    (4) Unbound System's Energy         =  -0.95 kcal/mol
DOCKED: USER
DOCKED: USER
DOCKED: REMARK SMILES [H]/N=c1/nc2nc3ccccn3c(O)c-2cc1C(=O)[N-][C@@H](C)c1ccccc1
DOCKED: REMARK SMILES IDX 18 1 19 2 17 3 3 4 4 5 5 6 16 7 6 8 15 9 7 10 13 11 8 12
DOCKED: REMARK SMILES IDX 12 13 9 14 11 15 10 16 2 17 1 18 14 19 20 21 21 22 22 23
DOCKED: REMARK SMILES IDX 23 24 24 25 28 26 25 27 27 28 26 29
DOCKED: REMARK H PARENT 14 20
DOCKED: USER                              x       y       z     vdW  Elec       q    Type
DOCKED: USER                           _______ _______ _______ _____ _____    ______ ____
DOCKED: ROOT
DOCKED: ATOM      1  C   UNL     1     135.720  69.520 224.562 -0.20 -0.01    +0.086 C  
DOCKED: ATOM      2  O   UNL     1     135.235  68.431 224.153 -0.54 -0.02    -0.315 OA 
DOCKED: ENDROOT
DOCKED: BRANCH   1   3
DOCKED: ATOM      3  C   UNL     1     134.863  70.509 225.253 -0.21 -0.00    +0.044 A  
DOCKED: ATOM      4  C   UNL     1     133.845  70.138 226.176 -0.25 -0.01    +0.156 A  
DOCKED: ATOM      5  N   UNL     1     133.145  71.097 226.837 -0.27 +0.02    -0.209 NA 
DOCKED: ATOM      6  C   UNL     1     133.359  72.418 226.640 -0.31 -0.01    +0.169 A  
DOCKED: ATOM      7  C   UNL     1     135.099  71.873 225.000 -0.11 -0.00    +0.031 A  
DOCKED: ATOM      8  N   UNL     1     132.643  73.332 227.325 -0.55 +0.02    -0.210 NA 
DOCKED: ATOM      9  C   UNL     1     134.367  72.864 225.669 -0.23 -0.00    +0.081 A  
DOCKED: ATOM     10  C   UNL     1     132.832  74.663 227.140 -0.30 +0.00    +0.141 A  
DOCKED: ATOM     11  C   UNL     1     134.533  74.255 225.495 -0.24 -0.00    +0.208 A  
DOCKED: ATOM     12  C   UNL     1     132.056  75.557 227.887 -0.31 +0.00    +0.048 A  
DOCKED: ATOM     13  N   UNL     1     133.767  75.130 226.234 -0.22 -0.01    -0.272 N  
DOCKED: ATOM     14  C   UNL     1     132.227  76.926 227.716 -0.33 +0.00    +0.005 A  
DOCKED: ATOM     15  C   UNL     1     133.930  76.485 226.071 -0.27 -0.01    +0.096 A  
DOCKED: ATOM     16  C   UNL     1     133.166  77.395 226.805 -0.31 -0.00    +0.019 A  
DOCKED: BRANCH   4  17
DOCKED: ATOM     17  N   UNL     1     133.522  68.898 226.387 -0.71 -0.02    -0.282 NA 
DOCKED: ATOM     18  H   UNL     1     133.849  68.089 225.817 +0.07 -0.01    +0.189 HD 
DOCKED: ENDBRANCH   4  17
DOCKED: BRANCH  11  19
DOCKED: ATOM     19  O   UNL     1     135.463  74.769 224.580 -0.17 +0.09    -0.494 OA 
DOCKED: ATOM     20  H   UNL     1     136.346  74.336 224.352 -0.32 -0.14    +0.295 HD 
DOCKED: ENDBRANCH  11  19
DOCKED: ENDBRANCH   1   3
DOCKED: BRANCH   1  21
DOCKED: ATOM     21  N   UNL     1     137.122  69.779 224.417 +0.03 +0.07    -0.643 NA 
DOCKED: BRANCH  21  22
DOCKED: ATOM     22  C   UNL     1     138.162  68.902 224.949 -0.32 +0.00    -0.079 C  
DOCKED: ATOM     23  C   UNL     1     138.867  68.193 223.794 -0.28 +0.00    -0.008 C  
DOCKED: BRANCH  22  24
DOCKED: ATOM     24  C   UNL     1     139.158  69.696 225.767 -0.38 +0.01    -0.063 A  
DOCKED: ATOM     25  C   UNL     1     139.910  70.732 225.181 -0.49 -0.00    +0.002 A  
DOCKED: ATOM     26  C   UNL     1     139.367  69.382 227.122 -0.51 -0.00    +0.002 A  
DOCKED: ATOM     27  C   UNL     1     140.837  71.449 225.941 -0.64 -0.00    +0.000 A  
DOCKED: ATOM     28  C   UNL     1     140.298  70.102 227.878 -0.64 -0.00    +0.000 A  
DOCKED: ATOM     29  C   UNL     1     141.030  71.136 227.288 -0.72 -0.00    +0.000 A  
DOCKED: ENDBRANCH  22  24
DOCKED: ENDBRANCH  21  22
DOCKED: ENDBRANCH   1  21
DOCKED: TORSDOF 6
DOCKED: TER
DOCKED: ENDMDL
________________________________________________________________________________


    FINAL DOCKED STATE:
    ________________________


Run:   15 / 20
Time taken for this run:   0.029s

DOCKED: MODEL        15
DOCKED: USER    Run = 15
DOCKED: USER
DOCKED: USER    Estimated Free Energy of Binding    =  -6.53 kcal/mol  [=(1)+(2)+(3)-(4)]
DOCKED: USER
DOCKED: USER    (1) Final Intermolecular Energy     =  -8.32 kcal/mol
DOCKED: USER        vdW + Hbond + desolv Energy     =  -8.39 kcal/mol
DOCKED: USER        Electrostatic Energy            =  +0.08 kcal/mol
DOCKED: USER        Moving Ligand-Fixed Receptor    =  -8.32 kcal/mol
DOCKED: USER        Moving Ligand-Moving Receptor   =  +0.00 kcal/mol
DOCKED: USER    (2) Final Total Internal Energy     =  -1.50 kcal/mol
DOCKED: USER    (3) Torsional Free Energy           =  +1.79 kcal/mol
DOCKED: USER    (4) Unbound System's Energy         =  -1.50 kcal/mol
DOCKED: USER
DOCKED: USER
DOCKED: REMARK SMILES [H]/N=c1/nc2nc3ccccn3c(O)c-2cc1C(=O)[N-][C@@H](C)c1ccccc1
DOCKED: REMARK SMILES IDX 18 1 19 2 17 3 3 4 4 5 5 6 16 7 6 8 15 9 7 10 13 11 8 12
DOCKED: REMARK SMILES IDX 12 13 9 14 11 15 10 16 2 17 1 18 14 19 20 21 21 22 22 23
DOCKED: REMARK SMILES IDX 23 24 24 25 28 26 25 27 27 28 26 29
DOCKED: REMARK H PARENT 14 20
DOCKED: USER                              x       y       z     vdW  Elec       q    Type
DOCKED: USER                           _______ _______ _______ _____ _____    ______ ____
DOCKED: ROOT
DOCKED: ATOM      1  C   UNL     1     138.532  78.756 221.401 -0.13 -0.02    +0.086 C  
DOCKED: ATOM      2  O   UNL     1     138.421  79.346 220.293 -0.02 +0.07    -0.315 OA 
DOCKED: ENDROOT
DOCKED: BRANCH   1   3
DOCKED: ATOM      3  C   UNL     1     139.295  77.491 221.502 -0.20 -0.01    +0.044 A  
DOCKED: ATOM      4  C   UNL     1     138.860  76.387 222.288 -0.26 -0.03    +0.156 A  
DOCKED: ATOM      5  N   UNL     1     139.565  75.226 222.275 -0.57 +0.03    -0.209 NA 
DOCKED: ATOM      6  C   UNL     1     140.698  75.071 221.552 -0.27 -0.03    +0.169 A  
DOCKED: ATOM      7  C   UNL     1     140.483  77.380 220.756 -0.21 -0.01    +0.031 A  
DOCKED: ATOM      8  N   UNL     1     141.358  73.895 221.568 -0.33 +0.02    -0.210 NA 
DOCKED: ATOM      9  C   UNL     1     141.220  76.187 220.753 -0.25 -0.03    +0.081 A  
DOCKED: ATOM     10  C   UNL     1     142.501  73.717 220.858 -0.20 -0.03    +0.141 A  
DOCKED: ATOM     11  C   UNL     1     142.415  75.971 220.034 -0.22 -0.11    +0.208 A  
DOCKED: ATOM     12  C   UNL     1     143.134  72.471 220.917 -0.22 -0.01    +0.048 A  
DOCKED: ATOM     13  N   UNL     1     143.033  74.741 220.095 -0.19 +0.11    -0.272 N  
DOCKED: ATOM     14  C   UNL     1     144.308  72.260 220.202 -0.35 -0.00    +0.005 A  
DOCKED: ATOM     15  C   UNL     1     144.193  74.524 219.391 -0.25 -0.04    +0.096 A  
DOCKED: ATOM     16  C   UNL     1     144.842  73.289 219.436 -0.36 -0.00    +0.019 A  
DOCKED: BRANCH   4  17
DOCKED: ATOM     17  N   UNL     1     137.821  76.458 223.063 -0.18 +0.06    -0.282 NA 
DOCKED: ATOM     18  H   UNL     1     137.345  77.340 223.348 +0.06 -0.03    +0.189 HD 
DOCKED: ENDBRANCH   4  17
DOCKED: BRANCH  11  19
DOCKED: ATOM     19  O   UNL     1     142.991  76.985 219.257 -0.17 +0.35    -0.494 OA 
DOCKED: ATOM     20  H   UNL     1     143.652  77.668 219.597 -0.40 -0.33    +0.295 HD 
DOCKED: ENDBRANCH  11  19
DOCKED: ENDBRANCH   1   3
DOCKED: BRANCH   1  21
DOCKED: ATOM     21  N   UNL     1     137.975  79.341 222.583 +0.02 +0.10    -0.643 NA 
DOCKED: BRANCH  21  22
DOCKED: ATOM     22  C   UNL     1     138.570  80.482 223.275 -0.31 +0.01    -0.079 C  
DOCKED: ATOM     23  C   UNL     1     138.051  80.533 224.711 -0.33 +0.00    -0.008 C  
DOCKED: BRANCH  22  24
DOCKED: ATOM     24  C   UNL     1     140.080  80.380 223.264 -0.39 +0.01    -0.063 A  
DOCKED: ATOM     25  C   UNL     1     140.865  81.372 222.646 -0.42 -0.00    +0.002 A  
DOCKED: ATOM     26  C   UNL     1     140.716  79.268 223.845 -0.51 -0.00    +0.002 A  
DOCKED: ATOM     27  C   UNL     1     142.258  81.261 222.629 -0.49 -0.00    +0.000 A  
DOCKED: ATOM     28  C   UNL     1     142.111  79.162 223.823 -0.58 -0.00    +0.000 A  
DOCKED: ATOM     29  C   UNL     1     142.880  80.158 223.218 -0.67 -0.00    +0.000 A  
DOCKED: ENDBRANCH  22  24
DOCKED: ENDBRANCH  21  22
DOCKED: ENDBRANCH   1  21
DOCKED: TORSDOF 6
DOCKED: TER
DOCKED: ENDMDL
________________________________________________________________________________


    FINAL DOCKED STATE:
    ________________________


Run:   16 / 20
Time taken for this run:   0.029s

DOCKED: MODEL        16
DOCKED: USER    Run = 16
DOCKED: USER
DOCKED: USER    Estimated Free Energy of Binding    =  -7.97 kcal/mol  [=(1)+(2)+(3)-(4)]
DOCKED: USER
DOCKED: USER    (1) Final Intermolecular Energy     =  -9.76 kcal/mol
DOCKED: USER        vdW + Hbond + desolv Energy     =  -9.75 kcal/mol
DOCKED: USER        Electrostatic Energy            =  -0.01 kcal/mol
DOCKED: USER        Moving Ligand-Fixed Receptor    =  -9.76 kcal/mol
DOCKED: USER        Moving Ligand-Moving Receptor   =  +0.00 kcal/mol
DOCKED: USER    (2) Final Total Internal Energy     =  -0.94 kcal/mol
DOCKED: USER    (3) Torsional Free Energy           =  +1.79 kcal/mol
DOCKED: USER    (4) Unbound System's Energy         =  -0.94 kcal/mol
DOCKED: USER
DOCKED: USER
DOCKED: REMARK SMILES [H]/N=c1/nc2nc3ccccn3c(O)c-2cc1C(=O)[N-][C@@H](C)c1ccccc1
DOCKED: REMARK SMILES IDX 18 1 19 2 17 3 3 4 4 5 5 6 16 7 6 8 15 9 7 10 13 11 8 12
DOCKED: REMARK SMILES IDX 12 13 9 14 11 15 10 16 2 17 1 18 14 19 20 21 21 22 22 23
DOCKED: REMARK SMILES IDX 23 24 24 25 28 26 25 27 27 28 26 29
DOCKED: REMARK H PARENT 14 20
DOCKED: USER                              x       y       z     vdW  Elec       q    Type
DOCKED: USER                           _______ _______ _______ _____ _____    ______ ____
DOCKED: ROOT
DOCKED: ATOM      1  C   UNL     1     135.714  69.539 224.518 -0.20 -0.01    +0.086 C  
DOCKED: ATOM      2  O   UNL     1     135.225  68.461 224.084 -0.56 -0.01    -0.315 OA 
DOCKED: ENDROOT
DOCKED: BRANCH   1   3
DOCKED: ATOM      3  C   UNL     1     134.855  70.524 225.213 -0.21 -0.00    +0.044 A  
DOCKED: ATOM      4  C   UNL     1     133.846  70.149 226.143 -0.24 -0.01    +0.156 A  
DOCKED: ATOM      5  N   UNL     1     133.146  71.105 226.808 -0.26 +0.02    -0.209 NA 
DOCKED: ATOM      6  C   UNL     1     133.351  72.427 226.607 -0.30 -0.01    +0.169 A  
DOCKED: ATOM      7  C   UNL     1     135.082  71.889 224.956 -0.15 -0.00    +0.031 A  
DOCKED: ATOM      8  N   UNL     1     132.634  73.338 227.296 -0.55 +0.02    -0.210 NA 
DOCKED: ATOM      9  C   UNL     1     134.350  72.877 225.629 -0.24 -0.00    +0.081 A  
DOCKED: ATOM     10  C   UNL     1     132.815  74.670 227.107 -0.31 +0.00    +0.141 A  
DOCKED: ATOM     11  C   UNL     1     134.507  74.269 225.452 -0.24 -0.00    +0.208 A  
DOCKED: ATOM     12  C   UNL     1     132.039  75.560 227.858 -0.31 +0.00    +0.048 A  
DOCKED: ATOM     13  N   UNL     1     133.741  75.141 226.195 -0.22 -0.00    -0.272 N  
DOCKED: ATOM     14  C   UNL     1     132.201  76.930 227.684 -0.34 +0.00    +0.005 A  
DOCKED: ATOM     15  C   UNL     1     133.895  76.496 226.028 -0.27 -0.01    +0.096 A  
DOCKED: ATOM     16  C   UNL     1     133.132  77.403 226.766 -0.30 -0.00    +0.019 A  
DOCKED: BRANCH   4  17
DOCKED: ATOM     17  N   UNL     1     133.531  68.908 226.358 -0.71 -0.02    -0.282 NA 
DOCKED: ATOM     18  H   UNL     1     133.863  68.099 225.790 +0.07 -0.01    +0.189 HD 
DOCKED: ENDBRANCH   4  17
DOCKED: BRANCH  11  19
DOCKED: ATOM     19  O   UNL     1     135.428  74.786 224.530 -0.17 +0.09    -0.494 OA 
DOCKED: ATOM     20  H   UNL     1     136.313  74.359 224.297 -0.31 -0.13    +0.295 HD 
DOCKED: ENDBRANCH  11  19
DOCKED: ENDBRANCH   1   3
DOCKED: BRANCH   1  21
DOCKED: ATOM     21  N   UNL     1     137.120  69.786 224.398 +0.03 +0.07    -0.643 NA 
DOCKED: BRANCH  21  22
DOCKED: ATOM     22  C   UNL     1     138.143  68.919 224.976 -0.31 +0.00    -0.079 C  
DOCKED: ATOM     23  C   UNL     1     138.849  68.153 223.858 -0.29 +0.00    -0.008 C  
DOCKED: BRANCH  22  24
DOCKED: ATOM     24  C   UNL     1     139.141  69.732 225.771 -0.37 +0.01    -0.063 A  
DOCKED: ATOM     25  C   UNL     1     139.888  70.756 225.157 -0.48 -0.00    +0.002 A  
DOCKED: ATOM     26  C   UNL     1     139.359  69.449 227.131 -0.50 -0.00    +0.002 A  
DOCKED: ATOM     27  C   UNL     1     140.818  71.491 225.897 -0.63 -0.00    +0.000 A  
DOCKED: ATOM     28  C   UNL     1     140.292  70.187 227.866 -0.64 -0.00    +0.000 A  
DOCKED: ATOM     29  C   UNL     1     141.019  71.209 227.250 -0.73 -0.00    +0.000 A  
DOCKED: ENDBRANCH  22  24
DOCKED: ENDBRANCH  21  22
DOCKED: ENDBRANCH   1  21
DOCKED: TORSDOF 6
DOCKED: TER
DOCKED: ENDMDL
________________________________________________________________________________


    FINAL DOCKED STATE:
    ________________________


Run:   17 / 20
Time taken for this run:   0.029s

DOCKED: MODEL        17
DOCKED: USER    Run = 17
DOCKED: USER
DOCKED: USER    Estimated Free Energy of Binding    =  -7.63 kcal/mol  [=(1)+(2)+(3)-(4)]
DOCKED: USER
DOCKED: USER    (1) Final Intermolecular Energy     =  -9.42 kcal/mol
DOCKED: USER        vdW + Hbond + desolv Energy     =  -9.43 kcal/mol
DOCKED: USER        Electrostatic Energy            =  +0.01 kcal/mol
DOCKED: USER        Moving Ligand-Fixed Receptor    =  -9.42 kcal/mol
DOCKED: USER        Moving Ligand-Moving Receptor   =  +0.00 kcal/mol
DOCKED: USER    (2) Final Total Internal Energy     =  -1.00 kcal/mol
DOCKED: USER    (3) Torsional Free Energy           =  +1.79 kcal/mol
DOCKED: USER    (4) Unbound System's Energy         =  -1.00 kcal/mol
DOCKED: USER
DOCKED: USER
DOCKED: REMARK SMILES [H]/N=c1/nc2nc3ccccn3c(O)c-2cc1C(=O)[N-][C@@H](C)c1ccccc1
DOCKED: REMARK SMILES IDX 18 1 19 2 17 3 3 4 4 5 5 6 16 7 6 8 15 9 7 10 13 11 8 12
DOCKED: REMARK SMILES IDX 12 13 9 14 11 15 10 16 2 17 1 18 14 19 20 21 21 22 22 23
DOCKED: REMARK SMILES IDX 23 24 24 25 28 26 25 27 27 28 26 29
DOCKED: REMARK H PARENT 14 20
DOCKED: USER                              x       y       z     vdW  Elec       q    Type
DOCKED: USER                           _______ _______ _______ _____ _____    ______ ____
DOCKED: ROOT
DOCKED: ATOM      1  C   UNL     1     135.838  69.747 224.566 -0.20 -0.01    +0.086 C  
DOCKED: ATOM      2  O   UNL     1     135.499  68.535 224.508 -0.49 -0.02    -0.315 OA 
DOCKED: ENDROOT
DOCKED: BRANCH   1   3
DOCKED: ATOM      3  C   UNL     1     134.961  70.738 225.229 -0.18 -0.00    +0.044 A  
DOCKED: ATOM      4  C   UNL     1     133.945  70.373 226.155 -0.25 -0.01    +0.156 A  
DOCKED: ATOM      5  N   UNL     1     133.226  71.336 226.790 -0.26 +0.02    -0.209 NA 
DOCKED: ATOM      6  C   UNL     1     133.420  72.656 226.562 -0.30 -0.00    +0.169 A  
DOCKED: ATOM      7  C   UNL     1     135.177  72.100 224.944 -0.10 -0.00    +0.031 A  
DOCKED: ATOM      8  N   UNL     1     132.686  73.574 227.222 -0.64 +0.01    -0.210 NA 
DOCKED: ATOM      9  C   UNL     1     134.426  73.095 225.586 -0.22 -0.00    +0.081 A  
DOCKED: ATOM     10  C   UNL     1     132.855  74.903 227.006 -0.31 +0.00    +0.141 A  
DOCKED: ATOM     11  C   UNL     1     134.570  74.484 225.379 -0.26 -0.01    +0.208 A  
DOCKED: ATOM     12  C   UNL     1     132.061  75.802 227.727 -0.33 +0.00    +0.048 A  
DOCKED: ATOM     13  N   UNL     1     133.787  75.364 226.094 -0.22 +0.00    -0.272 N  
DOCKED: ATOM     14  C   UNL     1     132.211  77.169 227.525 -0.32 -0.00    +0.005 A  
DOCKED: ATOM     15  C   UNL     1     133.929  76.716 225.899 -0.22 -0.01    +0.096 A  
DOCKED: ATOM     16  C   UNL     1     133.147  77.631 226.607 -0.27 -0.00    +0.019 A  
DOCKED: BRANCH   4  17
DOCKED: ATOM     17  N   UNL     1     133.641  69.134 226.395 -0.69 -0.02    -0.282 NA 
DOCKED: ATOM     18  H   UNL     1     134.123  68.308 225.981 +0.07 -0.01    +0.189 HD 
DOCKED: ENDBRANCH   4  17
DOCKED: BRANCH  11  19
DOCKED: ATOM     19  O   UNL     1     135.497  74.990 224.457 -0.17 +0.09    -0.494 OA 
DOCKED: ATOM     20  H   UNL     1     136.390  74.569 224.247 -0.27 -0.13    +0.295 HD 
DOCKED: ENDBRANCH  11  19
DOCKED: ENDBRANCH   1   3
DOCKED: BRANCH   1  21
DOCKED: ATOM     21  N   UNL     1     137.107  70.161 224.048 +0.03 +0.09    -0.643 NA 
DOCKED: BRANCH  21  22
DOCKED: ATOM     22  C   UNL     1     138.330  69.375 224.187 -0.28 +0.01    -0.079 C  
DOCKED: ATOM     23  C   UNL     1     139.127  69.440 222.884 -0.22 +0.00    -0.008 C  
DOCKED: BRANCH  22  24
DOCKED: ATOM     24  C   UNL     1     139.164  69.890 225.340 -0.37 +0.01    -0.063 A  
DOCKED: ATOM     25  C   UNL     1     139.949  71.050 225.202 -0.50 -0.00    +0.002 A  
DOCKED: ATOM     26  C   UNL     1     139.188  69.189 226.560 -0.49 -0.00    +0.002 A  
DOCKED: ATOM     27  C   UNL     1     140.726  71.508 226.268 -0.66 -0.00    +0.000 A  
DOCKED: ATOM     28  C   UNL     1     139.969  69.652 227.624 -0.61 -0.00    +0.000 A  
DOCKED: ATOM     29  C   UNL     1     140.735  70.811 227.479 -0.69 -0.00    +0.000 A  
DOCKED: ENDBRANCH  22  24
DOCKED: ENDBRANCH  21  22
DOCKED: ENDBRANCH   1  21
DOCKED: TORSDOF 6
DOCKED: TER
DOCKED: ENDMDL
________________________________________________________________________________


    FINAL DOCKED STATE:
    ________________________


Run:   18 / 20
Time taken for this run:   0.029s

DOCKED: MODEL        18
DOCKED: USER    Run = 18
DOCKED: USER
DOCKED: USER    Estimated Free Energy of Binding    =  -7.82 kcal/mol  [=(1)+(2)+(3)-(4)]
DOCKED: USER
DOCKED: USER    (1) Final Intermolecular Energy     =  -9.61 kcal/mol
DOCKED: USER        vdW + Hbond + desolv Energy     =  -9.56 kcal/mol
DOCKED: USER        Electrostatic Energy            =  -0.05 kcal/mol
DOCKED: USER        Moving Ligand-Fixed Receptor    =  -9.61 kcal/mol
DOCKED: USER        Moving Ligand-Moving Receptor   =  +0.00 kcal/mol
DOCKED: USER    (2) Final Total Internal Energy     =  -1.01 kcal/mol
DOCKED: USER    (3) Torsional Free Energy           =  +1.79 kcal/mol
DOCKED: USER    (4) Unbound System's Energy         =  -1.01 kcal/mol
DOCKED: USER
DOCKED: USER
DOCKED: REMARK SMILES [H]/N=c1/nc2nc3ccccn3c(O)c-2cc1C(=O)[N-][C@@H](C)c1ccccc1
DOCKED: REMARK SMILES IDX 18 1 19 2 17 3 3 4 4 5 5 6 16 7 6 8 15 9 7 10 13 11 8 12
DOCKED: REMARK SMILES IDX 12 13 9 14 11 15 10 16 2 17 1 18 14 19 20 21 21 22 22 23
DOCKED: REMARK SMILES IDX 23 24 24 25 28 26 25 27 27 28 26 29
DOCKED: REMARK H PARENT 14 20
DOCKED: USER                              x       y       z     vdW  Elec       q    Type
DOCKED: USER                           _______ _______ _______ _____ _____    ______ ____
DOCKED: ROOT
DOCKED: ATOM      1  C   UNL     1     135.591  69.320 224.453 -0.20 -0.00    +0.086 C  
DOCKED: ATOM      2  O   UNL     1     135.075  68.188 224.247 -0.62 -0.03    -0.315 OA 
DOCKED: ENDROOT
DOCKED: BRANCH   1   3
DOCKED: ATOM      3  C   UNL     1     134.814  70.385 225.127 -0.21 -0.00    +0.044 A  
DOCKED: ATOM      4  C   UNL     1     133.840  70.114 226.129 -0.24 -0.01    +0.156 A  
DOCKED: ATOM      5  N   UNL     1     133.218  71.141 226.766 -0.26 +0.02    -0.209 NA 
DOCKED: ATOM      6  C   UNL     1     133.469  72.437 226.471 -0.29 -0.01    +0.169 A  
DOCKED: ATOM      7  C   UNL     1     135.085  71.720 224.772 -0.17 -0.00    +0.031 A  
DOCKED: ATOM      8  N   UNL     1     132.830  73.421 227.136 -0.68 +0.01    -0.210 NA 
DOCKED: ATOM      9  C   UNL     1     134.433  72.780 225.417 -0.23 -0.00    +0.081 A  
DOCKED: ATOM     10  C   UNL     1     133.057  74.728 226.854 -0.28 +0.01    +0.141 A  
DOCKED: ATOM     11  C   UNL     1     134.639  74.149 225.144 -0.24 -0.01    +0.208 A  
DOCKED: ATOM     12  C   UNL     1     132.361  75.698 227.585 -0.34 +0.00    +0.048 A  
DOCKED: ATOM     13  N   UNL     1     133.953  75.099 225.868 -0.21 +0.00    -0.272 N  
DOCKED: ATOM     14  C   UNL     1     132.573  77.046 227.316 -0.34 -0.00    +0.005 A  
DOCKED: ATOM     15  C   UNL     1     134.156  76.433 225.608 -0.23 -0.01    +0.096 A  
DOCKED: ATOM     16  C   UNL     1     133.472  77.418 226.324 -0.24 -0.00    +0.019 A  
DOCKED: BRANCH   4  17
DOCKED: ATOM     17  N   UNL     1     133.485  68.905 226.438 -0.69 -0.03    -0.282 NA 
DOCKED: ATOM     18  H   UNL     1     133.856  68.039 225.992 +0.07 -0.01    +0.189 HD 
DOCKED: ENDBRANCH   4  17
DOCKED: BRANCH  11  19
DOCKED: ATOM     19  O   UNL     1     135.531  74.565 224.145 -0.13 +0.11    -0.494 OA 
DOCKED: ATOM     20  H   UNL     1     136.479  74.232 224.043 -0.36 -0.15    +0.295 HD 
DOCKED: ENDBRANCH  11  19
DOCKED: ENDBRANCH   1   3
DOCKED: BRANCH   1  21
DOCKED: ATOM     21  N   UNL     1     136.956  69.561 224.094 +0.02 +0.06    -0.643 NA 
DOCKED: BRANCH  21  22
DOCKED: ATOM     22  C   UNL     1     138.072  68.751 224.577 -0.23 +0.00    -0.079 C  
DOCKED: ATOM     23  C   UNL     1     138.823  68.160 223.385 -0.28 +0.00    -0.008 C  
DOCKED: BRANCH  22  24
DOCKED: ATOM     24  C   UNL     1     139.005  69.585 225.427 -0.37 +0.01    -0.063 A  
DOCKED: ATOM     25  C   UNL     1     139.223  69.269 226.782 -0.49 -0.00    +0.002 A  
DOCKED: ATOM     26  C   UNL     1     139.640  70.713 224.878 -0.44 -0.00    +0.002 A  
DOCKED: ATOM     27  C   UNL     1     140.075  70.055 227.562 -0.61 -0.00    +0.000 A  
DOCKED: ATOM     28  C   UNL     1     140.491  71.497 225.665 -0.57 -0.00    +0.000 A  
DOCKED: ATOM     29  C   UNL     1     140.709  71.167 227.004 -0.71 -0.00    +0.000 A  
DOCKED: ENDBRANCH  22  24
DOCKED: ENDBRANCH  21  22
DOCKED: ENDBRANCH   1  21
DOCKED: TORSDOF 6
DOCKED: TER
DOCKED: ENDMDL
________________________________________________________________________________


    FINAL DOCKED STATE:
    ________________________


Run:   19 / 20
Time taken for this run:   0.029s

DOCKED: MODEL        19
DOCKED: USER    Run = 19
DOCKED: USER
DOCKED: USER    Estimated Free Energy of Binding    =  -7.09 kcal/mol  [=(1)+(2)+(3)-(4)]
DOCKED: USER
DOCKED: USER    (1) Final Intermolecular Energy     =  -8.88 kcal/mol
DOCKED: USER        vdW + Hbond + desolv Energy     =  -8.06 kcal/mol
DOCKED: USER        Electrostatic Energy            =  -0.82 kcal/mol
DOCKED: USER        Moving Ligand-Fixed Receptor    =  -8.88 kcal/mol
DOCKED: USER        Moving Ligand-Moving Receptor   =  +0.00 kcal/mol
DOCKED: USER    (2) Final Total Internal Energy     =  -1.01 kcal/mol
DOCKED: USER    (3) Torsional Free Energy           =  +1.79 kcal/mol
DOCKED: USER    (4) Unbound System's Energy         =  -1.01 kcal/mol
DOCKED: USER
DOCKED: USER
DOCKED: REMARK SMILES [H]/N=c1/nc2nc3ccccn3c(O)c-2cc1C(=O)[N-][C@@H](C)c1ccccc1
DOCKED: REMARK SMILES IDX 18 1 19 2 17 3 3 4 4 5 5 6 16 7 6 8 15 9 7 10 13 11 8 12
DOCKED: REMARK SMILES IDX 12 13 9 14 11 15 10 16 2 17 1 18 14 19 20 21 21 22 22 23
DOCKED: REMARK SMILES IDX 23 24 24 25 28 26 25 27 27 28 26 29
DOCKED: REMARK H PARENT 14 20
DOCKED: USER                              x       y       z     vdW  Elec       q    Type
DOCKED: USER                           _______ _______ _______ _____ _____    ______ ____
DOCKED: ROOT
DOCKED: ATOM      1  C   UNL     1     145.582  72.545 219.379 -0.32 +0.04    +0.086 C  
DOCKED: ATOM      2  O   UNL     1     146.427  73.421 219.049 -0.68 -0.22    -0.315 OA 
DOCKED: ENDROOT
DOCKED: BRANCH   1   3
DOCKED: ATOM      3  C   UNL     1     144.283  72.943 219.966 -0.34 -0.01    +0.044 A  
DOCKED: ATOM      4  C   UNL     1     143.431  72.030 220.648 -0.22 -0.02    +0.156 A  
DOCKED: ATOM      5  N   UNL     1     142.288  72.475 221.234 -0.14 +0.02    -0.209 NA 
DOCKED: ATOM      6  C   UNL     1     141.901  73.770 221.179 -0.15 -0.03    +0.169 A  
DOCKED: ATOM      7  C   UNL     1     143.902  74.295 219.863 -0.37 -0.01    +0.031 A  
DOCKED: ATOM      8  N   UNL     1     140.761  74.165 221.782 -0.62 +0.01    -0.210 NA 
DOCKED: ATOM      9  C   UNL     1     142.717  74.753 220.453 -0.29 -0.03    +0.081 A  
DOCKED: ATOM     10  C   UNL     1     140.346  75.456 221.735 -0.28 -0.03    +0.141 A  
DOCKED: ATOM     11  C   UNL     1     142.252  76.086 220.417 -0.13 -0.12    +0.208 A  
DOCKED: ATOM     12  C   UNL     1     139.154  75.796 222.384 -0.30 -0.01    +0.048 A  
DOCKED: ATOM     13  N   UNL     1     141.079  76.415 221.060 -0.17 +0.11    -0.272 N  
DOCKED: ATOM     14  C   UNL     1     138.703  77.111 222.351 -0.30 -0.00    +0.005 A  
DOCKED: ATOM     15  C   UNL     1     140.626  77.712 221.032 -0.22 -0.04    +0.096 A  
DOCKED: ATOM     16  C   UNL     1     139.440  78.075 221.673 -0.22 -0.00    +0.019 A  
DOCKED: BRANCH   4  17
DOCKED: ATOM     17  N   UNL     1     143.684  70.758 220.702 +0.02 +0.03    -0.282 NA 
DOCKED: ATOM     18  H   UNL     1     144.632  70.332 220.629 -0.06 +0.00    +0.189 HD 
DOCKED: ENDBRANCH   4  17
DOCKED: BRANCH  11  19
DOCKED: ATOM     19  O   UNL     1     142.960  77.085 219.736 -0.16 +0.38    -0.494 OA 
DOCKED: ATOM     20  H   UNL     1     143.848  77.466 220.030 -0.43 -0.36    +0.295 HD 
DOCKED: ENDBRANCH  11  19
DOCKED: ENDBRANCH   1   3
DOCKED: BRANCH   1  21
DOCKED: ATOM     21  N   UNL     1     145.849  71.161 219.125 -0.13 -0.51    -0.643 NA 
DOCKED: BRANCH  21  22
DOCKED: ATOM     22  C   UNL     1     145.190  70.393 218.073 -0.18 -0.03    -0.079 C  
DOCKED: ATOM     23  C   UNL     1     145.943  70.583 216.757 -0.13 -0.00    -0.008 C  
DOCKED: BRANCH  22  24
DOCKED: ATOM     24  C   UNL     1     145.135  68.926 218.442 -0.25 -0.01    -0.063 A  
DOCKED: ATOM     25  C   UNL     1     143.902  68.277 218.638 -0.22 -0.00    +0.002 A  
DOCKED: ATOM     26  C   UNL     1     146.326  68.201 218.627 -0.37 +0.00    +0.002 A  
DOCKED: ATOM     27  C   UNL     1     143.863  66.926 218.993 -0.33 -0.00    +0.000 A  
DOCKED: ATOM     28  C   UNL     1     146.281  66.849 218.984 -0.56 -0.00    +0.000 A  
DOCKED: ATOM     29  C   UNL     1     145.051  66.212 219.164 -0.48 -0.00    +0.000 A  
DOCKED: ENDBRANCH  22  24
DOCKED: ENDBRANCH  21  22
DOCKED: ENDBRANCH   1  21
DOCKED: TORSDOF 6
DOCKED: TER
DOCKED: ENDMDL
________________________________________________________________________________


    FINAL DOCKED STATE:
    ________________________


Run:   20 / 20
Time taken for this run:   0.029s

DOCKED: MODEL        20
DOCKED: USER    Run = 20
DOCKED: USER
DOCKED: USER    Estimated Free Energy of Binding    =  -7.89 kcal/mol  [=(1)+(2)+(3)-(4)]
DOCKED: USER
DOCKED: USER    (1) Final Intermolecular Energy     =  -9.68 kcal/mol
DOCKED: USER        vdW + Hbond + desolv Energy     =  -9.65 kcal/mol
DOCKED: USER        Electrostatic Energy            =  -0.03 kcal/mol
DOCKED: USER        Moving Ligand-Fixed Receptor    =  -9.68 kcal/mol
DOCKED: USER        Moving Ligand-Moving Receptor   =  +0.00 kcal/mol
DOCKED: USER    (2) Final Total Internal Energy     =  -0.98 kcal/mol
DOCKED: USER    (3) Torsional Free Energy           =  +1.79 kcal/mol
DOCKED: USER    (4) Unbound System's Energy         =  -0.98 kcal/mol
DOCKED: USER
DOCKED: USER
DOCKED: REMARK SMILES [H]/N=c1/nc2nc3ccccn3c(O)c-2cc1C(=O)[N-][C@@H](C)c1ccccc1
DOCKED: REMARK SMILES IDX 18 1 19 2 17 3 3 4 4 5 5 6 16 7 6 8 15 9 7 10 13 11 8 12
DOCKED: REMARK SMILES IDX 12 13 9 14 11 15 10 16 2 17 1 18 14 19 20 21 21 22 22 23
DOCKED: REMARK SMILES IDX 23 24 24 25 28 26 25 27 27 28 26 29
DOCKED: REMARK H PARENT 14 20
DOCKED: USER                              x       y       z     vdW  Elec       q    Type
DOCKED: USER                           _______ _______ _______ _____ _____    ______ ____
DOCKED: ROOT
DOCKED: ATOM      1  C   UNL     1     135.605  69.430 224.540 -0.20 -0.00    +0.086 C  
DOCKED: ATOM      2  O   UNL     1     135.129  68.308 224.219 -0.58 -0.03    -0.315 OA 
DOCKED: ENDROOT
DOCKED: BRANCH   1   3
DOCKED: ATOM      3  C   UNL     1     134.757  70.437 225.218 -0.21 -0.00    +0.044 A  
DOCKED: ATOM      4  C   UNL     1     133.720  70.086 226.128 -0.24 -0.01    +0.156 A  
DOCKED: ATOM      5  N   UNL     1     133.030  71.060 226.778 -0.25 +0.02    -0.209 NA 
DOCKED: ATOM      6  C   UNL     1     133.271  72.377 226.581 -0.30 -0.01    +0.169 A  
DOCKED: ATOM      7  C   UNL     1     135.021  71.796 224.965 -0.16 -0.00    +0.031 A  
DOCKED: ATOM      8  N   UNL     1     132.563  73.305 227.255 -0.50 +0.02    -0.210 NA 
DOCKED: ATOM      9  C   UNL     1     134.300  72.801 225.623 -0.25 -0.00    +0.081 A  
DOCKED: ATOM     10  C   UNL     1     132.780  74.632 227.070 -0.31 +0.00    +0.141 A  
DOCKED: ATOM     11  C   UNL     1     134.494  74.189 225.449 -0.24 -0.00    +0.208 A  
DOCKED: ATOM     12  C   UNL     1     132.011  75.541 227.805 -0.33 +0.00    +0.048 A  
DOCKED: ATOM     13  N   UNL     1     133.736  75.080 226.176 -0.22 -0.00    -0.272 N  
DOCKED: ATOM     14  C   UNL     1     132.210  76.907 227.634 -0.34 +0.00    +0.005 A  
DOCKED: ATOM     15  C   UNL     1     133.926  76.430 226.013 -0.28 -0.01    +0.096 A  
DOCKED: ATOM     16  C   UNL     1     133.170  77.356 226.735 -0.30 -0.00    +0.019 A  
DOCKED: BRANCH   4  17
DOCKED: ATOM     17  N   UNL     1     133.371  68.854 226.337 -0.68 -0.02    -0.282 NA 
DOCKED: ATOM     18  H   UNL     1     133.743  68.030 225.817 +0.07 -0.01    +0.189 HD 
DOCKED: ENDBRANCH   4  17
DOCKED: BRANCH  11  19
DOCKED: ATOM     19  O   UNL     1     135.446  74.683 224.545 -0.17 +0.09    -0.494 OA 
DOCKED: ATOM     20  H   UNL     1     136.324  74.233 224.330 -0.34 -0.13    +0.295 HD 
DOCKED: ENDBRANCH  11  19
DOCKED: ENDBRANCH   1   3
DOCKED: BRANCH   1  21
DOCKED: ATOM     21  N   UNL     1     136.989  69.713 224.309 +0.03 +0.07    -0.643 NA 
DOCKED: BRANCH  21  22
DOCKED: ATOM     22  C   UNL     1     138.077  68.868 224.794 -0.29 +0.00    -0.079 C  
DOCKED: ATOM     23  C   UNL     1     138.823  68.266 223.604 -0.29 +0.00    -0.008 C  
DOCKED: BRANCH  22  24
DOCKED: ATOM     24  C   UNL     1     139.025  69.668 225.661 -0.37 +0.01    -0.063 A  
DOCKED: ATOM     25  C   UNL     1     139.745  70.754 225.129 -0.47 -0.00    +0.002 A  
DOCKED: ATOM     26  C   UNL     1     139.222  69.311 227.007 -0.48 -0.00    +0.002 A  
DOCKED: ATOM     27  C   UNL     1     140.629  71.477 225.934 -0.62 -0.00    +0.000 A  
DOCKED: ATOM     28  C   UNL     1     140.110  70.038 227.807 -0.63 -0.00    +0.000 A  
DOCKED: ATOM     29  C   UNL     1     140.810  71.121 227.272 -0.72 -0.00    +0.000 A  
DOCKED: ENDBRANCH  22  24
DOCKED: ENDBRANCH  21  22
DOCKED: ENDBRANCH   1  21
DOCKED: TORSDOF 6
DOCKED: TER
DOCKED: ENDMDL
________________________________________________________________________________


    CLUSTERING HISTOGRAM
    ____________________


________________________________________________________________________________
     |           |     |           |     |
Clus | Lowest    | Run | Mean      | Num | Histogram
-ter | Binding   |     | Binding   | in  |
Rank | Energy    |     | Energy    | Clus|    5    10   15   20   25   30   35
_____|___________|_____|___________|_____|____:____|____:____|____:____|____:___
   1 |     -7.98 |   4 |     -7.84 |  11 |###########
   2 |     -7.09 |  19 |     -7.09 |   1 |#
   3 |     -6.65 |   6 |     -6.65 |   1 |#
   4 |     -6.55 |   5 |     -6.51 |   3 |###
   5 |     -6.41 |   9 |     -6.37 |   4 |####
_____|___________|_____|___________|_____|______________________________________


    RMSD TABLE
    __________


_______________________________________________________________________
     |      |      |           |         |                 |
Rank | Sub- | Run  | Binding   | Cluster | Reference       | Grep
     | Rank |      | Energy    | RMSD    | RMSD            | Pattern
_____|______|______|___________|_________|_________________|___________
   1      1      4       -7.98      0.00    269.31           RANKING
   1      2     16       -7.97      0.03    269.29           RANKING
   1      3      7       -7.96      0.08    269.29           RANKING
   1      4     14       -7.94      0.06    269.31           RANKING
   1      5      8       -7.94      0.76    269.25           RANKING
   1      6      1       -7.93      0.11    269.30           RANKING
   1      7     20       -7.89      0.17    269.21           RANKING
   1      8     18       -7.82      0.38    269.09           RANKING
   1      9     10       -7.65      0.47    269.29           RANKING
   1     10     17       -7.63      0.49    269.27           RANKING
   1     11      2       -7.59      1.16    269.06           RANKING
   2      1     19       -7.09      0.00    268.63           RANKING
   3      1      6       -6.65      0.00    269.01           RANKING
   4      1      5       -6.55      0.00    269.87           RANKING
   4      2     15       -6.53      0.11    269.88           RANKING
   4      3     11       -6.46      0.14    269.86           RANKING
   5      1      9       -6.41      0.00    269.89           RANKING
   5      2      3       -6.41      0.04    269.88           RANKING
   5      3     12       -6.33      0.15    269.88           RANKING
   5      4     13       -6.33      0.17    269.82           RANKING

Run time 0.533 sec
Idle time 0.000 sec
