AutoDock-GPU version: v1.6

**********************************************************
**    AutoDock-GPU AUTODOCKTOOLS-COMPATIBLE DLG FILE    **
**********************************************************


    DOCKING PARAMETERS
    ________________________


Ligand file:                               /home/a/REINVENT4/ReinventStudies/scoringData/graph-dock-h4r84i/graph-DockGPU/node-autodockgpu/inputs/HDANWICVGDYKAH-VKKAQRDPNA-M.pdbqt
Grid fld file:                             /home/a/REINVENT4/ReinventStudies/mols/Rad51/maps/rad51_receptor.maps.fld

Random seed:                               42
Number of runs:                            20
Number of energy evaluations:              1132076
Number of generations:                     42000
Size of population:                        150
Rate of crossover:                         80.000000%
Tournament selection probability limit:    60.000000%
Rate of mutation:                          2.000000%
Maximal allowed delta movement:            +/- 6.000000A
Maximal allowed delta angle:               +/- 90.000000

Rate of local search:                      100.000000%
Maximal number of local search iterations: 300
Rho lower bound:                           0.010000
Spread of local search delta movement:     2.000000A
Spread of local search delta angle:        74.999999
Limit of consecutive successes/failures:   4

Handle symmetry during clustering:         YES
RMSD tolerance:                            2.000000A

Program call in command line was:          /home/a/REINVENT4/ReinventStudies/adgpu-v1.6_linux_x64_cuda12_128wi --filelist batch.txt --heuristics 1 --nrun 20 --psize 150 --lsit 300 --seed 42 --heurmax 12000000 


    GRID PARAMETERS
    ________________________


Receptor name:                             rad51_receptor
Number of grid points (x, y, z):           53, 53, 53
Grid center (x, y, z):                     139.950000, 75.640000, 221.970000A
Grid size (x, y, z):                       19.500000, 19.500000, 19.500000A
Grid spacing:                              0.375000A


    LIGAND PARAMETERS
    ________________________


Ligand name:                               /home/a/REINVENT4/ReinventStudies/scoringData/graph-dock-h4r84i/graph-DockGPU/node-autodockgpu/inputs/HDANWICVGDYKAH-VKKAQRDPNA-M
Number of atoms:                           29
Number of rotatable bonds:                 6
Number of atom types:                      6


    DUMMY DATA (only for ADT-compatibility)
    ________________________


DPF> outlev 1
DPF> ga_run 20
DPF> fld /home/a/REINVENT4/ReinventStudies/mols/Rad51/maps/rad51_receptor.maps.fld
DPF> move /home/a/REINVENT4/ReinventStudies/scoringData/graph-dock-h4r84i/graph-DockGPU/node-autodockgpu/inputs/HDANWICVGDYKAH-VKKAQRDPNA-M.pdbqt


    COUNTER STATES
    ________________________


Number of energy evaluations performed:    864367
Number of generations used:                40


    INPUT LIGAND PDBQT FILE:
    ________________________


INPUT-LIGAND-PDBQT: REMARK SMILES [H]/N=c1\nc2nc3ccccn3c(O)c-2cc1C(=O)[N-][C@@H](C)c1ccccc1
INPUT-LIGAND-PDBQT: REMARK SMILES IDX 18 1 19 2 17 3 3 4 4 5 5 6 16 7 6 8 15 9 7 10 13 11 8 12
INPUT-LIGAND-PDBQT: REMARK SMILES IDX 12 13 9 14 11 15 10 16 2 17 1 18 14 19 20 21 21 22 22 23
INPUT-LIGAND-PDBQT: REMARK SMILES IDX 23 24 24 25 28 26 25 27 27 28 26 29
INPUT-LIGAND-PDBQT: REMARK H PARENT 14 20
INPUT-LIGAND-PDBQT: ROOT
INPUT-LIGAND-PDBQT: ATOM      1  C   UNL     1       2.179   2.080  -1.297  1.00  0.00     0.086 C 
INPUT-LIGAND-PDBQT: ATOM      2  O   UNL     1       2.004   3.076  -2.046  1.00  0.00    -0.315 OA
INPUT-LIGAND-PDBQT: ENDROOT
INPUT-LIGAND-PDBQT: BRANCH   1   3
INPUT-LIGAND-PDBQT: ATOM      3  C   UNL     1       1.110   1.704  -0.355  1.00  0.00     0.044 A 
INPUT-LIGAND-PDBQT: ATOM      4  C   UNL     1       0.857   2.463   0.810  1.00  0.00     0.156 A 
INPUT-LIGAND-PDBQT: ATOM      5  N   UNL     1      -0.126   2.088   1.675  1.00  0.00    -0.209 NA
INPUT-LIGAND-PDBQT: ATOM      6  C   UNL     1      -0.904   1.002   1.444  1.00  0.00     0.169 A 
INPUT-LIGAND-PDBQT: ATOM      7  C   UNL     1       0.298   0.601  -0.657  1.00  0.00     0.031 A 
INPUT-LIGAND-PDBQT: ATOM      8  N   UNL     1      -1.849   0.631   2.329  1.00  0.00    -0.210 NA
INPUT-LIGAND-PDBQT: ATOM      9  C   UNL     1      -0.714   0.213   0.226  1.00  0.00     0.081 A 
INPUT-LIGAND-PDBQT: ATOM     10  C   UNL     1      -2.638  -0.453   2.110  1.00  0.00     0.141 A 
INPUT-LIGAND-PDBQT: ATOM     11  C   UNL     1      -1.528  -0.910   0.032  1.00  0.00     0.208 A 
INPUT-LIGAND-PDBQT: ATOM     12  C   UNL     1      -3.603  -0.768   3.073  1.00  0.00     0.048 A 
INPUT-LIGAND-PDBQT: ATOM     13  N   UNL     1      -2.505  -1.221   0.961  1.00  0.00    -0.272 N 
INPUT-LIGAND-PDBQT: ATOM     14  C   UNL     1      -4.451  -1.850   2.874  1.00  0.00     0.005 A 
INPUT-LIGAND-PDBQT: ATOM     15  C   UNL     1      -3.369  -2.273   0.763  1.00  0.00     0.096 A 
INPUT-LIGAND-PDBQT: ATOM     16  C   UNL     1      -4.340  -2.602   1.712  1.00  0.00     0.019 A 
INPUT-LIGAND-PDBQT: BRANCH   4  17
INPUT-LIGAND-PDBQT: ATOM     17  N   UNL     1       1.565   3.516   1.070  1.00  0.00    -0.282 NA
INPUT-LIGAND-PDBQT: ATOM     18  H   UNL     1       1.400   4.090   1.927  1.00  0.00     0.189 HD
INPUT-LIGAND-PDBQT: ENDBRANCH   4  17
INPUT-LIGAND-PDBQT: BRANCH  11  19
INPUT-LIGAND-PDBQT: ATOM     19  O   UNL     1      -1.291  -1.691  -1.109  1.00  0.00    -0.494 OA
INPUT-LIGAND-PDBQT: ATOM     20  H   UNL     1      -1.650  -2.620  -1.267  1.00  0.00     0.295 HD
INPUT-LIGAND-PDBQT: ENDBRANCH  11  19
INPUT-LIGAND-PDBQT: ENDBRANCH   1   3
INPUT-LIGAND-PDBQT: BRANCH   1  21
INPUT-LIGAND-PDBQT: ATOM     21  N   UNL     1       3.395   1.326  -1.418  1.00  0.00    -0.643 NA
INPUT-LIGAND-PDBQT: BRANCH  21  22
INPUT-LIGAND-PDBQT: ATOM     22  C   UNL     1       3.991   0.419  -0.431  1.00  0.00    -0.079 C 
INPUT-LIGAND-PDBQT: ATOM     23  C   UNL     1       4.441   1.201   0.809  1.00  0.00    -0.008 C 
INPUT-LIGAND-PDBQT: BRANCH  22  24
INPUT-LIGAND-PDBQT: ATOM     24  C   UNL     1       3.099  -0.782  -0.156  1.00  0.00    -0.063 A 
INPUT-LIGAND-PDBQT: ATOM     25  C   UNL     1       2.860  -1.693  -1.202  1.00  0.00     0.002 A 
INPUT-LIGAND-PDBQT: ATOM     26  C   UNL     1       2.493  -1.018   1.098  1.00  0.00     0.002 A 
INPUT-LIGAND-PDBQT: ATOM     27  C   UNL     1       2.034  -2.803  -1.005  1.00  0.00     0.000 A 
INPUT-LIGAND-PDBQT: ATOM     28  C   UNL     1       1.669  -2.132   1.288  1.00  0.00     0.000 A 
INPUT-LIGAND-PDBQT: ATOM     29  C   UNL     1       1.440  -3.023   0.238  1.00  0.00     0.000 A 
INPUT-LIGAND-PDBQT: ENDBRANCH  22  24
INPUT-LIGAND-PDBQT: ENDBRANCH  21  22
INPUT-LIGAND-PDBQT: ENDBRANCH   1  21
INPUT-LIGAND-PDBQT: TORSDOF 6


    FINAL DOCKED STATE:
    ________________________


Run:   1 / 20
Time taken for this run:   0.032s

DOCKED: MODEL        1
DOCKED: USER    Run = 1
DOCKED: USER
DOCKED: USER    Estimated Free Energy of Binding    =  -7.95 kcal/mol  [=(1)+(2)+(3)-(4)]
DOCKED: USER
DOCKED: USER    (1) Final Intermolecular Energy     =  -9.74 kcal/mol
DOCKED: USER        vdW + Hbond + desolv Energy     =  -9.74 kcal/mol
DOCKED: USER        Electrostatic Energy            =  -0.00 kcal/mol
DOCKED: USER        Moving Ligand-Fixed Receptor    =  -9.74 kcal/mol
DOCKED: USER        Moving Ligand-Moving Receptor   =  +0.00 kcal/mol
DOCKED: USER    (2) Final Total Internal Energy     =  -0.98 kcal/mol
DOCKED: USER    (3) Torsional Free Energy           =  +1.79 kcal/mol
DOCKED: USER    (4) Unbound System's Energy         =  -0.98 kcal/mol
DOCKED: USER
DOCKED: USER
DOCKED: REMARK SMILES [H]/N=c1\nc2nc3ccccn3c(O)c-2cc1C(=O)[N-][C@@H](C)c1ccccc1
DOCKED: REMARK SMILES IDX 18 1 19 2 17 3 3 4 4 5 5 6 16 7 6 8 15 9 7 10 13 11 8 12
DOCKED: REMARK SMILES IDX 12 13 9 14 11 15 10 16 2 17 1 18 14 19 20 21 21 22 22 23
DOCKED: REMARK SMILES IDX 23 24 24 25 28 26 25 27 27 28 26 29
DOCKED: REMARK H PARENT 14 20
DOCKED: USER                              x       y       z     vdW  Elec       q    Type
DOCKED: USER                           _______ _______ _______ _____ _____    ______ ____
DOCKED: ROOT
DOCKED: ATOM      1  C   UNL     1     135.652  69.497 224.465 -0.19 -0.01    +0.086 C  
DOCKED: ATOM      2  O   UNL     1     135.070  68.463 224.045 -0.62 -0.01    -0.315 OA 
DOCKED: ENDROOT
DOCKED: BRANCH   1   3
DOCKED: ATOM      3  C   UNL     1     134.870  70.499 225.210 -0.21 -0.00    +0.044 A  
DOCKED: ATOM      4  C   UNL     1     133.927  70.114 226.190 -0.25 -0.01    +0.156 A  
DOCKED: ATOM      5  N   UNL     1     133.204  71.056 226.856 -0.28 +0.02    -0.209 NA 
DOCKED: ATOM      6  C   UNL     1     133.374  72.381 226.625 -0.31 -0.01    +0.169 A  
DOCKED: ATOM      7  C   UNL     1     135.112  71.860 224.973 -0.12 -0.00    +0.031 A  
DOCKED: ATOM      8  N   UNL     1     132.625  73.295 227.272 -0.53 +0.02    -0.210 NA 
DOCKED: ATOM      9  C   UNL     1     134.374  72.832 225.656 -0.23 -0.00    +0.081 A  
DOCKED: ATOM     10  C   UNL     1     132.785  74.626 227.053 -0.31 +0.00    +0.141 A  
DOCKED: ATOM     11  C   UNL     1     134.508  74.208 225.435 -0.24 -0.01    +0.208 A  
DOCKED: ATOM     12  C   UNL     1     131.975  75.512 227.771 -0.34 +0.00    +0.048 A  
DOCKED: ATOM     13  N   UNL     1     133.733  75.100 226.155 -0.22 -0.00    -0.272 N  
DOCKED: ATOM     14  C   UNL     1     132.127  76.882 227.600 -0.34 +0.00    +0.005 A  
DOCKED: ATOM     15  C   UNL     1     133.892  76.459 226.016 -0.27 -0.01    +0.096 A  
DOCKED: ATOM     16  C   UNL     1     133.094  77.359 226.725 -0.30 -0.00    +0.019 A  
DOCKED: BRANCH   4  17
DOCKED: ATOM     17  N   UNL     1     133.737  68.861 226.456 -0.72 -0.02    -0.282 NA 
DOCKED: ATOM     18  H   UNL     1     134.033  68.108 225.795 +0.07 -0.01    +0.189 HD 
DOCKED: ENDBRANCH   4  17
DOCKED: BRANCH  11  19
DOCKED: ATOM     19  O   UNL     1     135.426  74.620 224.458 -0.16 +0.09    -0.494 OA 
DOCKED: ATOM     20  H   UNL     1     136.321  74.191 224.278 -0.35 -0.14    +0.295 HD 
DOCKED: ENDBRANCH  11  19
DOCKED: ENDBRANCH   1   3
DOCKED: BRANCH   1  21
DOCKED: ATOM     21  N   UNL     1     137.063  69.640 224.237 +0.03 +0.07    -0.643 NA 
DOCKED: BRANCH  21  22
DOCKED: ATOM     22  C   UNL     1     138.149  68.824 224.790 -0.28 +0.00    -0.079 C  
DOCKED: ATOM     23  C   UNL     1     138.832  68.019 223.678 -0.26 +0.00    -0.008 C  
DOCKED: BRANCH  22  24
DOCKED: ATOM     24  C   UNL     1     139.082  69.644 225.668 -0.38 +0.01    -0.063 A  
DOCKED: ATOM     25  C   UNL     1     139.215  69.286 227.023 -0.48 -0.00    +0.002 A  
DOCKED: ATOM     26  C   UNL     1     139.811  70.755 225.187 -0.48 -0.00    +0.002 A  
DOCKED: ATOM     27  C   UNL     1     140.047  70.019 227.874 -0.63 -0.00    +0.000 A  
DOCKED: ATOM     28  C   UNL     1     140.642  71.482 226.045 -0.63 -0.00    +0.000 A  
DOCKED: ATOM     29  C   UNL     1     140.759  71.114 227.387 -0.72 -0.00    +0.000 A  
DOCKED: ENDBRANCH  22  24
DOCKED: ENDBRANCH  21  22
DOCKED: ENDBRANCH   1  21
DOCKED: TORSDOF 6
DOCKED: TER
DOCKED: ENDMDL
________________________________________________________________________________


    FINAL DOCKED STATE:
    ________________________


Run:   2 / 20
Time taken for this run:   0.032s

DOCKED: MODEL        2
DOCKED: USER    Run = 2
DOCKED: USER
DOCKED: USER    Estimated Free Energy of Binding    =  -6.96 kcal/mol  [=(1)+(2)+(3)-(4)]
DOCKED: USER
DOCKED: USER    (1) Final Intermolecular Energy     =  -8.75 kcal/mol
DOCKED: USER        vdW + Hbond + desolv Energy     =  -8.62 kcal/mol
DOCKED: USER        Electrostatic Energy            =  -0.13 kcal/mol
DOCKED: USER        Moving Ligand-Fixed Receptor    =  -8.75 kcal/mol
DOCKED: USER        Moving Ligand-Moving Receptor   =  +0.00 kcal/mol
DOCKED: USER    (2) Final Total Internal Energy     =  -1.45 kcal/mol
DOCKED: USER    (3) Torsional Free Energy           =  +1.79 kcal/mol
DOCKED: USER    (4) Unbound System's Energy         =  -1.45 kcal/mol
DOCKED: USER
DOCKED: USER
DOCKED: REMARK SMILES [H]/N=c1\nc2nc3ccccn3c(O)c-2cc1C(=O)[N-][C@@H](C)c1ccccc1
DOCKED: REMARK SMILES IDX 18 1 19 2 17 3 3 4 4 5 5 6 16 7 6 8 15 9 7 10 13 11 8 12
DOCKED: REMARK SMILES IDX 12 13 9 14 11 15 10 16 2 17 1 18 14 19 20 21 21 22 22 23
DOCKED: REMARK SMILES IDX 23 24 24 25 28 26 25 27 27 28 26 29
DOCKED: REMARK H PARENT 14 20
DOCKED: USER                              x       y       z     vdW  Elec       q    Type
DOCKED: USER                           _______ _______ _______ _____ _____    ______ ____
DOCKED: ROOT
DOCKED: ATOM      1  C   UNL     1     138.132  69.364 224.626 -0.30 -0.01    +0.086 C  
DOCKED: ATOM      2  O   UNL     1     137.155  70.074 224.982 -0.10 +0.03    -0.315 OA 
DOCKED: ENDROOT
DOCKED: BRANCH   1   3
DOCKED: ATOM      3  C   UNL     1     138.871  69.734 223.407 -0.24 -0.01    +0.044 A  
DOCKED: ATOM      4  C   UNL     1     139.230  68.765 222.443 -0.11 -0.03    +0.156 A  
DOCKED: ATOM      5  N   UNL     1     139.927  69.127 221.330 -0.06 +0.04    -0.209 NA 
DOCKED: ATOM      6  C   UNL     1     140.278  70.416 221.096 -0.08 -0.03    +0.169 A  
DOCKED: ATOM      7  C   UNL     1     139.172  71.085 223.181 -0.28 -0.01    +0.031 A  
DOCKED: ATOM      8  N   UNL     1     140.995  70.747 220.005 -0.06 +0.03    -0.210 NA 
DOCKED: ATOM      9  C   UNL     1     139.885  71.463 222.039 -0.21 -0.01    +0.081 A  
DOCKED: ATOM     10  C   UNL     1     141.352  72.034 219.755 -0.08 -0.02    +0.141 A  
DOCKED: ATOM     11  C   UNL     1     140.280  72.779 221.768 -0.21 -0.03    +0.208 A  
DOCKED: ATOM     12  C   UNL     1     142.089  72.297 218.595 -0.05 -0.01    +0.048 A  
DOCKED: ATOM     13  N   UNL     1     140.987  73.062 220.613 -0.09 +0.04    -0.272 N  
DOCKED: ATOM     14  C   UNL     1     142.448  73.603 218.286 -0.08 -0.00    +0.005 A  
DOCKED: ATOM     15  C   UNL     1     141.325  74.354 220.281 -0.18 -0.02    +0.096 A  
DOCKED: ATOM     16  C   UNL     1     142.059  74.637 219.127 -0.15 -0.01    +0.019 A  
DOCKED: BRANCH   4  17
DOCKED: ATOM     17  N   UNL     1     138.908  67.522 222.615 -0.14 +0.05    -0.282 NA 
DOCKED: ATOM     18  H   UNL     1     138.674  67.142 223.559 +0.03 -0.00    +0.189 HD 
DOCKED: ENDBRANCH   4  17
DOCKED: BRANCH  11  19
DOCKED: ATOM     19  O   UNL     1     139.950  73.761 222.714 -0.63 -0.01    -0.494 OA 
DOCKED: ATOM     20  H   UNL     1     139.028  73.926 223.089 -0.48 -0.15    +0.295 HD 
DOCKED: ENDBRANCH  11  19
DOCKED: ENDBRANCH   1   3
DOCKED: BRANCH   1  21
DOCKED: ATOM     21  N   UNL     1     138.512  68.247 225.444 -0.25 -0.01    -0.643 NA 
DOCKED: BRANCH  21  22
DOCKED: ATOM     22  C   UNL     1     139.556  68.202 226.473 -0.55 +0.01    -0.079 C  
DOCKED: ATOM     23  C   UNL     1     140.597  67.129 226.131 -0.43 +0.00    -0.008 C  
DOCKED: BRANCH  22  24
DOCKED: ATOM     24  C   UNL     1     140.118  69.584 226.770 -0.50 +0.01    -0.063 A  
DOCKED: ATOM     25  C   UNL     1     139.782  70.196 227.992 -0.61 -0.00    +0.002 A  
DOCKED: ATOM     26  C   UNL     1     140.953  70.283 225.870 -0.55 -0.00    +0.002 A  
DOCKED: ATOM     27  C   UNL     1     140.259  71.472 228.304 -0.72 -0.00    +0.000 A  
DOCKED: ATOM     28  C   UNL     1     141.427  71.559 226.190 -0.66 -0.00    +0.000 A  
DOCKED: ATOM     29  C   UNL     1     141.081  72.153 227.405 -0.83 -0.00    +0.000 A  
DOCKED: ENDBRANCH  22  24
DOCKED: ENDBRANCH  21  22
DOCKED: ENDBRANCH   1  21
DOCKED: TORSDOF 6
DOCKED: TER
DOCKED: ENDMDL
________________________________________________________________________________


    FINAL DOCKED STATE:
    ________________________


Run:   3 / 20
Time taken for this run:   0.032s

DOCKED: MODEL        3
DOCKED: USER    Run = 3
DOCKED: USER
DOCKED: USER    Estimated Free Energy of Binding    =  -7.95 kcal/mol  [=(1)+(2)+(3)-(4)]
DOCKED: USER
DOCKED: USER    (1) Final Intermolecular Energy     =  -9.74 kcal/mol
DOCKED: USER        vdW + Hbond + desolv Energy     =  -9.74 kcal/mol
DOCKED: USER        Electrostatic Energy            =  -0.00 kcal/mol
DOCKED: USER        Moving Ligand-Fixed Receptor    =  -9.74 kcal/mol
DOCKED: USER        Moving Ligand-Moving Receptor   =  +0.00 kcal/mol
DOCKED: USER    (2) Final Total Internal Energy     =  -0.98 kcal/mol
DOCKED: USER    (3) Torsional Free Energy           =  +1.79 kcal/mol
DOCKED: USER    (4) Unbound System's Energy         =  -0.98 kcal/mol
DOCKED: USER
DOCKED: USER
DOCKED: REMARK SMILES [H]/N=c1\nc2nc3ccccn3c(O)c-2cc1C(=O)[N-][C@@H](C)c1ccccc1
DOCKED: REMARK SMILES IDX 18 1 19 2 17 3 3 4 4 5 5 6 16 7 6 8 15 9 7 10 13 11 8 12
DOCKED: REMARK SMILES IDX 12 13 9 14 11 15 10 16 2 17 1 18 14 19 20 21 21 22 22 23
DOCKED: REMARK SMILES IDX 23 24 24 25 28 26 25 27 27 28 26 29
DOCKED: REMARK H PARENT 14 20
DOCKED: USER                              x       y       z     vdW  Elec       q    Type
DOCKED: USER                           _______ _______ _______ _____ _____    ______ ____
DOCKED: ROOT
DOCKED: ATOM      1  C   UNL     1     135.653  69.515 224.470 -0.20 -0.01    +0.086 C  
DOCKED: ATOM      2  O   UNL     1     135.076  68.470 224.072 -0.62 -0.01    -0.315 OA 
DOCKED: ENDROOT
DOCKED: BRANCH   1   3
DOCKED: ATOM      3  C   UNL     1     134.871  70.517 225.216 -0.20 -0.00    +0.044 A  
DOCKED: ATOM      4  C   UNL     1     133.920  70.132 226.187 -0.25 -0.01    +0.156 A  
DOCKED: ATOM      5  N   UNL     1     133.197  71.075 226.853 -0.27 +0.02    -0.209 NA 
DOCKED: ATOM      6  C   UNL     1     133.376  72.400 226.631 -0.31 -0.01    +0.169 A  
DOCKED: ATOM      7  C   UNL     1     135.123  71.878 224.989 -0.10 -0.00    +0.031 A  
DOCKED: ATOM      8  N   UNL     1     132.628  73.315 227.278 -0.54 +0.02    -0.210 NA 
DOCKED: ATOM      9  C   UNL     1     134.386  72.850 225.671 -0.23 -0.00    +0.081 A  
DOCKED: ATOM     10  C   UNL     1     132.798  74.646 227.067 -0.31 +0.00    +0.141 A  
DOCKED: ATOM     11  C   UNL     1     134.530  74.227 225.459 -0.24 -0.00    +0.208 A  
DOCKED: ATOM     12  C   UNL     1     131.988  75.533 227.785 -0.33 +0.00    +0.048 A  
DOCKED: ATOM     13  N   UNL     1     133.755  75.119 226.179 -0.22 -0.00    -0.272 N  
DOCKED: ATOM     14  C   UNL     1     132.150  76.903 227.623 -0.34 +0.00    +0.005 A  
DOCKED: ATOM     15  C   UNL     1     133.924  76.478 226.049 -0.27 -0.01    +0.096 A  
DOCKED: ATOM     16  C   UNL     1     133.126  77.379 226.757 -0.30 -0.00    +0.019 A  
DOCKED: BRANCH   4  17
DOCKED: ATOM     17  N   UNL     1     133.719  68.879 226.445 -0.72 -0.02    -0.282 NA 
DOCKED: ATOM     18  H   UNL     1     134.070  68.126 225.811 +0.07 -0.01    +0.189 HD 
DOCKED: ENDBRANCH   4  17
DOCKED: BRANCH  11  19
DOCKED: ATOM     19  O   UNL     1     135.457  74.639 224.491 -0.16 +0.09    -0.494 OA 
DOCKED: ATOM     20  H   UNL     1     136.318  74.164 224.266 -0.36 -0.14    +0.295 HD 
DOCKED: ENDBRANCH  11  19
DOCKED: ENDBRANCH   1   3
DOCKED: BRANCH   1  21
DOCKED: ATOM     21  N   UNL     1     137.058  69.670 224.218 +0.03 +0.07    -0.643 NA 
DOCKED: BRANCH  21  22
DOCKED: ATOM     22  C   UNL     1     138.159  68.851 224.737 -0.29 +0.00    -0.079 C  
DOCKED: ATOM     23  C   UNL     1     138.836  68.082 223.596 -0.27 +0.00    -0.008 C  
DOCKED: BRANCH  22  24
DOCKED: ATOM     24  C   UNL     1     139.095  69.658 225.624 -0.37 +0.01    -0.063 A  
DOCKED: ATOM     25  C   UNL     1     139.230  69.282 226.974 -0.49 -0.00    +0.002 A  
DOCKED: ATOM     26  C   UNL     1     139.826  70.773 225.156 -0.48 -0.00    +0.002 A  
DOCKED: ATOM     27  C   UNL     1     140.063  70.002 227.834 -0.63 -0.00    +0.000 A  
DOCKED: ATOM     28  C   UNL     1     140.660  71.487 226.023 -0.63 -0.00    +0.000 A  
DOCKED: ATOM     29  C   UNL     1     140.778  71.102 227.359 -0.72 -0.00    +0.000 A  
DOCKED: ENDBRANCH  22  24
DOCKED: ENDBRANCH  21  22
DOCKED: ENDBRANCH   1  21
DOCKED: TORSDOF 6
DOCKED: TER
DOCKED: ENDMDL
________________________________________________________________________________


    FINAL DOCKED STATE:
    ________________________


Run:   4 / 20
Time taken for this run:   0.032s

DOCKED: MODEL        4
DOCKED: USER    Run = 4
DOCKED: USER
DOCKED: USER    Estimated Free Energy of Binding    =  -6.35 kcal/mol  [=(1)+(2)+(3)-(4)]
DOCKED: USER
DOCKED: USER    (1) Final Intermolecular Energy     =  -8.14 kcal/mol
DOCKED: USER        vdW + Hbond + desolv Energy     =  -8.22 kcal/mol
DOCKED: USER        Electrostatic Energy            =  +0.07 kcal/mol
DOCKED: USER        Moving Ligand-Fixed Receptor    =  -8.14 kcal/mol
DOCKED: USER        Moving Ligand-Moving Receptor   =  +0.00 kcal/mol
DOCKED: USER    (2) Final Total Internal Energy     =  -1.63 kcal/mol
DOCKED: USER    (3) Torsional Free Energy           =  +1.79 kcal/mol
DOCKED: USER    (4) Unbound System's Energy         =  -1.63 kcal/mol
DOCKED: USER
DOCKED: USER
DOCKED: REMARK SMILES [H]/N=c1\nc2nc3ccccn3c(O)c-2cc1C(=O)[N-][C@@H](C)c1ccccc1
DOCKED: REMARK SMILES IDX 18 1 19 2 17 3 3 4 4 5 5 6 16 7 6 8 15 9 7 10 13 11 8 12
DOCKED: REMARK SMILES IDX 12 13 9 14 11 15 10 16 2 17 1 18 14 19 20 21 21 22 22 23
DOCKED: REMARK SMILES IDX 23 24 24 25 28 26 25 27 27 28 26 29
DOCKED: REMARK H PARENT 14 20
DOCKED: USER                              x       y       z     vdW  Elec       q    Type
DOCKED: USER                           _______ _______ _______ _____ _____    ______ ____
DOCKED: ROOT
DOCKED: ATOM      1  C   UNL     1     137.450  78.864 222.264 -0.16 -0.01    +0.086 C  
DOCKED: ATOM      2  O   UNL     1     136.216  78.697 222.449 -0.07 +0.05    -0.315 OA 
DOCKED: ENDROOT
DOCKED: BRANCH   1   3
DOCKED: ATOM      3  C   UNL     1     138.306  77.680 222.074 -0.22 -0.01    +0.044 A  
DOCKED: ATOM      4  C   UNL     1     137.914  76.407 222.545 -0.24 -0.03    +0.156 A  
DOCKED: ATOM      5  N   UNL     1     138.729  75.329 222.372 -0.26 +0.05    -0.209 NA 
DOCKED: ATOM      6  C   UNL     1     139.919  75.429 221.730 -0.26 -0.03    +0.169 A  
DOCKED: ATOM      7  C   UNL     1     139.507  77.820 221.364 -0.19 -0.01    +0.031 A  
DOCKED: ATOM      8  N   UNL     1     140.723  74.357 221.599 -0.54 +0.03    -0.210 NA 
DOCKED: ATOM      9  C   UNL     1     140.346  76.717 221.181 -0.24 -0.03    +0.081 A  
DOCKED: ATOM     10  C   UNL     1     141.917  74.441 220.957 -0.21 -0.04    +0.141 A  
DOCKED: ATOM     11  C   UNL     1     141.589  76.782 220.539 -0.19 -0.11    +0.208 A  
DOCKED: ATOM     12  C   UNL     1     142.691  73.280 220.854 -0.25 -0.01    +0.048 A  
DOCKED: ATOM     13  N   UNL     1     142.356  75.638 220.405 -0.16 +0.14    -0.272 N  
DOCKED: ATOM     14  C   UNL     1     143.904  73.315 220.179 -0.37 -0.00    +0.005 A  
DOCKED: ATOM     15  C   UNL     1     143.546  75.653 219.715 -0.37 -0.06    +0.096 A  
DOCKED: ATOM     16  C   UNL     1     144.332  74.503 219.600 -0.33 -0.01    +0.019 A  
DOCKED: BRANCH   4  17
DOCKED: ATOM     17  N   UNL     1     136.781  76.256 223.154 -0.16 +0.06    -0.282 NA 
DOCKED: ATOM     18  H   UNL     1     136.038  76.990 223.120 +0.05 -0.03    +0.189 HD 
DOCKED: ENDBRANCH   4  17
DOCKED: BRANCH  11  19
DOCKED: ATOM     19  O   UNL     1     142.012  78.036 220.074 -0.09 +0.33    -0.494 OA 
DOCKED: ATOM     20  H   UNL     1     142.924  78.439 220.225 -0.25 -0.33    +0.295 HD 
DOCKED: ENDBRANCH  11  19
DOCKED: ENDBRANCH   1   3
DOCKED: BRANCH   1  21
DOCKED: ATOM     21  N   UNL     1     137.967  80.202 222.207 +0.04 +0.10    -0.643 NA 
DOCKED: BRANCH  21  22
DOCKED: ATOM     22  C   UNL     1     138.761  80.903 223.223 -0.30 +0.01    -0.079 C  
DOCKED: ATOM     23  C   UNL     1     138.082  80.800 224.594 -0.39 +0.00    -0.008 C  
DOCKED: BRANCH  22  24
DOCKED: ATOM     24  C   UNL     1     140.223  80.485 223.186 -0.39 +0.01    -0.063 A  
DOCKED: ATOM     25  C   UNL     1     141.120  81.251 222.418 -0.44 -0.00    +0.002 A  
DOCKED: ATOM     26  C   UNL     1     140.717  79.358 223.879 -0.51 -0.00    +0.002 A  
DOCKED: ATOM     27  C   UNL     1     142.470  80.898 222.338 -0.51 -0.00    +0.000 A  
DOCKED: ATOM     28  C   UNL     1     142.070  79.012 223.796 -0.58 -0.00    +0.000 A  
DOCKED: ATOM     29  C   UNL     1     142.944  79.781 223.026 -0.63 -0.00    +0.000 A  
DOCKED: ENDBRANCH  22  24
DOCKED: ENDBRANCH  21  22
DOCKED: ENDBRANCH   1  21
DOCKED: TORSDOF 6
DOCKED: TER
DOCKED: ENDMDL
________________________________________________________________________________


    FINAL DOCKED STATE:
    ________________________


Run:   5 / 20
Time taken for this run:   0.032s

DOCKED: MODEL        5
DOCKED: USER    Run = 5
DOCKED: USER
DOCKED: USER    Estimated Free Energy of Binding    =  -6.26 kcal/mol  [=(1)+(2)+(3)-(4)]
DOCKED: USER
DOCKED: USER    (1) Final Intermolecular Energy     =  -8.05 kcal/mol
DOCKED: USER        vdW + Hbond + desolv Energy     =  -8.17 kcal/mol
DOCKED: USER        Electrostatic Energy            =  +0.11 kcal/mol
DOCKED: USER        Moving Ligand-Fixed Receptor    =  -8.05 kcal/mol
DOCKED: USER        Moving Ligand-Moving Receptor   =  +0.00 kcal/mol
DOCKED: USER    (2) Final Total Internal Energy     =  -1.70 kcal/mol
DOCKED: USER    (3) Torsional Free Energy           =  +1.79 kcal/mol
DOCKED: USER    (4) Unbound System's Energy         =  -1.70 kcal/mol
DOCKED: USER
DOCKED: USER
DOCKED: REMARK SMILES [H]/N=c1\nc2nc3ccccn3c(O)c-2cc1C(=O)[N-][C@@H](C)c1ccccc1
DOCKED: REMARK SMILES IDX 18 1 19 2 17 3 3 4 4 5 5 6 16 7 6 8 15 9 7 10 13 11 8 12
DOCKED: REMARK SMILES IDX 12 13 9 14 11 15 10 16 2 17 1 18 14 19 20 21 21 22 22 23
DOCKED: REMARK SMILES IDX 23 24 24 25 28 26 25 27 27 28 26 29
DOCKED: REMARK H PARENT 14 20
DOCKED: USER                              x       y       z     vdW  Elec       q    Type
DOCKED: USER                           _______ _______ _______ _____ _____    ______ ____
DOCKED: ROOT
DOCKED: ATOM      1  C   UNL     1     137.948  78.843 221.917 -0.15 -0.02    +0.086 C  
DOCKED: ATOM      2  O   UNL     1     136.903  78.158 222.062 -0.07 +0.05    -0.315 OA 
DOCKED: ENDROOT
DOCKED: BRANCH   1   3
DOCKED: ATOM      3  C   UNL     1     139.154  78.192 221.375 -0.16 -0.01    +0.044 A  
DOCKED: ATOM      4  C   UNL     1     140.061  78.896 220.551 -0.11 -0.05    +0.156 A  
DOCKED: ATOM      5  N   UNL     1     141.161  78.270 220.048 -0.13 +0.10    -0.209 NA 
DOCKED: ATOM      6  C   UNL     1     141.437  76.973 220.333 -0.20 -0.08    +0.169 A  
DOCKED: ATOM      7  C   UNL     1     139.426  76.864 221.733 -0.27 -0.01    +0.031 A  
DOCKED: ATOM      8  N   UNL     1     142.513  76.365 219.798 -0.22 +0.12    -0.210 NA 
DOCKED: ATOM      9  C   UNL     1     140.555  76.217 221.222 -0.27 -0.03    +0.081 A  
DOCKED: ATOM     10  C   UNL     1     142.804  75.067 220.076 -0.27 -0.06    +0.141 A  
DOCKED: ATOM     11  C   UNL     1     140.866  74.876 221.479 -0.24 -0.04    +0.208 A  
DOCKED: ATOM     12  C   UNL     1     143.945  74.510 219.489 -0.33 -0.02    +0.048 A  
DOCKED: ATOM     13  N   UNL     1     142.005  74.316 220.927 -0.16 +0.07    -0.272 N  
DOCKED: ATOM     14  C   UNL     1     144.296  73.196 219.770 -0.35 -0.00    +0.005 A  
DOCKED: ATOM     15  C   UNL     1     142.379  73.025 221.220 -0.11 -0.01    +0.096 A  
DOCKED: ATOM     16  C   UNL     1     143.515  72.451 220.644 -0.31 -0.00    +0.019 A  
DOCKED: BRANCH   4  17
DOCKED: ATOM     17  N   UNL     1     139.849  80.140 220.259 -0.04 +0.08    -0.282 NA 
DOCKED: ATOM     18  H   UNL     1     139.112  80.699 220.744 +0.05 -0.04    +0.189 HD 
DOCKED: ENDBRANCH   4  17
DOCKED: BRANCH  11  19
DOCKED: ATOM     19  O   UNL     1     139.977  74.148 222.282 -0.74 +0.02    -0.494 OA 
DOCKED: ATOM     20  H   UNL     1     139.198  74.535 222.792 -0.42 -0.08    +0.295 HD 
DOCKED: ENDBRANCH  11  19
DOCKED: ENDBRANCH   1   3
DOCKED: BRANCH   1  21
DOCKED: ATOM     21  N   UNL     1     137.914  80.240 222.247 +0.04 +0.10    -0.643 NA 
DOCKED: BRANCH  21  22
DOCKED: ATOM     22  C   UNL     1     138.629  80.925 223.330 -0.30 +0.01    -0.079 C  
DOCKED: ATOM     23  C   UNL     1     137.890  80.735 224.661 -0.37 +0.00    -0.008 C  
DOCKED: BRANCH  22  24
DOCKED: ATOM     24  C   UNL     1     140.106  80.565 223.348 -0.39 +0.01    -0.063 A  
DOCKED: ATOM     25  C   UNL     1     140.496  79.361 223.964 -0.44 -0.00    +0.002 A  
DOCKED: ATOM     26  C   UNL     1     141.105  81.390 222.783 -0.46 -0.00    +0.002 A  
DOCKED: ATOM     27  C   UNL     1     141.843  78.994 224.021 -0.60 -0.00    +0.000 A  
DOCKED: ATOM     28  C   UNL     1     142.451  81.015 222.843 -0.54 -0.00    +0.000 A  
DOCKED: ATOM     29  C   UNL     1     142.819  79.818 223.461 -0.59 -0.00    +0.000 A  
DOCKED: ENDBRANCH  22  24
DOCKED: ENDBRANCH  21  22
DOCKED: ENDBRANCH   1  21
DOCKED: TORSDOF 6
DOCKED: TER
DOCKED: ENDMDL
________________________________________________________________________________


    FINAL DOCKED STATE:
    ________________________


Run:   6 / 20
Time taken for this run:   0.032s

DOCKED: MODEL        6
DOCKED: USER    Run = 6
DOCKED: USER
DOCKED: USER    Estimated Free Energy of Binding    =  -7.93 kcal/mol  [=(1)+(2)+(3)-(4)]
DOCKED: USER
DOCKED: USER    (1) Final Intermolecular Energy     =  -9.72 kcal/mol
DOCKED: USER        vdW + Hbond + desolv Energy     =  -9.69 kcal/mol
DOCKED: USER        Electrostatic Energy            =  -0.03 kcal/mol
DOCKED: USER        Moving Ligand-Fixed Receptor    =  -9.72 kcal/mol
DOCKED: USER        Moving Ligand-Moving Receptor   =  +0.00 kcal/mol
DOCKED: USER    (2) Final Total Internal Energy     =  -0.98 kcal/mol
DOCKED: USER    (3) Torsional Free Energy           =  +1.79 kcal/mol
DOCKED: USER    (4) Unbound System's Energy         =  -0.98 kcal/mol
DOCKED: USER
DOCKED: USER
DOCKED: REMARK SMILES [H]/N=c1\nc2nc3ccccn3c(O)c-2cc1C(=O)[N-][C@@H](C)c1ccccc1
DOCKED: REMARK SMILES IDX 18 1 19 2 17 3 3 4 4 5 5 6 16 7 6 8 15 9 7 10 13 11 8 12
DOCKED: REMARK SMILES IDX 12 13 9 14 11 15 10 16 2 17 1 18 14 19 20 21 21 22 22 23
DOCKED: REMARK SMILES IDX 23 24 24 25 28 26 25 27 27 28 26 29
DOCKED: REMARK H PARENT 14 20
DOCKED: USER                              x       y       z     vdW  Elec       q    Type
DOCKED: USER                           _______ _______ _______ _____ _____    ______ ____
DOCKED: ROOT
DOCKED: ATOM      1  C   UNL     1     135.604  69.398 224.441 -0.19 -0.01    +0.086 C  
DOCKED: ATOM      2  O   UNL     1     135.052  68.307 224.143 -0.63 -0.02    -0.315 OA 
DOCKED: ENDROOT
DOCKED: BRANCH   1   3
DOCKED: ATOM      3  C   UNL     1     134.827  70.406 225.184 -0.21 -0.00    +0.044 A  
DOCKED: ATOM      4  C   UNL     1     133.862  70.028 226.145 -0.24 -0.01    +0.156 A  
DOCKED: ATOM      5  N   UNL     1     133.144  70.977 226.808 -0.27 +0.02    -0.209 NA 
DOCKED: ATOM      6  C   UNL     1     133.341  72.301 226.593 -0.30 -0.01    +0.169 A  
DOCKED: ATOM      7  C   UNL     1     135.097  71.765 224.965 -0.14 -0.00    +0.031 A  
DOCKED: ATOM      8  N   UNL     1     132.598  73.221 227.237 -0.50 +0.02    -0.210 NA 
DOCKED: ATOM      9  C   UNL     1     134.365  72.743 225.645 -0.23 -0.00    +0.081 A  
DOCKED: ATOM     10  C   UNL     1     132.786  74.551 227.035 -0.31 +0.00    +0.141 A  
DOCKED: ATOM     11  C   UNL     1     134.527  74.119 225.441 -0.23 -0.00    +0.208 A  
DOCKED: ATOM     12  C   UNL     1     131.980  75.445 227.748 -0.34 -0.00    +0.048 A  
DOCKED: ATOM     13  N   UNL     1     133.756  75.017 226.157 -0.22 -0.01    -0.272 N  
DOCKED: ATOM     14  C   UNL     1     132.159  76.813 227.594 -0.34 +0.00    +0.005 A  
DOCKED: ATOM     15  C   UNL     1     133.943  76.374 226.034 -0.29 -0.01    +0.096 A  
DOCKED: ATOM     16  C   UNL     1     133.149  77.282 226.740 -0.31 -0.00    +0.019 A  
DOCKED: BRANCH   4  17
DOCKED: ATOM     17  N   UNL     1     133.644  68.776 226.395 -0.72 -0.02    -0.282 NA 
DOCKED: ATOM     18  H   UNL     1     134.020  68.021 225.779 +0.07 -0.01    +0.189 HD 
DOCKED: ENDBRANCH   4  17
DOCKED: BRANCH  11  19
DOCKED: ATOM     19  O   UNL     1     135.469  74.524 224.483 -0.16 +0.10    -0.494 OA 
DOCKED: ATOM     20  H   UNL     1     136.395  74.140 224.374 -0.38 -0.15    +0.295 HD 
DOCKED: ENDBRANCH  11  19
DOCKED: ENDBRANCH   1   3
DOCKED: BRANCH   1  21
DOCKED: ATOM     21  N   UNL     1     136.979  69.600 224.082 +0.03 +0.07    -0.643 NA 
DOCKED: BRANCH  21  22
DOCKED: ATOM     22  C   UNL     1     138.142  68.808 224.497 -0.26 +0.01    -0.079 C  
DOCKED: ATOM     23  C   UNL     1     138.823  68.180 223.276 -0.27 +0.00    -0.008 C  
DOCKED: BRANCH  22  24
DOCKED: ATOM     24  C   UNL     1     139.058  69.592 225.424 -0.37 +0.01    -0.063 A  
DOCKED: ATOM     25  C   UNL     1     139.324  69.070 226.704 -0.51 -0.00    +0.002 A  
DOCKED: ATOM     26  C   UNL     1     139.647  70.824 225.060 -0.45 -0.00    +0.002 A  
DOCKED: ATOM     27  C   UNL     1     140.146  69.761 227.598 -0.61 -0.00    +0.000 A  
DOCKED: ATOM     28  C   UNL     1     140.469  71.509 225.960 -0.59 -0.00    +0.000 A  
DOCKED: ATOM     29  C   UNL     1     140.719  70.978 227.227 -0.70 -0.00    +0.000 A  
DOCKED: ENDBRANCH  22  24
DOCKED: ENDBRANCH  21  22
DOCKED: ENDBRANCH   1  21
DOCKED: TORSDOF 6
DOCKED: TER
DOCKED: ENDMDL
________________________________________________________________________________


    FINAL DOCKED STATE:
    ________________________


Run:   7 / 20
Time taken for this run:   0.032s

DOCKED: MODEL        7
DOCKED: USER    Run = 7
DOCKED: USER
DOCKED: USER    Estimated Free Energy of Binding    =  -7.93 kcal/mol  [=(1)+(2)+(3)-(4)]
DOCKED: USER
DOCKED: USER    (1) Final Intermolecular Energy     =  -9.72 kcal/mol
DOCKED: USER        vdW + Hbond + desolv Energy     =  -9.69 kcal/mol
DOCKED: USER        Electrostatic Energy            =  -0.03 kcal/mol
DOCKED: USER        Moving Ligand-Fixed Receptor    =  -9.72 kcal/mol
DOCKED: USER        Moving Ligand-Moving Receptor   =  +0.00 kcal/mol
DOCKED: USER    (2) Final Total Internal Energy     =  -0.99 kcal/mol
DOCKED: USER    (3) Torsional Free Energy           =  +1.79 kcal/mol
DOCKED: USER    (4) Unbound System's Energy         =  -0.99 kcal/mol
DOCKED: USER
DOCKED: USER
DOCKED: REMARK SMILES [H]/N=c1\nc2nc3ccccn3c(O)c-2cc1C(=O)[N-][C@@H](C)c1ccccc1
DOCKED: REMARK SMILES IDX 18 1 19 2 17 3 3 4 4 5 5 6 16 7 6 8 15 9 7 10 13 11 8 12
DOCKED: REMARK SMILES IDX 12 13 9 14 11 15 10 16 2 17 1 18 14 19 20 21 21 22 22 23
DOCKED: REMARK SMILES IDX 23 24 24 25 28 26 25 27 27 28 26 29
DOCKED: REMARK H PARENT 14 20
DOCKED: USER                              x       y       z     vdW  Elec       q    Type
DOCKED: USER                           _______ _______ _______ _____ _____    ______ ____
DOCKED: ROOT
DOCKED: ATOM      1  C   UNL     1     135.606  69.367 224.419 -0.19 -0.00    +0.086 C  
DOCKED: ATOM      2  O   UNL     1     135.031  68.304 224.070 -0.62 -0.02    -0.315 OA 
DOCKED: ENDROOT
DOCKED: BRANCH   1   3
DOCKED: ATOM      3  C   UNL     1     134.835  70.379 225.163 -0.21 -0.00    +0.044 A  
DOCKED: ATOM      4  C   UNL     1     133.884  70.006 226.140 -0.24 -0.01    +0.156 A  
DOCKED: ATOM      5  N   UNL     1     133.172  70.958 226.805 -0.28 +0.02    -0.209 NA 
DOCKED: ATOM      6  C   UNL     1     133.360  72.281 226.575 -0.30 -0.01    +0.169 A  
DOCKED: ATOM      7  C   UNL     1     135.095  71.737 224.928 -0.15 -0.00    +0.031 A  
DOCKED: ATOM      8  N   UNL     1     132.621  73.204 227.220 -0.51 +0.02    -0.210 NA 
DOCKED: ATOM      9  C   UNL     1     134.368  72.718 225.609 -0.23 -0.00    +0.081 A  
DOCKED: ATOM     10  C   UNL     1     132.800  74.533 227.003 -0.31 +0.00    +0.141 A  
DOCKED: ATOM     11  C   UNL     1     134.521  74.093 225.389 -0.23 -0.01    +0.208 A  
DOCKED: ATOM     12  C   UNL     1     131.999  75.429 227.719 -0.35 -0.00    +0.048 A  
DOCKED: ATOM     13  N   UNL     1     133.756  74.994 226.108 -0.21 -0.00    -0.272 N  
DOCKED: ATOM     14  C   UNL     1     132.171  76.797 227.549 -0.34 +0.00    +0.005 A  
DOCKED: ATOM     15  C   UNL     1     133.935  76.351 225.970 -0.29 -0.01    +0.096 A  
DOCKED: ATOM     16  C   UNL     1     133.146  77.262 226.677 -0.30 -0.00    +0.019 A  
DOCKED: BRANCH   4  17
DOCKED: ATOM     17  N   UNL     1     133.676  68.756 226.405 -0.72 -0.02    -0.282 NA 
DOCKED: ATOM     18  H   UNL     1     134.057  67.996 225.798 +0.07 -0.01    +0.189 HD 
DOCKED: ENDBRANCH   4  17
DOCKED: BRANCH  11  19
DOCKED: ATOM     19  O   UNL     1     135.448  74.493 224.415 -0.15 +0.10    -0.494 OA 
DOCKED: ATOM     20  H   UNL     1     136.388  74.139 224.321 -0.37 -0.15    +0.295 HD 
DOCKED: ENDBRANCH  11  19
DOCKED: ENDBRANCH   1   3
DOCKED: BRANCH   1  21
DOCKED: ATOM     21  N   UNL     1     136.999  69.535 224.115 +0.02 +0.06    -0.643 NA 
DOCKED: BRANCH  21  22
DOCKED: ATOM     22  C   UNL     1     138.130  68.749 224.620 -0.24 +0.00    -0.079 C  
DOCKED: ATOM     23  C   UNL     1     138.823  68.012 223.468 -0.27 +0.00    -0.008 C  
DOCKED: BRANCH  22  24
DOCKED: ATOM     24  C   UNL     1     139.044  69.579 225.507 -0.37 +0.01    -0.063 A  
DOCKED: ATOM     25  C   UNL     1     139.224  69.180 226.845 -0.49 -0.00    +0.002 A  
DOCKED: ATOM     26  C   UNL     1     139.713  70.737 225.052 -0.46 -0.00    +0.002 A  
DOCKED: ATOM     27  C   UNL     1     140.040  69.919 227.706 -0.62 -0.00    +0.000 A  
DOCKED: ATOM     28  C   UNL     1     140.530  71.470 225.918 -0.60 -0.00    +0.000 A  
DOCKED: ATOM     29  C   UNL     1     140.694  71.061 227.243 -0.71 -0.00    +0.000 A  
DOCKED: ENDBRANCH  22  24
DOCKED: ENDBRANCH  21  22
DOCKED: ENDBRANCH   1  21
DOCKED: TORSDOF 6
DOCKED: TER
DOCKED: ENDMDL
________________________________________________________________________________


    FINAL DOCKED STATE:
    ________________________


Run:   8 / 20
Time taken for this run:   0.032s

DOCKED: MODEL        8
DOCKED: USER    Run = 8
DOCKED: USER
DOCKED: USER    Estimated Free Energy of Binding    =  -7.96 kcal/mol  [=(1)+(2)+(3)-(4)]
DOCKED: USER
DOCKED: USER    (1) Final Intermolecular Energy     =  -9.75 kcal/mol
DOCKED: USER        vdW + Hbond + desolv Energy     =  -9.75 kcal/mol
DOCKED: USER        Electrostatic Energy            =  -0.00 kcal/mol
DOCKED: USER        Moving Ligand-Fixed Receptor    =  -9.75 kcal/mol
DOCKED: USER        Moving Ligand-Moving Receptor   =  +0.00 kcal/mol
DOCKED: USER    (2) Final Total Internal Energy     =  -0.98 kcal/mol
DOCKED: USER    (3) Torsional Free Energy           =  +1.79 kcal/mol
DOCKED: USER    (4) Unbound System's Energy         =  -0.98 kcal/mol
DOCKED: USER
DOCKED: USER
DOCKED: REMARK SMILES [H]/N=c1\nc2nc3ccccn3c(O)c-2cc1C(=O)[N-][C@@H](C)c1ccccc1
DOCKED: REMARK SMILES IDX 18 1 19 2 17 3 3 4 4 5 5 6 16 7 6 8 15 9 7 10 13 11 8 12
DOCKED: REMARK SMILES IDX 12 13 9 14 11 15 10 16 2 17 1 18 14 19 20 21 21 22 22 23
DOCKED: REMARK SMILES IDX 23 24 24 25 28 26 25 27 27 28 26 29
DOCKED: REMARK H PARENT 14 20
DOCKED: USER                              x       y       z     vdW  Elec       q    Type
DOCKED: USER                           _______ _______ _______ _____ _____    ______ ____
DOCKED: ROOT
DOCKED: ATOM      1  C   UNL     1     135.643  69.517 224.472 -0.20 -0.01    +0.086 C  
DOCKED: ATOM      2  O   UNL     1     135.060  68.479 224.066 -0.62 -0.00    -0.315 OA 
DOCKED: ENDROOT
DOCKED: BRANCH   1   3
DOCKED: ATOM      3  C   UNL     1     134.865  70.523 225.216 -0.20 -0.00    +0.044 A  
DOCKED: ATOM      4  C   UNL     1     133.921  70.144 226.197 -0.25 -0.01    +0.156 A  
DOCKED: ATOM      5  N   UNL     1     133.201  71.091 226.861 -0.27 +0.02    -0.209 NA 
DOCKED: ATOM      6  C   UNL     1     133.377  72.415 226.628 -0.31 -0.01    +0.169 A  
DOCKED: ATOM      7  C   UNL     1     135.112  71.883 224.977 -0.12 -0.00    +0.031 A  
DOCKED: ATOM      8  N   UNL     1     132.631  73.332 227.273 -0.55 +0.02    -0.210 NA 
DOCKED: ATOM      9  C   UNL     1     134.378  72.859 225.658 -0.23 -0.00    +0.081 A  
DOCKED: ATOM     10  C   UNL     1     132.797  74.662 227.052 -0.31 +0.00    +0.141 A  
DOCKED: ATOM     11  C   UNL     1     134.518  74.235 225.434 -0.24 -0.01    +0.208 A  
DOCKED: ATOM     12  C   UNL     1     131.990  75.553 227.768 -0.33 +0.00    +0.048 A  
DOCKED: ATOM     13  N   UNL     1     133.746  75.131 226.153 -0.22 -0.00    -0.272 N  
DOCKED: ATOM     14  C   UNL     1     132.148  76.922 227.595 -0.34 +0.00    +0.005 A  
DOCKED: ATOM     15  C   UNL     1     133.912  76.489 226.011 -0.27 -0.01    +0.096 A  
DOCKED: ATOM     16  C   UNL     1     133.117  77.394 226.719 -0.29 -0.00    +0.019 A  
DOCKED: BRANCH   4  17
DOCKED: ATOM     17  N   UNL     1     133.725  68.892 226.465 -0.72 -0.02    -0.282 NA 
DOCKED: ATOM     18  H   UNL     1     134.016  68.138 225.804 +0.07 -0.01    +0.189 HD 
DOCKED: ENDBRANCH   4  17
DOCKED: BRANCH  11  19
DOCKED: ATOM     19  O   UNL     1     135.438  74.641 224.456 -0.16 +0.09    -0.494 OA 
DOCKED: ATOM     20  H   UNL     1     136.331  74.208 224.277 -0.35 -0.14    +0.295 HD 
DOCKED: ENDBRANCH  11  19
DOCKED: ENDBRANCH   1   3
DOCKED: BRANCH   1  21
DOCKED: ATOM     21  N   UNL     1     137.051  69.661 224.231 +0.03 +0.07    -0.643 NA 
DOCKED: BRANCH  21  22
DOCKED: ATOM     22  C   UNL     1     138.143  68.843 224.770 -0.29 +0.00    -0.079 C  
DOCKED: ATOM     23  C   UNL     1     138.823  68.052 223.645 -0.27 +0.00    -0.008 C  
DOCKED: BRANCH  22  24
DOCKED: ATOM     24  C   UNL     1     139.078  69.657 225.651 -0.37 +0.01    -0.063 A  
DOCKED: ATOM     25  C   UNL     1     139.206  69.297 227.006 -0.48 -0.00    +0.002 A  
DOCKED: ATOM     26  C   UNL     1     139.815  70.763 225.173 -0.48 -0.00    +0.002 A  
DOCKED: ATOM     27  C   UNL     1     140.039  70.023 227.861 -0.63 -0.00    +0.000 A  
DOCKED: ATOM     28  C   UNL     1     140.648  71.485 226.035 -0.63 -0.00    +0.000 A  
DOCKED: ATOM     29  C   UNL     1     140.759  71.115 227.376 -0.72 -0.00    +0.000 A  
DOCKED: ENDBRANCH  22  24
DOCKED: ENDBRANCH  21  22
DOCKED: ENDBRANCH   1  21
DOCKED: TORSDOF 6
DOCKED: TER
DOCKED: ENDMDL
________________________________________________________________________________


    FINAL DOCKED STATE:
    ________________________


Run:   9 / 20
Time taken for this run:   0.032s

DOCKED: MODEL        9
DOCKED: USER    Run = 9
DOCKED: USER
DOCKED: USER    Estimated Free Energy of Binding    =  -7.95 kcal/mol  [=(1)+(2)+(3)-(4)]
DOCKED: USER
DOCKED: USER    (1) Final Intermolecular Energy     =  -9.74 kcal/mol
DOCKED: USER        vdW + Hbond + desolv Energy     =  -9.70 kcal/mol
DOCKED: USER        Electrostatic Energy            =  -0.03 kcal/mol
DOCKED: USER        Moving Ligand-Fixed Receptor    =  -9.74 kcal/mol
DOCKED: USER        Moving Ligand-Moving Receptor   =  +0.00 kcal/mol
DOCKED: USER    (2) Final Total Internal Energy     =  -0.97 kcal/mol
DOCKED: USER    (3) Torsional Free Energy           =  +1.79 kcal/mol
DOCKED: USER    (4) Unbound System's Energy         =  -0.97 kcal/mol
DOCKED: USER
DOCKED: USER
DOCKED: REMARK SMILES [H]/N=c1\nc2nc3ccccn3c(O)c-2cc1C(=O)[N-][C@@H](C)c1ccccc1
DOCKED: REMARK SMILES IDX 18 1 19 2 17 3 3 4 4 5 5 6 16 7 6 8 15 9 7 10 13 11 8 12
DOCKED: REMARK SMILES IDX 12 13 9 14 11 15 10 16 2 17 1 18 14 19 20 21 21 22 22 23
DOCKED: REMARK SMILES IDX 23 24 24 25 28 26 25 27 27 28 26 29
DOCKED: REMARK H PARENT 14 20
DOCKED: USER                              x       y       z     vdW  Elec       q    Type
DOCKED: USER                           _______ _______ _______ _____ _____    ______ ____
DOCKED: ROOT
DOCKED: ATOM      1  C   UNL     1     135.580  69.383 224.478 -0.20 -0.00    +0.086 C  
DOCKED: ATOM      2  O   UNL     1     135.035  68.278 224.220 -0.63 -0.02    -0.315 OA 
DOCKED: ENDROOT
DOCKED: BRANCH   1   3
DOCKED: ATOM      3  C   UNL     1     134.809  70.399 225.215 -0.21 -0.00    +0.044 A  
DOCKED: ATOM      4  C   UNL     1     133.851  70.032 226.187 -0.24 -0.01    +0.156 A  
DOCKED: ATOM      5  N   UNL     1     133.138  70.988 226.846 -0.28 +0.02    -0.209 NA 
DOCKED: ATOM      6  C   UNL     1     133.333  72.310 226.614 -0.31 -0.01    +0.169 A  
DOCKED: ATOM      7  C   UNL     1     135.076  71.756 224.979 -0.15 -0.00    +0.031 A  
DOCKED: ATOM      8  N   UNL     1     132.595  73.237 227.254 -0.50 +0.02    -0.210 NA 
DOCKED: ATOM      9  C   UNL     1     134.350  72.741 225.654 -0.24 -0.00    +0.081 A  
DOCKED: ATOM     10  C   UNL     1     132.781  74.565 227.035 -0.31 +0.00    +0.141 A  
DOCKED: ATOM     11  C   UNL     1     134.510  74.115 225.432 -0.23 -0.00    +0.208 A  
DOCKED: ATOM     12  C   UNL     1     131.980  75.466 227.744 -0.34 -0.00    +0.048 A  
DOCKED: ATOM     13  N   UNL     1     133.745  75.021 226.145 -0.21 -0.00    -0.272 N  
DOCKED: ATOM     14  C   UNL     1     132.158  76.833 227.573 -0.34 +0.00    +0.005 A  
DOCKED: ATOM     15  C   UNL     1     133.930  76.377 226.005 -0.29 -0.01    +0.096 A  
DOCKED: ATOM     16  C   UNL     1     133.141  77.292 226.706 -0.30 -0.00    +0.019 A  
DOCKED: BRANCH   4  17
DOCKED: ATOM     17  N   UNL     1     133.635  68.783 226.453 -0.72 -0.02    -0.282 NA 
DOCKED: ATOM     18  H   UNL     1     133.949  68.023 225.809 +0.07 -0.01    +0.189 HD 
DOCKED: ENDBRANCH   4  17
DOCKED: BRANCH  11  19
DOCKED: ATOM     19  O   UNL     1     135.444  74.509 224.463 -0.16 +0.10    -0.494 OA 
DOCKED: ATOM     20  H   UNL     1     136.374  74.133 224.360 -0.37 -0.14    +0.295 HD 
DOCKED: ENDBRANCH  11  19
DOCKED: ENDBRANCH   1   3
DOCKED: BRANCH   1  21
DOCKED: ATOM     21  N   UNL     1     136.943  69.594 224.080 +0.02 +0.07    -0.643 NA 
DOCKED: BRANCH  21  22
DOCKED: ATOM     22  C   UNL     1     138.125  68.823 224.482 -0.27 +0.01    -0.079 C  
DOCKED: ATOM     23  C   UNL     1     138.796  68.196 223.254 -0.27 +0.00    -0.008 C  
DOCKED: BRANCH  22  24
DOCKED: ATOM     24  C   UNL     1     139.045  69.629 225.387 -0.37 +0.01    -0.063 A  
DOCKED: ATOM     25  C   UNL     1     139.216  69.204 226.718 -0.49 -0.00    +0.002 A  
DOCKED: ATOM     26  C   UNL     1     139.725  70.789 224.954 -0.46 -0.00    +0.002 A  
DOCKED: ATOM     27  C   UNL     1     140.037  69.920 227.594 -0.61 -0.00    +0.000 A  
DOCKED: ATOM     28  C   UNL     1     140.546  71.499 225.836 -0.60 -0.00    +0.000 A  
DOCKED: ATOM     29  C   UNL     1     140.701  71.065 227.154 -0.70 -0.00    +0.000 A  
DOCKED: ENDBRANCH  22  24
DOCKED: ENDBRANCH  21  22
DOCKED: ENDBRANCH   1  21
DOCKED: TORSDOF 6
DOCKED: TER
DOCKED: ENDMDL
________________________________________________________________________________


    FINAL DOCKED STATE:
    ________________________


Run:   10 / 20
Time taken for this run:   0.032s

DOCKED: MODEL        10
DOCKED: USER    Run = 10
DOCKED: USER
DOCKED: USER    Estimated Free Energy of Binding    =  -7.83 kcal/mol  [=(1)+(2)+(3)-(4)]
DOCKED: USER
DOCKED: USER    (1) Final Intermolecular Energy     =  -9.62 kcal/mol
DOCKED: USER        vdW + Hbond + desolv Energy     =  -9.56 kcal/mol
DOCKED: USER        Electrostatic Energy            =  -0.06 kcal/mol
DOCKED: USER        Moving Ligand-Fixed Receptor    =  -9.62 kcal/mol
DOCKED: USER        Moving Ligand-Moving Receptor   =  +0.00 kcal/mol
DOCKED: USER    (2) Final Total Internal Energy     =  -0.72 kcal/mol
DOCKED: USER    (3) Torsional Free Energy           =  +1.79 kcal/mol
DOCKED: USER    (4) Unbound System's Energy         =  -0.72 kcal/mol
DOCKED: USER
DOCKED: USER
DOCKED: REMARK SMILES [H]/N=c1\nc2nc3ccccn3c(O)c-2cc1C(=O)[N-][C@@H](C)c1ccccc1
DOCKED: REMARK SMILES IDX 18 1 19 2 17 3 3 4 4 5 5 6 16 7 6 8 15 9 7 10 13 11 8 12
DOCKED: REMARK SMILES IDX 12 13 9 14 11 15 10 16 2 17 1 18 14 19 20 21 21 22 22 23
DOCKED: REMARK SMILES IDX 23 24 24 25 28 26 25 27 27 28 26 29
DOCKED: REMARK H PARENT 14 20
DOCKED: USER                              x       y       z     vdW  Elec       q    Type
DOCKED: USER                           _______ _______ _______ _____ _____    ______ ____
DOCKED: ROOT
DOCKED: ATOM      1  C   UNL     1     135.616  69.111 224.537 -0.16 -0.00    +0.086 C  
DOCKED: ATOM      2  O   UNL     1     135.046  68.391 223.677 -0.56 +0.00    -0.315 OA 
DOCKED: ENDROOT
DOCKED: BRANCH   1   3
DOCKED: ATOM      3  C   UNL     1     134.821  70.126 225.251 -0.23 -0.00    +0.044 A  
DOCKED: ATOM      4  C   UNL     1     133.825  69.757 226.183 -0.23 -0.00    +0.156 A  
DOCKED: ATOM      5  N   UNL     1     133.091  70.712 226.820 -0.30 +0.01    -0.209 NA 
DOCKED: ATOM      6  C   UNL     1     133.302  72.034 226.606 -0.31 -0.01    +0.169 A  
DOCKED: ATOM      7  C   UNL     1     135.104  71.483 225.035 -0.10 -0.00    +0.031 A  
DOCKED: ATOM      8  N   UNL     1     132.543  72.961 227.222 -0.41 +0.03    -0.210 NA 
DOCKED: ATOM      9  C   UNL     1     134.356  72.467 225.688 -0.23 -0.00    +0.081 A  
DOCKED: ATOM     10  C   UNL     1     132.744  74.289 227.020 -0.31 +0.00    +0.141 A  
DOCKED: ATOM     11  C   UNL     1     134.532  73.841 225.483 -0.20 -0.00    +0.208 A  
DOCKED: ATOM     12  C   UNL     1     131.920  75.189 227.705 -0.36 -0.00    +0.048 A  
DOCKED: ATOM     13  N   UNL     1     133.743  74.746 226.172 -0.21 -0.01    -0.272 N  
DOCKED: ATOM     14  C   UNL     1     132.111  76.556 227.551 -0.35 +0.00    +0.005 A  
DOCKED: ATOM     15  C   UNL     1     133.940  76.102 226.049 -0.32 -0.01    +0.096 A  
DOCKED: ATOM     16  C   UNL     1     133.129  77.016 226.726 -0.32 -0.00    +0.019 A  
DOCKED: BRANCH   4  17
DOCKED: ATOM     17  N   UNL     1     133.593  68.507 226.431 -0.73 -0.02    -0.282 NA 
DOCKED: ATOM     18  H   UNL     1     133.920  67.751 225.789 +0.06 -0.02    +0.189 HD 
DOCKED: ENDBRANCH   4  17
DOCKED: BRANCH  11  19
DOCKED: ATOM     19  O   UNL     1     135.505  74.238 224.554 -0.15 +0.10    -0.494 OA 
DOCKED: ATOM     20  H   UNL     1     136.437  73.859 224.485 -0.42 -0.15    +0.295 HD 
DOCKED: ENDBRANCH  11  19
DOCKED: ENDBRANCH   1   3
DOCKED: BRANCH   1  21
DOCKED: ATOM     21  N   UNL     1     137.006  68.888 224.818 +0.06 +0.02    -0.643 NA 
DOCKED: BRANCH  21  22
DOCKED: ATOM     22  C   UNL     1     138.159  69.613 224.272 -0.28 +0.01    -0.079 C  
DOCKED: ATOM     23  C   UNL     1     137.691  70.744 223.349 -0.22 +0.00    -0.008 C  
DOCKED: BRANCH  22  24
DOCKED: ATOM     24  C   UNL     1     139.137  70.023 225.363 -0.36 +0.01    -0.063 A  
DOCKED: ATOM     25  C   UNL     1     139.193  69.250 226.538 -0.49 -0.00    +0.002 A  
DOCKED: ATOM     26  C   UNL     1     139.982  71.149 225.253 -0.51 -0.00    +0.002 A  
DOCKED: ATOM     27  C   UNL     1     140.062  69.596 227.577 -0.61 -0.00    +0.000 A  
DOCKED: ATOM     28  C   UNL     1     140.850  71.488 226.296 -0.68 -0.00    +0.000 A  
DOCKED: ATOM     29  C   UNL     1     140.890  70.712 227.456 -0.66 -0.00    +0.000 A  
DOCKED: ENDBRANCH  22  24
DOCKED: ENDBRANCH  21  22
DOCKED: ENDBRANCH   1  21
DOCKED: TORSDOF 6
DOCKED: TER
DOCKED: ENDMDL
________________________________________________________________________________


    FINAL DOCKED STATE:
    ________________________


Run:   11 / 20
Time taken for this run:   0.032s

DOCKED: MODEL        11
DOCKED: USER    Run = 11
DOCKED: USER
DOCKED: USER    Estimated Free Energy of Binding    =  -6.34 kcal/mol  [=(1)+(2)+(3)-(4)]
DOCKED: USER
DOCKED: USER    (1) Final Intermolecular Energy     =  -8.13 kcal/mol
DOCKED: USER        vdW + Hbond + desolv Energy     =  -8.20 kcal/mol
DOCKED: USER        Electrostatic Energy            =  +0.07 kcal/mol
DOCKED: USER        Moving Ligand-Fixed Receptor    =  -8.13 kcal/mol
DOCKED: USER        Moving Ligand-Moving Receptor   =  +0.00 kcal/mol
DOCKED: USER    (2) Final Total Internal Energy     =  -1.64 kcal/mol
DOCKED: USER    (3) Torsional Free Energy           =  +1.79 kcal/mol
DOCKED: USER    (4) Unbound System's Energy         =  -1.64 kcal/mol
DOCKED: USER
DOCKED: USER
DOCKED: REMARK SMILES [H]/N=c1\nc2nc3ccccn3c(O)c-2cc1C(=O)[N-][C@@H](C)c1ccccc1
DOCKED: REMARK SMILES IDX 18 1 19 2 17 3 3 4 4 5 5 6 16 7 6 8 15 9 7 10 13 11 8 12
DOCKED: REMARK SMILES IDX 12 13 9 14 11 15 10 16 2 17 1 18 14 19 20 21 21 22 22 23
DOCKED: REMARK SMILES IDX 23 24 24 25 28 26 25 27 27 28 26 29
DOCKED: REMARK H PARENT 14 20
DOCKED: USER                              x       y       z     vdW  Elec       q    Type
DOCKED: USER                           _______ _______ _______ _____ _____    ______ ____
DOCKED: ROOT
DOCKED: ATOM      1  C   UNL     1     137.455  78.874 222.200 -0.15 -0.01    +0.086 C  
DOCKED: ATOM      2  O   UNL     1     136.214  78.713 222.331 -0.06 +0.05    -0.315 OA 
DOCKED: ENDROOT
DOCKED: BRANCH   1   3
DOCKED: ATOM      3  C   UNL     1     138.310  77.686 222.028 -0.21 -0.01    +0.044 A  
DOCKED: ATOM      4  C   UNL     1     137.911  76.418 222.507 -0.23 -0.03    +0.156 A  
DOCKED: ATOM      5  N   UNL     1     138.725  75.337 222.350 -0.26 +0.05    -0.209 NA 
DOCKED: ATOM      6  C   UNL     1     139.921  75.429 221.718 -0.26 -0.03    +0.169 A  
DOCKED: ATOM      7  C   UNL     1     139.517  77.817 221.326 -0.19 -0.01    +0.031 A  
DOCKED: ATOM      8  N   UNL     1     140.723  74.354 221.603 -0.54 +0.02    -0.210 NA 
DOCKED: ATOM      9  C   UNL     1     140.355  76.710 221.160 -0.24 -0.03    +0.081 A  
DOCKED: ATOM     10  C   UNL     1     141.923  74.430 220.970 -0.21 -0.04    +0.141 A  
DOCKED: ATOM     11  C   UNL     1     141.604  76.767 220.528 -0.19 -0.11    +0.208 A  
DOCKED: ATOM     12  C   UNL     1     142.695  73.266 220.884 -0.23 -0.01    +0.048 A  
DOCKED: ATOM     13  N   UNL     1     142.368  75.620 220.411 -0.16 +0.14    -0.272 N  
DOCKED: ATOM     14  C   UNL     1     143.914  73.292 220.219 -0.37 -0.00    +0.005 A  
DOCKED: ATOM     15  C   UNL     1     143.564  75.626 219.731 -0.37 -0.06    +0.096 A  
DOCKED: ATOM     16  C   UNL     1     144.348  74.474 219.633 -0.34 -0.01    +0.019 A  
DOCKED: BRANCH   4  17
DOCKED: ATOM     17  N   UNL     1     136.773  76.275 223.108 -0.17 +0.06    -0.282 NA 
DOCKED: ATOM     18  H   UNL     1     136.037  77.016 223.072 +0.05 -0.03    +0.189 HD 
DOCKED: ENDBRANCH   4  17
DOCKED: BRANCH  11  19
DOCKED: ATOM     19  O   UNL     1     142.033  78.015 220.054 -0.10 +0.33    -0.494 OA 
DOCKED: ATOM     20  H   UNL     1     142.951  78.409 220.191 -0.26 -0.33    +0.295 HD 
DOCKED: ENDBRANCH  11  19
DOCKED: ENDBRANCH   1   3
DOCKED: BRANCH   1  21
DOCKED: ATOM     21  N   UNL     1     137.984  80.209 222.183 +0.04 +0.10    -0.643 NA 
DOCKED: BRANCH  21  22
DOCKED: ATOM     22  C   UNL     1     138.771  80.876 223.226 -0.30 +0.01    -0.079 C  
DOCKED: ATOM     23  C   UNL     1     138.118  80.675 224.599 -0.38 +0.00    -0.008 C  
DOCKED: BRANCH  22  24
DOCKED: ATOM     24  C   UNL     1     140.245  80.506 223.144 -0.38 +0.01    -0.063 A  
DOCKED: ATOM     25  C   UNL     1     140.693  79.380 223.860 -0.51 -0.00    +0.002 A  
DOCKED: ATOM     26  C   UNL     1     141.182  81.246 222.391 -0.44 -0.00    +0.002 A  
DOCKED: ATOM     27  C   UNL     1     142.040  79.008 223.832 -0.58 -0.00    +0.000 A  
DOCKED: ATOM     28  C   UNL     1     142.528  80.867 222.366 -0.52 -0.00    +0.000 A  
DOCKED: ATOM     29  C   UNL     1     142.957  79.750 223.086 -0.63 -0.00    +0.000 A  
DOCKED: ENDBRANCH  22  24
DOCKED: ENDBRANCH  21  22
DOCKED: ENDBRANCH   1  21
DOCKED: TORSDOF 6
DOCKED: TER
DOCKED: ENDMDL
________________________________________________________________________________


    FINAL DOCKED STATE:
    ________________________


Run:   12 / 20
Time taken for this run:   0.032s

DOCKED: MODEL        12
DOCKED: USER    Run = 12
DOCKED: USER
DOCKED: USER    Estimated Free Energy of Binding    =  -7.84 kcal/mol  [=(1)+(2)+(3)-(4)]
DOCKED: USER
DOCKED: USER    (1) Final Intermolecular Energy     =  -9.63 kcal/mol
DOCKED: USER        vdW + Hbond + desolv Energy     =  -9.58 kcal/mol
DOCKED: USER        Electrostatic Energy            =  -0.05 kcal/mol
DOCKED: USER        Moving Ligand-Fixed Receptor    =  -9.63 kcal/mol
DOCKED: USER        Moving Ligand-Moving Receptor   =  +0.00 kcal/mol
DOCKED: USER    (2) Final Total Internal Energy     =  -0.70 kcal/mol
DOCKED: USER    (3) Torsional Free Energy           =  +1.79 kcal/mol
DOCKED: USER    (4) Unbound System's Energy         =  -0.70 kcal/mol
DOCKED: USER
DOCKED: USER
DOCKED: REMARK SMILES [H]/N=c1\nc2nc3ccccn3c(O)c-2cc1C(=O)[N-][C@@H](C)c1ccccc1
DOCKED: REMARK SMILES IDX 18 1 19 2 17 3 3 4 4 5 5 6 16 7 6 8 15 9 7 10 13 11 8 12
DOCKED: REMARK SMILES IDX 12 13 9 14 11 15 10 16 2 17 1 18 14 19 20 21 21 22 22 23
DOCKED: REMARK SMILES IDX 23 24 24 25 28 26 25 27 27 28 26 29
DOCKED: REMARK H PARENT 14 20
DOCKED: USER                              x       y       z     vdW  Elec       q    Type
DOCKED: USER                           _______ _______ _______ _____ _____    ______ ____
DOCKED: ROOT
DOCKED: ATOM      1  C   UNL     1     135.661  69.129 224.519 -0.16 -0.00    +0.086 C  
DOCKED: ATOM      2  O   UNL     1     135.084  68.417 223.657 -0.55 +0.00    -0.315 OA 
DOCKED: ENDROOT
DOCKED: BRANCH   1   3
DOCKED: ATOM      3  C   UNL     1     134.877  70.152 225.235 -0.23 -0.00    +0.044 A  
DOCKED: ATOM      4  C   UNL     1     133.895  69.792 226.186 -0.24 -0.00    +0.156 A  
DOCKED: ATOM      5  N   UNL     1     133.171  70.754 226.824 -0.30 +0.01    -0.209 NA 
DOCKED: ATOM      6  C   UNL     1     133.377  72.073 226.592 -0.31 -0.01    +0.169 A  
DOCKED: ATOM      7  C   UNL     1     135.155  71.506 224.999 -0.09 -0.00    +0.031 A  
DOCKED: ATOM      8  N   UNL     1     132.627  73.006 227.211 -0.46 +0.02    -0.210 NA 
DOCKED: ATOM      9  C   UNL     1     134.416  72.497 225.653 -0.20 -0.00    +0.081 A  
DOCKED: ATOM     10  C   UNL     1     132.823  74.332 226.991 -0.31 +0.00    +0.141 A  
DOCKED: ATOM     11  C   UNL     1     134.587  73.869 225.430 -0.20 -0.00    +0.208 A  
DOCKED: ATOM     12  C   UNL     1     132.009  75.239 227.678 -0.36 -0.00    +0.048 A  
DOCKED: ATOM     13  N   UNL     1     133.809  74.781 226.121 -0.21 -0.01    -0.272 N  
DOCKED: ATOM     14  C   UNL     1     132.196  76.605 227.506 -0.35 +0.00    +0.005 A  
DOCKED: ATOM     15  C   UNL     1     134.002  76.136 225.981 -0.31 -0.01    +0.096 A  
DOCKED: ATOM     16  C   UNL     1     133.201  77.057 226.660 -0.32 -0.00    +0.019 A  
DOCKED: BRANCH   4  17
DOCKED: ATOM     17  N   UNL     1     133.669  68.545 226.452 -0.72 -0.02    -0.282 NA 
DOCKED: ATOM     18  H   UNL     1     133.958  67.784 225.797 +0.06 -0.02    +0.189 HD 
DOCKED: ENDBRANCH   4  17
DOCKED: BRANCH  11  19
DOCKED: ATOM     19  O   UNL     1     135.544  74.256 224.481 -0.14 +0.11    -0.494 OA 
DOCKED: ATOM     20  H   UNL     1     136.473  73.873 224.397 -0.42 -0.16    +0.295 HD 
DOCKED: ENDBRANCH  11  19
DOCKED: ENDBRANCH   1   3
DOCKED: BRANCH   1  21
DOCKED: ATOM     21  N   UNL     1     137.049  68.892 224.800 +0.06 +0.02    -0.643 NA 
DOCKED: BRANCH  21  22
DOCKED: ATOM     22  C   UNL     1     138.207  69.633 224.291 -0.28 +0.01    -0.079 C  
DOCKED: ATOM     23  C   UNL     1     137.749  70.784 223.386 -0.22 +0.00    -0.008 C  
DOCKED: BRANCH  22  24
DOCKED: ATOM     24  C   UNL     1     139.164  70.022 225.407 -0.36 +0.01    -0.063 A  
DOCKED: ATOM     25  C   UNL     1     140.037  71.106 225.194 -0.51 -0.00    +0.002 A  
DOCKED: ATOM     26  C   UNL     1     139.223  69.339 226.642 -0.48 -0.00    +0.002 A  
DOCKED: ATOM     27  C   UNL     1     140.947  71.493 226.182 -0.67 -0.00    +0.000 A  
DOCKED: ATOM     28  C   UNL     1     140.135  69.733 227.627 -0.61 -0.00    +0.000 A  
DOCKED: ATOM     29  C   UNL     1     140.996  70.808 227.397 -0.67 -0.00    +0.000 A  
DOCKED: ENDBRANCH  22  24
DOCKED: ENDBRANCH  21  22
DOCKED: ENDBRANCH   1  21
DOCKED: TORSDOF 6
DOCKED: TER
DOCKED: ENDMDL
________________________________________________________________________________


    FINAL DOCKED STATE:
    ________________________


Run:   13 / 20
Time taken for this run:   0.032s

DOCKED: MODEL        13
DOCKED: USER    Run = 13
DOCKED: USER
DOCKED: USER    Estimated Free Energy of Binding    =  -6.34 kcal/mol  [=(1)+(2)+(3)-(4)]
DOCKED: USER
DOCKED: USER    (1) Final Intermolecular Energy     =  -8.13 kcal/mol
DOCKED: USER        vdW + Hbond + desolv Energy     =  -8.22 kcal/mol
DOCKED: USER        Electrostatic Energy            =  +0.08 kcal/mol
DOCKED: USER        Moving Ligand-Fixed Receptor    =  -8.13 kcal/mol
DOCKED: USER        Moving Ligand-Moving Receptor   =  +0.00 kcal/mol
DOCKED: USER    (2) Final Total Internal Energy     =  -1.51 kcal/mol
DOCKED: USER    (3) Torsional Free Energy           =  +1.79 kcal/mol
DOCKED: USER    (4) Unbound System's Energy         =  -1.51 kcal/mol
DOCKED: USER
DOCKED: USER
DOCKED: REMARK SMILES [H]/N=c1\nc2nc3ccccn3c(O)c-2cc1C(=O)[N-][C@@H](C)c1ccccc1
DOCKED: REMARK SMILES IDX 18 1 19 2 17 3 3 4 4 5 5 6 16 7 6 8 15 9 7 10 13 11 8 12
DOCKED: REMARK SMILES IDX 12 13 9 14 11 15 10 16 2 17 1 18 14 19 20 21 21 22 22 23
DOCKED: REMARK SMILES IDX 23 24 24 25 28 26 25 27 27 28 26 29
DOCKED: REMARK H PARENT 14 20
DOCKED: USER                              x       y       z     vdW  Elec       q    Type
DOCKED: USER                           _______ _______ _______ _____ _____    ______ ____
DOCKED: ROOT
DOCKED: ATOM      1  C   UNL     1     138.367  78.747 221.518 -0.13 -0.02    +0.086 C  
DOCKED: ATOM      2  O   UNL     1     138.093  79.289 220.416 -0.02 +0.07    -0.315 OA 
DOCKED: ENDROOT
DOCKED: BRANCH   1   3
DOCKED: ATOM      3  C   UNL     1     139.155  77.501 221.519 -0.20 -0.01    +0.044 A  
DOCKED: ATOM      4  C   UNL     1     138.757  76.382 222.285 -0.25 -0.03    +0.156 A  
DOCKED: ATOM      5  N   UNL     1     139.509  75.246 222.284 -0.55 +0.03    -0.209 NA 
DOCKED: ATOM      6  C   UNL     1     140.638  75.138 221.541 -0.27 -0.03    +0.169 A  
DOCKED: ATOM      7  C   UNL     1     140.290  77.416 220.700 -0.19 -0.01    +0.031 A  
DOCKED: ATOM      8  N   UNL     1     141.384  74.017 221.580 -0.34 +0.02    -0.210 NA 
DOCKED: ATOM      9  C   UNL     1     141.064  76.252 220.693 -0.24 -0.03    +0.081 A  
DOCKED: ATOM     10  C   UNL     1     142.516  73.893 220.839 -0.21 -0.03    +0.141 A  
DOCKED: ATOM     11  C   UNL     1     142.244  76.107 219.953 -0.22 -0.11    +0.208 A  
DOCKED: ATOM     12  C   UNL     1     143.230  72.693 220.928 -0.21 -0.01    +0.048 A  
DOCKED: ATOM     13  N   UNL     1     142.949  74.917 220.008 -0.18 +0.11    -0.272 N  
DOCKED: ATOM     14  C   UNL     1     144.377  72.513 220.164 -0.37 -0.00    +0.005 A  
DOCKED: ATOM     15  C   UNL     1     144.070  74.716 219.236 -0.24 -0.04    +0.096 A  
DOCKED: ATOM     16  C   UNL     1     144.796  73.524 219.309 -0.34 -0.00    +0.019 A  
DOCKED: BRANCH   4  17
DOCKED: ATOM     17  N   UNL     1     137.680  76.430 223.002 -0.18 +0.06    -0.282 NA 
DOCKED: ATOM     18  H   UNL     1     137.237  77.339 223.266 +0.05 -0.03    +0.189 HD 
DOCKED: ENDBRANCH   4  17
DOCKED: BRANCH  11  19
DOCKED: ATOM     19  O   UNL     1     142.671  77.206 219.194 -0.14 +0.34    -0.494 OA 
DOCKED: ATOM     20  H   UNL     1     143.397  77.854 219.459 -0.36 -0.31    +0.295 HD 
DOCKED: ENDBRANCH  11  19
DOCKED: ENDBRANCH   1   3
DOCKED: BRANCH   1  21
DOCKED: ATOM     21  N   UNL     1     137.937  79.384 222.730 +0.02 +0.10    -0.643 NA 
DOCKED: BRANCH  21  22
DOCKED: ATOM     22  C   UNL     1     138.624  80.439 223.483 -0.34 +0.01    -0.079 C  
DOCKED: ATOM     23  C   UNL     1     138.026  80.567 224.889 -0.28 +0.00    -0.008 C  
DOCKED: BRANCH  22  24
DOCKED: ATOM     24  C   UNL     1     140.136  80.278 223.430 -0.41 +0.01    -0.063 A  
DOCKED: ATOM     25  C   UNL     1     140.906  81.340 222.919 -0.43 -0.00    +0.002 A  
DOCKED: ATOM     26  C   UNL     1     140.800  79.108 223.861 -0.50 -0.00    +0.002 A  
DOCKED: ATOM     27  C   UNL     1     142.297  81.234 222.833 -0.51 -0.00    +0.000 A  
DOCKED: ATOM     28  C   UNL     1     142.192  79.010 223.774 -0.56 -0.00    +0.000 A  
DOCKED: ATOM     29  C   UNL     1     142.939  80.072 223.261 -0.65 -0.00    +0.000 A  
DOCKED: ENDBRANCH  22  24
DOCKED: ENDBRANCH  21  22
DOCKED: ENDBRANCH   1  21
DOCKED: TORSDOF 6
DOCKED: TER
DOCKED: ENDMDL
________________________________________________________________________________


    FINAL DOCKED STATE:
    ________________________


Run:   14 / 20
Time taken for this run:   0.032s

DOCKED: MODEL        14
DOCKED: USER    Run = 14
DOCKED: USER
DOCKED: USER    Estimated Free Energy of Binding    =  -6.37 kcal/mol  [=(1)+(2)+(3)-(4)]
DOCKED: USER
DOCKED: USER    (1) Final Intermolecular Energy     =  -8.16 kcal/mol
DOCKED: USER        vdW + Hbond + desolv Energy     =  -8.24 kcal/mol
DOCKED: USER        Electrostatic Energy            =  +0.08 kcal/mol
DOCKED: USER        Moving Ligand-Fixed Receptor    =  -8.16 kcal/mol
DOCKED: USER        Moving Ligand-Moving Receptor   =  +0.00 kcal/mol
DOCKED: USER    (2) Final Total Internal Energy     =  -1.61 kcal/mol
DOCKED: USER    (3) Torsional Free Energy           =  +1.79 kcal/mol
DOCKED: USER    (4) Unbound System's Energy         =  -1.61 kcal/mol
DOCKED: USER
DOCKED: USER
DOCKED: REMARK SMILES [H]/N=c1\nc2nc3ccccn3c(O)c-2cc1C(=O)[N-][C@@H](C)c1ccccc1
DOCKED: REMARK SMILES IDX 18 1 19 2 17 3 3 4 4 5 5 6 16 7 6 8 15 9 7 10 13 11 8 12
DOCKED: REMARK SMILES IDX 12 13 9 14 11 15 10 16 2 17 1 18 14 19 20 21 21 22 22 23
DOCKED: REMARK SMILES IDX 23 24 24 25 28 26 25 27 27 28 26 29
DOCKED: REMARK H PARENT 14 20
DOCKED: USER                              x       y       z     vdW  Elec       q    Type
DOCKED: USER                           _______ _______ _______ _____ _____    ______ ____
DOCKED: ROOT
DOCKED: ATOM      1  C   UNL     1     137.432  78.828 222.294 -0.16 -0.01    +0.086 C  
DOCKED: ATOM      2  O   UNL     1     136.206  78.657 222.520 -0.07 +0.05    -0.315 OA 
DOCKED: ENDROOT
DOCKED: BRANCH   1   3
DOCKED: ATOM      3  C   UNL     1     138.288  77.645 222.097 -0.22 -0.01    +0.044 A  
DOCKED: ATOM      4  C   UNL     1     137.896  76.369 222.559 -0.24 -0.03    +0.156 A  
DOCKED: ATOM      5  N   UNL     1     138.711  75.292 222.380 -0.25 +0.06    -0.209 NA 
DOCKED: ATOM      6  C   UNL     1     139.902  75.397 221.740 -0.26 -0.03    +0.169 A  
DOCKED: ATOM      7  C   UNL     1     139.490  77.790 221.387 -0.20 -0.01    +0.031 A  
DOCKED: ATOM      8  N   UNL     1     140.706  74.325 221.602 -0.54 +0.02    -0.210 NA 
DOCKED: ATOM      9  C   UNL     1     140.329  76.688 221.198 -0.24 -0.03    +0.081 A  
DOCKED: ATOM     10  C   UNL     1     141.900  74.414 220.960 -0.22 -0.04    +0.141 A  
DOCKED: ATOM     11  C   UNL     1     141.572  76.757 220.556 -0.19 -0.11    +0.208 A  
DOCKED: ATOM     12  C   UNL     1     142.674  73.254 220.851 -0.25 -0.01    +0.048 A  
DOCKED: ATOM     13  N   UNL     1     142.339  75.614 220.416 -0.16 +0.14    -0.272 N  
DOCKED: ATOM     14  C   UNL     1     143.888  73.293 220.176 -0.36 -0.00    +0.005 A  
DOCKED: ATOM     15  C   UNL     1     143.529  75.633 219.726 -0.36 -0.06    +0.096 A  
DOCKED: ATOM     16  C   UNL     1     144.315  74.485 219.605 -0.33 -0.01    +0.019 A  
DOCKED: BRANCH   4  17
DOCKED: ATOM     17  N   UNL     1     136.763  76.214 223.167 -0.16 +0.06    -0.282 NA 
DOCKED: ATOM     18  H   UNL     1     136.067  76.990 223.235 +0.05 -0.03    +0.189 HD 
DOCKED: ENDBRANCH   4  17
DOCKED: BRANCH  11  19
DOCKED: ATOM     19  O   UNL     1     141.994  78.014 220.098 -0.09 +0.32    -0.494 OA 
DOCKED: ATOM     20  H   UNL     1     142.927  78.386 220.189 -0.26 -0.33    +0.295 HD 
DOCKED: ENDBRANCH  11  19
DOCKED: ENDBRANCH   1   3
DOCKED: BRANCH   1  21
DOCKED: ATOM     21  N   UNL     1     137.939  80.168 222.197 +0.04 +0.10    -0.643 NA 
DOCKED: BRANCH  21  22
DOCKED: ATOM     22  C   UNL     1     138.741  80.898 223.184 -0.30 +0.01    -0.079 C  
DOCKED: ATOM     23  C   UNL     1     138.108  80.782 224.576 -0.39 +0.00    -0.008 C  
DOCKED: BRANCH  22  24
DOCKED: ATOM     24  C   UNL     1     140.214  80.523 223.105 -0.38 +0.01    -0.063 A  
DOCKED: ATOM     25  C   UNL     1     140.665  79.416 223.847 -0.52 -0.00    +0.002 A  
DOCKED: ATOM     26  C   UNL     1     141.148  81.243 222.327 -0.43 -0.00    +0.002 A  
DOCKED: ATOM     27  C   UNL     1     142.011  79.042 223.821 -0.59 -0.00    +0.000 A  
DOCKED: ATOM     28  C   UNL     1     142.494  80.862 222.305 -0.51 -0.00    +0.000 A  
DOCKED: ATOM     29  C   UNL     1     142.924  79.763 223.051 -0.63 -0.00    +0.000 A  
DOCKED: ENDBRANCH  22  24
DOCKED: ENDBRANCH  21  22
DOCKED: ENDBRANCH   1  21
DOCKED: TORSDOF 6
DOCKED: TER
DOCKED: ENDMDL
________________________________________________________________________________


    FINAL DOCKED STATE:
    ________________________


Run:   15 / 20
Time taken for this run:   0.032s

DOCKED: MODEL        15
DOCKED: USER    Run = 15
DOCKED: USER
DOCKED: USER    Estimated Free Energy of Binding    =  -6.38 kcal/mol  [=(1)+(2)+(3)-(4)]
DOCKED: USER
DOCKED: USER    (1) Final Intermolecular Energy     =  -8.17 kcal/mol
DOCKED: USER        vdW + Hbond + desolv Energy     =  -8.24 kcal/mol
DOCKED: USER        Electrostatic Energy            =  +0.07 kcal/mol
DOCKED: USER        Moving Ligand-Fixed Receptor    =  -8.17 kcal/mol
DOCKED: USER        Moving Ligand-Moving Receptor   =  +0.00 kcal/mol
DOCKED: USER    (2) Final Total Internal Energy     =  -1.61 kcal/mol
DOCKED: USER    (3) Torsional Free Energy           =  +1.79 kcal/mol
DOCKED: USER    (4) Unbound System's Energy         =  -1.61 kcal/mol
DOCKED: USER
DOCKED: USER
DOCKED: REMARK SMILES [H]/N=c1\nc2nc3ccccn3c(O)c-2cc1C(=O)[N-][C@@H](C)c1ccccc1
DOCKED: REMARK SMILES IDX 18 1 19 2 17 3 3 4 4 5 5 6 16 7 6 8 15 9 7 10 13 11 8 12
DOCKED: REMARK SMILES IDX 12 13 9 14 11 15 10 16 2 17 1 18 14 19 20 21 21 22 22 23
DOCKED: REMARK SMILES IDX 23 24 24 25 28 26 25 27 27 28 26 29
DOCKED: REMARK H PARENT 14 20
DOCKED: USER                              x       y       z     vdW  Elec       q    Type
DOCKED: USER                           _______ _______ _______ _____ _____    ______ ____
DOCKED: ROOT
DOCKED: ATOM      1  C   UNL     1     137.476  78.832 222.324 -0.16 -0.01    +0.086 C  
DOCKED: ATOM      2  O   UNL     1     136.252  78.665 222.561 -0.08 +0.05    -0.315 OA 
DOCKED: ENDROOT
DOCKED: BRANCH   1   3
DOCKED: ATOM      3  C   UNL     1     138.328  77.647 222.121 -0.22 -0.01    +0.044 A  
DOCKED: ATOM      4  C   UNL     1     137.933  76.371 222.583 -0.24 -0.03    +0.156 A  
DOCKED: ATOM      5  N   UNL     1     138.744  75.292 222.399 -0.25 +0.06    -0.209 NA 
DOCKED: ATOM      6  C   UNL     1     139.932  75.393 221.754 -0.26 -0.03    +0.169 A  
DOCKED: ATOM      7  C   UNL     1     139.527  77.788 221.407 -0.20 -0.01    +0.031 A  
DOCKED: ATOM      8  N   UNL     1     140.732  74.319 221.611 -0.54 +0.02    -0.210 NA 
DOCKED: ATOM      9  C   UNL     1     140.362  76.683 221.213 -0.25 -0.03    +0.081 A  
DOCKED: ATOM     10  C   UNL     1     141.924  74.405 220.965 -0.21 -0.04    +0.141 A  
DOCKED: ATOM     11  C   UNL     1     141.602  76.749 220.567 -0.19 -0.11    +0.208 A  
DOCKED: ATOM     12  C   UNL     1     142.694  73.242 220.850 -0.25 -0.01    +0.048 A  
DOCKED: ATOM     13  N   UNL     1     142.365  75.604 220.421 -0.16 +0.14    -0.272 N  
DOCKED: ATOM     14  C   UNL     1     143.905  73.279 220.171 -0.36 -0.00    +0.005 A  
DOCKED: ATOM     15  C   UNL     1     143.552  75.621 219.727 -0.37 -0.06    +0.096 A  
DOCKED: ATOM     16  C   UNL     1     144.334  74.470 219.600 -0.33 -0.01    +0.019 A  
DOCKED: BRANCH   4  17
DOCKED: ATOM     17  N   UNL     1     136.802  76.219 223.195 -0.16 +0.06    -0.282 NA 
DOCKED: ATOM     18  H   UNL     1     136.080  76.974 223.209 +0.05 -0.03    +0.189 HD 
DOCKED: ENDBRANCH   4  17
DOCKED: BRANCH  11  19
DOCKED: ATOM     19  O   UNL     1     142.027  78.006 220.110 -0.10 +0.33    -0.494 OA 
DOCKED: ATOM     20  H   UNL     1     142.952  78.390 220.230 -0.26 -0.33    +0.295 HD 
DOCKED: ENDBRANCH  11  19
DOCKED: ENDBRANCH   1   3
DOCKED: BRANCH   1  21
DOCKED: ATOM     21  N   UNL     1     137.987  80.170 222.220 +0.04 +0.10    -0.643 NA 
DOCKED: BRANCH  21  22
DOCKED: ATOM     22  C   UNL     1     138.783  80.906 223.208 -0.30 +0.01    -0.079 C  
DOCKED: ATOM     23  C   UNL     1     138.109  80.852 224.584 -0.39 +0.00    -0.008 C  
DOCKED: BRANCH  22  24
DOCKED: ATOM     24  C   UNL     1     140.245  80.486 223.181 -0.39 +0.01    -0.063 A  
DOCKED: ATOM     25  C   UNL     1     141.144  81.237 222.400 -0.44 -0.00    +0.002 A  
DOCKED: ATOM     26  C   UNL     1     140.738  79.373 223.897 -0.50 -0.00    +0.002 A  
DOCKED: ATOM     27  C   UNL     1     142.494  80.882 222.329 -0.51 -0.00    +0.000 A  
DOCKED: ATOM     28  C   UNL     1     142.090  79.025 223.822 -0.57 -0.00    +0.000 A  
DOCKED: ATOM     29  C   UNL     1     142.967  79.778 223.039 -0.63 -0.00    +0.000 A  
DOCKED: ENDBRANCH  22  24
DOCKED: ENDBRANCH  21  22
DOCKED: ENDBRANCH   1  21
DOCKED: TORSDOF 6
DOCKED: TER
DOCKED: ENDMDL
________________________________________________________________________________


    FINAL DOCKED STATE:
    ________________________


Run:   16 / 20
Time taken for this run:   0.032s

DOCKED: MODEL        16
DOCKED: USER    Run = 16
DOCKED: USER
DOCKED: USER    Estimated Free Energy of Binding    =  -7.94 kcal/mol  [=(1)+(2)+(3)-(4)]
DOCKED: USER
DOCKED: USER    (1) Final Intermolecular Energy     =  -9.73 kcal/mol
DOCKED: USER        vdW + Hbond + desolv Energy     =  -9.74 kcal/mol
DOCKED: USER        Electrostatic Energy            =  +0.00 kcal/mol
DOCKED: USER        Moving Ligand-Fixed Receptor    =  -9.73 kcal/mol
DOCKED: USER        Moving Ligand-Moving Receptor   =  +0.00 kcal/mol
DOCKED: USER    (2) Final Total Internal Energy     =  -0.98 kcal/mol
DOCKED: USER    (3) Torsional Free Energy           =  +1.79 kcal/mol
DOCKED: USER    (4) Unbound System's Energy         =  -0.98 kcal/mol
DOCKED: USER
DOCKED: USER
DOCKED: REMARK SMILES [H]/N=c1\nc2nc3ccccn3c(O)c-2cc1C(=O)[N-][C@@H](C)c1ccccc1
DOCKED: REMARK SMILES IDX 18 1 19 2 17 3 3 4 4 5 5 6 16 7 6 8 15 9 7 10 13 11 8 12
DOCKED: REMARK SMILES IDX 12 13 9 14 11 15 10 16 2 17 1 18 14 19 20 21 21 22 22 23
DOCKED: REMARK SMILES IDX 23 24 24 25 28 26 25 27 27 28 26 29
DOCKED: REMARK H PARENT 14 20
DOCKED: USER                              x       y       z     vdW  Elec       q    Type
DOCKED: USER                           _______ _______ _______ _____ _____    ______ ____
DOCKED: ROOT
DOCKED: ATOM      1  C   UNL     1     135.654  69.531 224.448 -0.19 -0.01    +0.086 C  
DOCKED: ATOM      2  O   UNL     1     135.071  68.503 224.016 -0.62 -0.00    -0.315 OA 
DOCKED: ENDROOT
DOCKED: BRANCH   1   3
DOCKED: ATOM      3  C   UNL     1     134.869  70.530 225.195 -0.20 -0.00    +0.044 A  
DOCKED: ATOM      4  C   UNL     1     133.929  70.142 226.176 -0.25 -0.01    +0.156 A  
DOCKED: ATOM      5  N   UNL     1     133.203  71.083 226.842 -0.27 +0.02    -0.209 NA 
DOCKED: ATOM      6  C   UNL     1     133.369  72.408 226.612 -0.30 -0.01    +0.169 A  
DOCKED: ATOM      7  C   UNL     1     135.106  71.892 224.958 -0.13 -0.00    +0.031 A  
DOCKED: ATOM      8  N   UNL     1     132.617  73.319 227.259 -0.54 +0.02    -0.210 NA 
DOCKED: ATOM      9  C   UNL     1     134.366  72.862 225.641 -0.24 -0.00    +0.081 A  
DOCKED: ATOM     10  C   UNL     1     132.774  74.651 227.041 -0.31 +0.00    +0.141 A  
DOCKED: ATOM     11  C   UNL     1     134.496  74.239 225.421 -0.24 -0.01    +0.208 A  
DOCKED: ATOM     12  C   UNL     1     131.961  75.534 227.760 -0.34 +0.00    +0.048 A  
DOCKED: ATOM     13  N   UNL     1     133.719  75.128 226.142 -0.21 -0.00    -0.272 N  
DOCKED: ATOM     14  C   UNL     1     132.110  76.905 227.589 -0.34 +0.00    +0.005 A  
DOCKED: ATOM     15  C   UNL     1     133.875  76.487 226.003 -0.27 -0.01    +0.096 A  
DOCKED: ATOM     16  C   UNL     1     133.074  77.385 226.714 -0.29 -0.00    +0.019 A  
DOCKED: BRANCH   4  17
DOCKED: ATOM     17  N   UNL     1     133.742  68.889 226.441 -0.72 -0.02    -0.282 NA 
DOCKED: ATOM     18  H   UNL     1     134.038  68.137 225.779 +0.07 -0.01    +0.189 HD 
DOCKED: ENDBRANCH   4  17
DOCKED: BRANCH  11  19
DOCKED: ATOM     19  O   UNL     1     135.412  74.653 224.443 -0.16 +0.09    -0.494 OA 
DOCKED: ATOM     20  H   UNL     1     136.305  74.223 224.258 -0.34 -0.13    +0.295 HD 
DOCKED: ENDBRANCH  11  19
DOCKED: ENDBRANCH   1   3
DOCKED: BRANCH   1  21
DOCKED: ATOM     21  N   UNL     1     137.066  69.670 224.232 +0.03 +0.07    -0.643 NA 
DOCKED: BRANCH  21  22
DOCKED: ATOM     22  C   UNL     1     138.145  68.850 224.793 -0.29 +0.00    -0.079 C  
DOCKED: ATOM     23  C   UNL     1     138.827  68.036 223.687 -0.26 +0.00    -0.008 C  
DOCKED: BRANCH  22  24
DOCKED: ATOM     24  C   UNL     1     139.080  69.668 225.671 -0.37 +0.01    -0.063 A  
DOCKED: ATOM     25  C   UNL     1     139.214  69.309 227.025 -0.48 -0.00    +0.002 A  
DOCKED: ATOM     26  C   UNL     1     139.811  70.777 225.190 -0.48 -0.00    +0.002 A  
DOCKED: ATOM     27  C   UNL     1     140.047  70.040 227.877 -0.63 -0.00    +0.000 A  
DOCKED: ATOM     28  C   UNL     1     140.644  71.503 226.048 -0.63 -0.00    +0.000 A  
DOCKED: ATOM     29  C   UNL     1     140.762  71.134 227.389 -0.73 -0.00    +0.000 A  
DOCKED: ENDBRANCH  22  24
DOCKED: ENDBRANCH  21  22
DOCKED: ENDBRANCH   1  21
DOCKED: TORSDOF 6
DOCKED: TER
DOCKED: ENDMDL
________________________________________________________________________________


    FINAL DOCKED STATE:
    ________________________


Run:   17 / 20
Time taken for this run:   0.032s

DOCKED: MODEL        17
DOCKED: USER    Run = 17
DOCKED: USER
DOCKED: USER    Estimated Free Energy of Binding    =  -7.92 kcal/mol  [=(1)+(2)+(3)-(4)]
DOCKED: USER
DOCKED: USER    (1) Final Intermolecular Energy     =  -9.71 kcal/mol
DOCKED: USER        vdW + Hbond + desolv Energy     =  -9.71 kcal/mol
DOCKED: USER        Electrostatic Energy            =  -0.01 kcal/mol
DOCKED: USER        Moving Ligand-Fixed Receptor    =  -9.71 kcal/mol
DOCKED: USER        Moving Ligand-Moving Receptor   =  +0.00 kcal/mol
DOCKED: USER    (2) Final Total Internal Energy     =  -0.99 kcal/mol
DOCKED: USER    (3) Torsional Free Energy           =  +1.79 kcal/mol
DOCKED: USER    (4) Unbound System's Energy         =  -0.99 kcal/mol
DOCKED: USER
DOCKED: USER
DOCKED: REMARK SMILES [H]/N=c1\nc2nc3ccccn3c(O)c-2cc1C(=O)[N-][C@@H](C)c1ccccc1
DOCKED: REMARK SMILES IDX 18 1 19 2 17 3 3 4 4 5 5 6 16 7 6 8 15 9 7 10 13 11 8 12
DOCKED: REMARK SMILES IDX 12 13 9 14 11 15 10 16 2 17 1 18 14 19 20 21 21 22 22 23
DOCKED: REMARK SMILES IDX 23 24 24 25 28 26 25 27 27 28 26 29
DOCKED: REMARK H PARENT 14 20
DOCKED: USER                              x       y       z     vdW  Elec       q    Type
DOCKED: USER                           _______ _______ _______ _____ _____    ______ ____
DOCKED: ROOT
DOCKED: ATOM      1  C   UNL     1     135.672  69.511 224.473 -0.20 -0.01    +0.086 C  
DOCKED: ATOM      2  O   UNL     1     135.081  68.490 224.033 -0.61 -0.00    -0.315 OA 
DOCKED: ENDROOT
DOCKED: BRANCH   1   3
DOCKED: ATOM      3  C   UNL     1     134.892  70.516 225.217 -0.20 -0.00    +0.044 A  
DOCKED: ATOM      4  C   UNL     1     133.949  70.136 226.198 -0.25 -0.01    +0.156 A  
DOCKED: ATOM      5  N   UNL     1     133.228  71.082 226.862 -0.28 +0.02    -0.209 NA 
DOCKED: ATOM      6  C   UNL     1     133.401  72.406 226.628 -0.31 -0.01    +0.169 A  
DOCKED: ATOM      7  C   UNL     1     135.137  71.876 224.977 -0.10 -0.00    +0.031 A  
DOCKED: ATOM      8  N   UNL     1     132.655  73.323 227.273 -0.56 +0.02    -0.210 NA 
DOCKED: ATOM      9  C   UNL     1     134.402  72.851 225.657 -0.22 -0.00    +0.081 A  
DOCKED: ATOM     10  C   UNL     1     132.818  74.653 227.051 -0.31 +0.00    +0.141 A  
DOCKED: ATOM     11  C   UNL     1     134.539  74.227 225.433 -0.24 -0.01    +0.208 A  
DOCKED: ATOM     12  C   UNL     1     132.010  75.542 227.767 -0.33 +0.00    +0.048 A  
DOCKED: ATOM     13  N   UNL     1     133.767  75.122 226.152 -0.22 -0.00    -0.272 N  
DOCKED: ATOM     14  C   UNL     1     132.166  76.912 227.593 -0.34 +0.00    +0.005 A  
DOCKED: ATOM     15  C   UNL     1     133.930  76.480 226.010 -0.27 -0.01    +0.096 A  
DOCKED: ATOM     16  C   UNL     1     133.134  77.384 226.717 -0.30 -0.00    +0.019 A  
DOCKED: BRANCH   4  17
DOCKED: ATOM     17  N   UNL     1     133.755  68.884 226.467 -0.72 -0.02    -0.282 NA 
DOCKED: ATOM     18  H   UNL     1     133.988  68.133 225.779 +0.07 -0.01    +0.189 HD 
DOCKED: ENDBRANCH   4  17
DOCKED: BRANCH  11  19
DOCKED: ATOM     19  O   UNL     1     135.458  74.634 224.455 -0.16 +0.10    -0.494 OA 
DOCKED: ATOM     20  H   UNL     1     136.352  74.203 224.277 -0.35 -0.14    +0.295 HD 
DOCKED: ENDBRANCH  11  19
DOCKED: ENDBRANCH   1   3
DOCKED: BRANCH   1  21
DOCKED: ATOM     21  N   UNL     1     137.087  69.635 224.269 +0.03 +0.06    -0.643 NA 
DOCKED: BRANCH  21  22
DOCKED: ATOM     22  C   UNL     1     138.154  68.814 224.851 -0.28 +0.00    -0.079 C  
DOCKED: ATOM     23  C   UNL     1     138.858  68.000 223.758 -0.24 +0.00    -0.008 C  
DOCKED: BRANCH  22  24
DOCKED: ATOM     24  C   UNL     1     139.072  69.632 225.747 -0.38 +0.01    -0.063 A  
DOCKED: ATOM     25  C   UNL     1     139.802  70.689 225.172 -0.47 -0.00    +0.002 A  
DOCKED: ATOM     26  C   UNL     1     139.231  69.371 227.126 -0.48 -0.00    +0.002 A  
DOCKED: ATOM     27  C   UNL     1     140.672  71.459 225.949 -0.63 -0.00    +0.000 A  
DOCKED: ATOM     28  C   UNL     1     140.102  70.148 227.898 -0.64 -0.00    +0.000 A  
DOCKED: ATOM     29  C   UNL     1     140.821  71.190 227.310 -0.73 -0.00    +0.000 A  
DOCKED: ENDBRANCH  22  24
DOCKED: ENDBRANCH  21  22
DOCKED: ENDBRANCH   1  21
DOCKED: TORSDOF 6
DOCKED: TER
DOCKED: ENDMDL
________________________________________________________________________________


    FINAL DOCKED STATE:
    ________________________


Run:   18 / 20
Time taken for this run:   0.032s

DOCKED: MODEL        18
DOCKED: USER    Run = 18
DOCKED: USER
DOCKED: USER    Estimated Free Energy of Binding    =  -6.39 kcal/mol  [=(1)+(2)+(3)-(4)]
DOCKED: USER
DOCKED: USER    (1) Final Intermolecular Energy     =  -8.18 kcal/mol
DOCKED: USER        vdW + Hbond + desolv Energy     =  -8.26 kcal/mol
DOCKED: USER        Electrostatic Energy            =  +0.08 kcal/mol
DOCKED: USER        Moving Ligand-Fixed Receptor    =  -8.18 kcal/mol
DOCKED: USER        Moving Ligand-Moving Receptor   =  +0.00 kcal/mol
DOCKED: USER    (2) Final Total Internal Energy     =  -1.58 kcal/mol
DOCKED: USER    (3) Torsional Free Energy           =  +1.79 kcal/mol
DOCKED: USER    (4) Unbound System's Energy         =  -1.58 kcal/mol
DOCKED: USER
DOCKED: USER
DOCKED: REMARK SMILES [H]/N=c1\nc2nc3ccccn3c(O)c-2cc1C(=O)[N-][C@@H](C)c1ccccc1
DOCKED: REMARK SMILES IDX 18 1 19 2 17 3 3 4 4 5 5 6 16 7 6 8 15 9 7 10 13 11 8 12
DOCKED: REMARK SMILES IDX 12 13 9 14 11 15 10 16 2 17 1 18 14 19 20 21 21 22 22 23
DOCKED: REMARK SMILES IDX 23 24 24 25 28 26 25 27 27 28 26 29
DOCKED: REMARK H PARENT 14 20
DOCKED: USER                              x       y       z     vdW  Elec       q    Type
DOCKED: USER                           _______ _______ _______ _____ _____    ______ ____
DOCKED: ROOT
DOCKED: ATOM      1  C   UNL     1     137.451  78.814 222.342 -0.17 -0.01    +0.086 C  
DOCKED: ATOM      2  O   UNL     1     136.233  78.648 222.613 -0.08 +0.05    -0.315 OA 
DOCKED: ENDROOT
DOCKED: BRANCH   1   3
DOCKED: ATOM      3  C   UNL     1     138.300  77.628 222.132 -0.22 -0.01    +0.044 A  
DOCKED: ATOM      4  C   UNL     1     137.900  76.350 222.582 -0.24 -0.03    +0.156 A  
DOCKED: ATOM      5  N   UNL     1     138.708  75.270 222.391 -0.25 +0.06    -0.209 NA 
DOCKED: ATOM      6  C   UNL     1     139.898  75.373 221.750 -0.25 -0.03    +0.169 A  
DOCKED: ATOM      7  C   UNL     1     139.501  77.772 221.422 -0.20 -0.01    +0.031 A  
DOCKED: ATOM      8  N   UNL     1     140.695  74.298 221.600 -0.54 +0.02    -0.210 NA 
DOCKED: ATOM      9  C   UNL     1     140.333  76.667 221.221 -0.24 -0.03    +0.081 A  
DOCKED: ATOM     10  C   UNL     1     141.889  74.386 220.958 -0.22 -0.03    +0.141 A  
DOCKED: ATOM     11  C   UNL     1     141.575  76.734 220.578 -0.19 -0.11    +0.208 A  
DOCKED: ATOM     12  C   UNL     1     142.656  73.221 220.836 -0.26 -0.01    +0.048 A  
DOCKED: ATOM     13  N   UNL     1     142.334  75.588 220.425 -0.16 +0.14    -0.272 N  
DOCKED: ATOM     14  C   UNL     1     143.868  73.260 220.160 -0.36 -0.00    +0.005 A  
DOCKED: ATOM     15  C   UNL     1     143.524  75.607 219.734 -0.36 -0.06    +0.096 A  
DOCKED: ATOM     16  C   UNL     1     144.302  74.454 219.600 -0.34 -0.01    +0.019 A  
DOCKED: BRANCH   4  17
DOCKED: ATOM     17  N   UNL     1     136.767  76.196 223.190 -0.16 +0.06    -0.282 NA 
DOCKED: ATOM     18  H   UNL     1     136.046  76.953 223.206 +0.05 -0.03    +0.189 HD 
DOCKED: ENDBRANCH   4  17
DOCKED: BRANCH  11  19
DOCKED: ATOM     19  O   UNL     1     142.005  77.993 220.132 -0.10 +0.32    -0.494 OA 
DOCKED: ATOM     20  H   UNL     1     142.924  78.383 220.277 -0.27 -0.33    +0.295 HD 
DOCKED: ENDBRANCH  11  19
DOCKED: ENDBRANCH   1   3
DOCKED: BRANCH   1  21
DOCKED: ATOM     21  N   UNL     1     137.955  80.152 222.208 +0.04 +0.10    -0.643 NA 
DOCKED: BRANCH  21  22
DOCKED: ATOM     22  C   UNL     1     138.756  80.911 223.175 -0.29 +0.01    -0.079 C  
DOCKED: ATOM     23  C   UNL     1     138.090  80.885 224.556 -0.40 +0.00    -0.008 C  
DOCKED: BRANCH  22  24
DOCKED: ATOM     24  C   UNL     1     140.218  80.493 223.149 -0.38 +0.01    -0.063 A  
DOCKED: ATOM     25  C   UNL     1     141.115  81.241 222.364 -0.43 -0.00    +0.002 A  
DOCKED: ATOM     26  C   UNL     1     140.713  79.383 223.870 -0.51 -0.00    +0.002 A  
DOCKED: ATOM     27  C   UNL     1     142.466  80.887 222.293 -0.51 -0.00    +0.000 A  
DOCKED: ATOM     28  C   UNL     1     142.066  79.037 223.796 -0.58 -0.00    +0.000 A  
DOCKED: ATOM     29  C   UNL     1     142.941  79.788 223.008 -0.63 -0.00    +0.000 A  
DOCKED: ENDBRANCH  22  24
DOCKED: ENDBRANCH  21  22
DOCKED: ENDBRANCH   1  21
DOCKED: TORSDOF 6
DOCKED: TER
DOCKED: ENDMDL
________________________________________________________________________________


    FINAL DOCKED STATE:
    ________________________


Run:   19 / 20
Time taken for this run:   0.032s

DOCKED: MODEL        19
DOCKED: USER    Run = 19
DOCKED: USER
DOCKED: USER    Estimated Free Energy of Binding    =  -7.04 kcal/mol  [=(1)+(2)+(3)-(4)]
DOCKED: USER
DOCKED: USER    (1) Final Intermolecular Energy     =  -8.83 kcal/mol
DOCKED: USER        vdW + Hbond + desolv Energy     =  -8.01 kcal/mol
DOCKED: USER        Electrostatic Energy            =  -0.82 kcal/mol
DOCKED: USER        Moving Ligand-Fixed Receptor    =  -8.83 kcal/mol
DOCKED: USER        Moving Ligand-Moving Receptor   =  +0.00 kcal/mol
DOCKED: USER    (2) Final Total Internal Energy     =  -1.01 kcal/mol
DOCKED: USER    (3) Torsional Free Energy           =  +1.79 kcal/mol
DOCKED: USER    (4) Unbound System's Energy         =  -1.01 kcal/mol
DOCKED: USER
DOCKED: USER
DOCKED: REMARK SMILES [H]/N=c1\nc2nc3ccccn3c(O)c-2cc1C(=O)[N-][C@@H](C)c1ccccc1
DOCKED: REMARK SMILES IDX 18 1 19 2 17 3 3 4 4 5 5 6 16 7 6 8 15 9 7 10 13 11 8 12
DOCKED: REMARK SMILES IDX 12 13 9 14 11 15 10 16 2 17 1 18 14 19 20 21 21 22 22 23
DOCKED: REMARK SMILES IDX 23 24 24 25 28 26 25 27 27 28 26 29
DOCKED: REMARK H PARENT 14 20
DOCKED: USER                              x       y       z     vdW  Elec       q    Type
DOCKED: USER                           _______ _______ _______ _____ _____    ______ ____
DOCKED: ROOT
DOCKED: ATOM      1  C   UNL     1     145.487  72.513 219.195 -0.29 +0.04    +0.086 C  
DOCKED: ATOM      2  O   UNL     1     146.282  73.398 218.785 -0.71 -0.22    -0.315 OA 
DOCKED: ENDROOT
DOCKED: BRANCH   1   3
DOCKED: ATOM      3  C   UNL     1     144.247  72.932 219.872 -0.32 -0.00    +0.044 A  
DOCKED: ATOM      4  C   UNL     1     143.448  72.007 220.582 -0.22 -0.02    +0.156 A  
DOCKED: ATOM      5  N   UNL     1     142.298  72.414 221.187 -0.15 +0.02    -0.209 NA 
DOCKED: ATOM      6  C   UNL     1     141.892  73.707 221.153 -0.16 -0.03    +0.169 A  
DOCKED: ATOM      7  C   UNL     1     143.890  74.288 219.853 -0.37 -0.01    +0.031 A  
DOCKED: ATOM      8  N   UNL     1     140.735  74.081 221.731 -0.60 +0.02    -0.210 NA 
DOCKED: ATOM      9  C   UNL     1     142.711  74.712 220.474 -0.29 -0.03    +0.081 A  
DOCKED: ATOM     10  C   UNL     1     140.317  75.373 221.708 -0.28 -0.03    +0.141 A  
DOCKED: ATOM     11  C   UNL     1     142.250  76.034 220.449 -0.13 -0.12    +0.208 A  
DOCKED: ATOM     12  C   UNL     1     139.107  75.683 222.339 -0.31 -0.01    +0.048 A  
DOCKED: ATOM     13  N   UNL     1     141.069  76.363 221.091 -0.17 +0.11    -0.272 N  
DOCKED: ATOM     14  C   UNL     1     138.658  76.997 222.366 -0.30 -0.00    +0.005 A  
DOCKED: ATOM     15  C   UNL     1     140.627  77.665 221.148 -0.23 -0.04    +0.096 A  
DOCKED: ATOM     16  C   UNL     1     139.423  77.994 221.775 -0.24 -0.00    +0.019 A  
DOCKED: BRANCH   4  17
DOCKED: ATOM     17  N   UNL     1     143.798  70.762 220.653 +0.02 +0.03    -0.282 NA 
DOCKED: ATOM     18  H   UNL     1     144.768  70.451 220.421 -0.08 +0.01    +0.189 HD 
DOCKED: ENDBRANCH   4  17
DOCKED: BRANCH  11  19
DOCKED: ATOM     19  O   UNL     1     143.015  76.973 219.741 -0.16 +0.38    -0.494 OA 
DOCKED: ATOM     20  H   UNL     1     143.788  77.500 220.116 -0.43 -0.37    +0.295 HD 
DOCKED: ENDBRANCH  11  19
DOCKED: ENDBRANCH   1   3
DOCKED: BRANCH   1  21
DOCKED: ATOM     21  N   UNL     1     145.799  71.133 218.952 -0.13 -0.52    -0.643 NA 
DOCKED: BRANCH  21  22
DOCKED: ATOM     22  C   UNL     1     145.272  70.266 217.892 -0.18 -0.03    -0.079 C  
DOCKED: ATOM     23  C   UNL     1     146.059  70.474 216.593 -0.12 -0.00    -0.008 C  
DOCKED: BRANCH  22  24
DOCKED: ATOM     24  C   UNL     1     145.145  68.822 218.354 -0.25 -0.00    -0.063 A  
DOCKED: ATOM     25  C   UNL     1     143.855  68.286 218.531 -0.21 -0.00    +0.002 A  
DOCKED: ATOM     26  C   UNL     1     146.262  68.000 218.621 -0.40 +0.00    +0.002 A  
DOCKED: ATOM     27  C   UNL     1     143.685  66.970 218.970 -0.31 -0.00    +0.000 A  
DOCKED: ATOM     28  C   UNL     1     146.083  66.683 219.058 -0.56 -0.00    +0.000 A  
DOCKED: ATOM     29  C   UNL     1     144.797  66.170 219.232 -0.44 -0.00    +0.000 A  
DOCKED: ENDBRANCH  22  24
DOCKED: ENDBRANCH  21  22
DOCKED: ENDBRANCH   1  21
DOCKED: TORSDOF 6
DOCKED: TER
DOCKED: ENDMDL
________________________________________________________________________________


    FINAL DOCKED STATE:
    ________________________


Run:   20 / 20
Time taken for this run:   0.032s

DOCKED: MODEL        20
DOCKED: USER    Run = 20
DOCKED: USER
DOCKED: USER    Estimated Free Energy of Binding    =  -7.81 kcal/mol  [=(1)+(2)+(3)-(4)]
DOCKED: USER
DOCKED: USER    (1) Final Intermolecular Energy     =  -9.60 kcal/mol
DOCKED: USER        vdW + Hbond + desolv Energy     =  -9.60 kcal/mol
DOCKED: USER        Electrostatic Energy            =  +0.00 kcal/mol
DOCKED: USER        Moving Ligand-Fixed Receptor    =  -9.60 kcal/mol
DOCKED: USER        Moving Ligand-Moving Receptor   =  +0.00 kcal/mol
DOCKED: USER    (2) Final Total Internal Energy     =  -0.94 kcal/mol
DOCKED: USER    (3) Torsional Free Energy           =  +1.79 kcal/mol
DOCKED: USER    (4) Unbound System's Energy         =  -0.94 kcal/mol
DOCKED: USER
DOCKED: USER
DOCKED: REMARK SMILES [H]/N=c1\nc2nc3ccccn3c(O)c-2cc1C(=O)[N-][C@@H](C)c1ccccc1
DOCKED: REMARK SMILES IDX 18 1 19 2 17 3 3 4 4 5 5 6 16 7 6 8 15 9 7 10 13 11 8 12
DOCKED: REMARK SMILES IDX 12 13 9 14 11 15 10 16 2 17 1 18 14 19 20 21 21 22 22 23
DOCKED: REMARK SMILES IDX 23 24 24 25 28 26 25 27 27 28 26 29
DOCKED: REMARK H PARENT 14 20
DOCKED: USER                              x       y       z     vdW  Elec       q    Type
DOCKED: USER                           _______ _______ _______ _____ _____    ______ ____
DOCKED: ROOT
DOCKED: ATOM      1  C   UNL     1     135.724  69.366 224.362 -0.19 -0.00    +0.086 C  
DOCKED: ATOM      2  O   UNL     1     135.171  68.401 223.774 -0.56 -0.00    -0.315 OA 
DOCKED: ENDROOT
DOCKED: BRANCH   1   3
DOCKED: ATOM      3  C   UNL     1     134.890  70.288 225.153 -0.22 -0.00    +0.044 A  
DOCKED: ATOM      4  C   UNL     1     133.955  69.805 226.097 -0.25 -0.01    +0.156 A  
DOCKED: ATOM      5  N   UNL     1     133.183  70.675 226.806 -0.32 +0.01    -0.209 NA 
DOCKED: ATOM      6  C   UNL     1     133.295  72.017 226.653 -0.31 -0.01    +0.169 A  
DOCKED: ATOM      7  C   UNL     1     135.072  71.670 224.997 -0.14 -0.00    +0.031 A  
DOCKED: ATOM      8  N   UNL     1     132.498  72.857 227.341 -0.36 +0.03    -0.210 NA 
DOCKED: ATOM      9  C   UNL     1     134.283  72.567 225.724 -0.25 -0.00    +0.081 A  
DOCKED: ATOM     10  C   UNL     1     132.600  74.205 227.200 -0.32 -0.00    +0.141 A  
DOCKED: ATOM     11  C   UNL     1     134.357  73.958 225.584 -0.23 -0.00    +0.208 A  
DOCKED: ATOM     12  C   UNL     1     131.743  75.011 227.957 -0.34 -0.00    +0.048 A  
DOCKED: ATOM     13  N   UNL     1     133.535  74.771 226.344 -0.21 -0.01    -0.272 N  
DOCKED: ATOM     14  C   UNL     1     131.835  76.394 227.866 -0.34 +0.00    +0.005 A  
DOCKED: ATOM     15  C   UNL     1     133.634  76.142 226.284 -0.32 -0.00    +0.096 A  
DOCKED: ATOM     16  C   UNL     1     132.788  76.963 227.033 -0.33 -0.00    +0.019 A  
DOCKED: BRANCH   4  17
DOCKED: ATOM     17  N   UNL     1     133.818  68.532 226.288 -0.71 -0.00    -0.282 NA 
DOCKED: ATOM     18  H   UNL     1     134.101  67.835 225.563 +0.06 -0.02    +0.189 HD 
DOCKED: ENDBRANCH   4  17
DOCKED: BRANCH  11  19
DOCKED: ATOM     19  O   UNL     1     135.266  74.466 224.644 -0.16 +0.08    -0.494 OA 
DOCKED: ATOM     20  H   UNL     1     136.239  74.209 224.573 -0.36 -0.12    +0.295 HD 
DOCKED: ENDBRANCH  11  19
DOCKED: ENDBRANCH   1   3
DOCKED: BRANCH   1  21
DOCKED: ATOM     21  N   UNL     1     137.150  69.509 224.272 +0.03 +0.06    -0.643 NA 
DOCKED: BRANCH  21  22
DOCKED: ATOM     22  C   UNL     1     138.176  68.541 224.675 -0.18 +0.00    -0.079 C  
DOCKED: ATOM     23  C   UNL     1     138.833  67.913 223.440 -0.26 +0.00    -0.008 C  
DOCKED: BRANCH  22  24
DOCKED: ATOM     24  C   UNL     1     139.138  69.129 225.696 -0.41 +0.01    -0.063 A  
DOCKED: ATOM     25  C   UNL     1     139.580  68.309 226.751 -0.61 -0.00    +0.002 A  
DOCKED: ATOM     26  C   UNL     1     139.599  70.463 225.638 -0.45 -0.00    +0.002 A  
DOCKED: ATOM     27  C   UNL     1     140.451  68.808 227.724 -0.65 -0.00    +0.000 A  
DOCKED: ATOM     28  C   UNL     1     140.472  70.955 226.614 -0.63 -0.00    +0.000 A  
DOCKED: ATOM     29  C   UNL     1     140.897  70.128 227.656 -0.61 -0.00    +0.000 A  
DOCKED: ENDBRANCH  22  24
DOCKED: ENDBRANCH  21  22
DOCKED: ENDBRANCH   1  21
DOCKED: TORSDOF 6
DOCKED: TER
DOCKED: ENDMDL
________________________________________________________________________________


    CLUSTERING HISTOGRAM
    ____________________


________________________________________________________________________________
     |           |     |           |     |
Clus | Lowest    | Run | Mean      | Num | Histogram
-ter | Binding   |     | Binding   | in  |
Rank | Energy    |     | Energy    | Clus|    5    10   15   20   25   30   35
_____|___________|_____|___________|_____|____:____|____:____|____:____|____:___
   1 |     -7.96 |   8 |     -7.91 |  11 |###########
   2 |     -7.04 |  19 |     -7.04 |   1 |#
   3 |     -6.96 |   2 |     -6.96 |   1 |#
   4 |     -6.39 |  18 |     -6.35 |   7 |#######
_____|___________|_____|___________|_____|______________________________________


    RMSD TABLE
    __________


_______________________________________________________________________
     |      |      |           |         |                 |
Rank | Sub- | Run  | Binding   | Cluster | Reference       | Grep
     | Rank |      | Energy    | RMSD    | RMSD            | Pattern
_____|______|______|___________|_________|_________________|___________
   1      1      8       -7.96      0.00    271.17           RANKING
   1      2      3       -7.95      0.03    271.17           RANKING
   1      3      1       -7.95      0.03    271.16           RANKING
   1      4      9       -7.95      0.19    271.07           RANKING
   1      5     16       -7.94      0.03    271.16           RANKING
   1      6      6       -7.93      0.19    271.07           RANKING
   1      7      7       -7.93      0.16    271.07           RANKING
   1      8     17       -7.92      0.06    271.19           RANKING
   1      9     12       -7.84      0.62    271.10           RANKING
   1     10     10       -7.83      0.64    271.08           RANKING
   1     11     20       -7.81      0.55    271.10           RANKING
   2      1     19       -7.04      0.00    270.44           RANKING
   3      1      2       -6.96      0.00    270.94           RANKING
   4      1     18       -6.39      0.00    271.79           RANKING
   4      2     15       -6.38      0.04    271.81           RANKING
   4      3     14       -6.37      0.05    271.78           RANKING
   4      4      4       -6.35      0.07    271.79           RANKING
   4      5     13       -6.34      0.99    271.79           RANKING
   4      6     11       -6.34      0.11    271.78           RANKING
   4      7      5       -6.26      1.93    271.80           RANKING

Run time 0.619 sec
Idle time 0.000 sec
