AutoDock-GPU version: v1.6

**********************************************************
**    AutoDock-GPU AUTODOCKTOOLS-COMPATIBLE DLG FILE    **
**********************************************************


    DOCKING PARAMETERS
    ________________________


Ligand file:                               /home/a/REINVENT4/ReinventStudies/scoringData/graph-dock-h4r84i/graph-DockGPU/node-autodockgpu/inputs/JBHRSOAXAGIKHA-MUXIEFDRNA-N.pdbqt
Grid fld file:                             /home/a/REINVENT4/ReinventStudies/mols/Rad51/maps/rad51_receptor.maps.fld

Random seed:                               42
Number of runs:                            20
Number of energy evaluations:              3119281
Number of generations:                     42000
Size of population:                        150
Rate of crossover:                         80.000000%
Tournament selection probability limit:    60.000000%
Rate of mutation:                          2.000000%
Maximal allowed delta movement:            +/- 6.000000A
Maximal allowed delta angle:               +/- 90.000000

Rate of local search:                      100.000000%
Maximal number of local search iterations: 300
Rho lower bound:                           0.010000
Spread of local search delta movement:     2.000000A
Spread of local search delta angle:        74.999999
Limit of consecutive successes/failures:   4

Handle symmetry during clustering:         YES
RMSD tolerance:                            2.000000A

Program call in command line was:          /home/a/REINVENT4/ReinventStudies/adgpu-v1.6_linux_x64_cuda12_128wi --filelist batch.txt --heuristics 1 --nrun 20 --psize 150 --lsit 300 --seed 42 --heurmax 12000000 


    GRID PARAMETERS
    ________________________


Receptor name:                             rad51_receptor
Number of grid points (x, y, z):           53, 53, 53
Grid center (x, y, z):                     139.950000, 75.640000, 221.970000A
Grid size (x, y, z):                       19.500000, 19.500000, 19.500000A
Grid spacing:                              0.375000A


    LIGAND PARAMETERS
    ________________________


Ligand name:                               /home/a/REINVENT4/ReinventStudies/scoringData/graph-dock-h4r84i/graph-DockGPU/node-autodockgpu/inputs/JBHRSOAXAGIKHA-MUXIEFDRNA-N
Number of atoms:                           28
Number of rotatable bonds:                 11
Number of atom types:                      7


    DUMMY DATA (only for ADT-compatibility)
    ________________________


DPF> outlev 1
DPF> ga_run 20
DPF> fld /home/a/REINVENT4/ReinventStudies/mols/Rad51/maps/rad51_receptor.maps.fld
DPF> move /home/a/REINVENT4/ReinventStudies/scoringData/graph-dock-h4r84i/graph-DockGPU/node-autodockgpu/inputs/JBHRSOAXAGIKHA-MUXIEFDRNA-N.pdbqt


    COUNTER STATES
    ________________________


Number of energy evaluations performed:    1154569
Number of generations used:                60


    INPUT LIGAND PDBQT FILE:
    ________________________


INPUT-LIGAND-PDBQT: REMARK SMILES O/C(=C\CCOc1ccc(Cl)cc1Cl)[N-]/N=C\c1cccc(C(F)(F)F)c1
INPUT-LIGAND-PDBQT: REMARK SMILES IDX 2 1 1 2 15 4 16 5 17 6 18 7 19 8 27 9 20 10 22 11 21 12
INPUT-LIGAND-PDBQT: REMARK SMILES IDX 23 13 24 14 25 15 26 16 3 17 4 18 5 19 6 20 7 21 8 22 13 23
INPUT-LIGAND-PDBQT: REMARK SMILES IDX 9 24 12 25 10 26 14 27 11 28
INPUT-LIGAND-PDBQT: REMARK H PARENT 1 3
INPUT-LIGAND-PDBQT: ROOT
INPUT-LIGAND-PDBQT: ATOM      1  C   UNL     1      -0.794  -1.828  -0.822  1.00  0.00     0.023 C 
INPUT-LIGAND-PDBQT: ENDROOT
INPUT-LIGAND-PDBQT: BRANCH   1   2
INPUT-LIGAND-PDBQT: ATOM      2  O   UNL     1      -1.653  -2.917  -0.945  1.00  0.00    -0.530 OA
INPUT-LIGAND-PDBQT: ATOM      3  H   UNL     1      -2.658  -2.787  -0.935  1.00  0.00     0.290 HD
INPUT-LIGAND-PDBQT: ENDBRANCH   1   2
INPUT-LIGAND-PDBQT: BRANCH   1   4
INPUT-LIGAND-PDBQT: ATOM      4  N   UNL     1      -1.356  -0.520  -0.653  1.00  0.00    -0.546 NA
INPUT-LIGAND-PDBQT: BRANCH   4   5
INPUT-LIGAND-PDBQT: ATOM      5  N   UNL     1      -0.564   0.619  -0.442  1.00  0.00    -0.372 NA
INPUT-LIGAND-PDBQT: BRANCH   5   6
INPUT-LIGAND-PDBQT: ATOM      6  C   UNL     1      -1.056   1.806  -0.244  1.00  0.00     0.094 C 
INPUT-LIGAND-PDBQT: BRANCH   6   7
INPUT-LIGAND-PDBQT: ATOM      7  C   UNL     1      -2.506   2.105  -0.181  1.00  0.00    -0.009 A 
INPUT-LIGAND-PDBQT: ATOM      8  C   UNL     1      -2.966   3.321  -0.707  1.00  0.00     0.009 A 
INPUT-LIGAND-PDBQT: ATOM      9  C   UNL     1      -3.419   1.250   0.467  1.00  0.00     0.022 A 
INPUT-LIGAND-PDBQT: ATOM     10  C   UNL     1      -4.316   3.665  -0.620  1.00  0.00     0.001 A 
INPUT-LIGAND-PDBQT: ATOM     11  C   UNL     1      -4.786   1.575   0.530  1.00  0.00     0.056 A 
INPUT-LIGAND-PDBQT: ATOM     12  C   UNL     1      -5.222   2.802  -0.001  1.00  0.00     0.013 A 
INPUT-LIGAND-PDBQT: BRANCH  11  13
INPUT-LIGAND-PDBQT: ATOM     13  C   UNL     1      -5.744   0.660   1.252  1.00  0.00     0.416 C 
INPUT-LIGAND-PDBQT: ATOM     14  F   UNL     1      -5.647   0.882   2.613  1.00  0.00    -0.166 F 
INPUT-LIGAND-PDBQT: ATOM     15  F   UNL     1      -7.049   0.887   0.851  1.00  0.00    -0.166 F 
INPUT-LIGAND-PDBQT: ATOM     16  F   UNL     1      -5.434  -0.663   0.986  1.00  0.00    -0.166 F 
INPUT-LIGAND-PDBQT: ENDBRANCH  11  13
INPUT-LIGAND-PDBQT: ENDBRANCH   6   7
INPUT-LIGAND-PDBQT: ENDBRANCH   5   6
INPUT-LIGAND-PDBQT: ENDBRANCH   4   5
INPUT-LIGAND-PDBQT: ENDBRANCH   1   4
INPUT-LIGAND-PDBQT: BRANCH   1  17
INPUT-LIGAND-PDBQT: ATOM     17  C   UNL     1       0.534  -2.015  -0.859  1.00  0.00    -0.001 C 
INPUT-LIGAND-PDBQT: BRANCH  17  18
INPUT-LIGAND-PDBQT: ATOM     18  C   UNL     1       1.133  -3.387  -0.999  1.00  0.00     0.071 C 
INPUT-LIGAND-PDBQT: BRANCH  18  19
INPUT-LIGAND-PDBQT: ATOM     19  C   UNL     1       2.651  -3.361  -1.211  1.00  0.00     0.234 C 
INPUT-LIGAND-PDBQT: BRANCH  19  20
INPUT-LIGAND-PDBQT: ATOM     20  O   UNL     1       3.329  -2.872  -0.049  1.00  0.00    -0.492 OA
INPUT-LIGAND-PDBQT: BRANCH  20  21
INPUT-LIGAND-PDBQT: ATOM     21  C   UNL     1       3.821  -1.568   0.157  1.00  0.00     0.137 A 
INPUT-LIGAND-PDBQT: ATOM     22  C   UNL     1       3.810  -0.572  -0.844  1.00  0.00     0.049 A 
INPUT-LIGAND-PDBQT: ATOM     23  C   UNL     1       4.358  -1.253   1.418  1.00  0.00     0.084 A 
INPUT-LIGAND-PDBQT: ATOM     24  C   UNL     1       4.314   0.705  -0.578  1.00  0.00     0.024 A 
INPUT-LIGAND-PDBQT: ATOM     25  C   UNL     1       4.861   0.026   1.677  1.00  0.00     0.045 A 
INPUT-LIGAND-PDBQT: ATOM     26  C   UNL     1       4.839   1.006   0.681  1.00  0.00     0.042 A 
INPUT-LIGAND-PDBQT: ATOM     27  Cl  UNL     1       4.398  -2.462   2.694  1.00  0.00    -0.080 Cl
INPUT-LIGAND-PDBQT: ATOM     28  Cl  UNL     1       5.469   2.610   1.010  1.00  0.00    -0.084 Cl
INPUT-LIGAND-PDBQT: ENDBRANCH  20  21
INPUT-LIGAND-PDBQT: ENDBRANCH  19  20
INPUT-LIGAND-PDBQT: ENDBRANCH  18  19
INPUT-LIGAND-PDBQT: ENDBRANCH  17  18
INPUT-LIGAND-PDBQT: ENDBRANCH   1  17
INPUT-LIGAND-PDBQT: TORSDOF 11


    FINAL DOCKED STATE:
    ________________________


Run:   1 / 20
Time taken for this run:   0.051s

DOCKED: MODEL        1
DOCKED: USER    Run = 1
DOCKED: USER
DOCKED: USER    Estimated Free Energy of Binding    =  -6.13 kcal/mol  [=(1)+(2)+(3)-(4)]
DOCKED: USER
DOCKED: USER    (1) Final Intermolecular Energy     =  -9.42 kcal/mol
DOCKED: USER        vdW + Hbond + desolv Energy     =  -9.59 kcal/mol
DOCKED: USER        Electrostatic Energy            =  +0.17 kcal/mol
DOCKED: USER        Moving Ligand-Fixed Receptor    =  -9.42 kcal/mol
DOCKED: USER        Moving Ligand-Moving Receptor   =  +0.00 kcal/mol
DOCKED: USER    (2) Final Total Internal Energy     =  -1.33 kcal/mol
DOCKED: USER    (3) Torsional Free Energy           =  +3.28 kcal/mol
DOCKED: USER    (4) Unbound System's Energy         =  -1.33 kcal/mol
DOCKED: USER
DOCKED: USER
DOCKED: REMARK SMILES O/C(=C\CCOc1ccc(Cl)cc1Cl)[N-]/N=C\c1cccc(C(F)(F)F)c1
DOCKED: REMARK SMILES IDX 2 1 1 2 15 4 16 5 17 6 18 7 19 8 27 9 20 10 22 11 21 12
DOCKED: REMARK SMILES IDX 23 13 24 14 25 15 26 16 3 17 4 18 5 19 6 20 7 21 8 22 13 23
DOCKED: REMARK SMILES IDX 9 24 12 25 10 26 14 27 11 28
DOCKED: REMARK H PARENT 1 3
DOCKED: USER                              x       y       z     vdW  Elec       q    Type
DOCKED: USER                           _______ _______ _______ _____ _____    ______ ____
DOCKED: ROOT
DOCKED: ATOM      1  C   UNL     1     140.615  73.452 221.577 -0.29 -0.00    +0.023 C  
DOCKED: ENDROOT
DOCKED: BRANCH   1   2
DOCKED: ATOM      2  O   UNL     1     139.650  74.055 222.380 -0.68 +0.06    -0.530 OA 
DOCKED: ATOM      3  H   UNL     1     139.113  73.507 223.042 -0.44 -0.13    +0.290 HD 
DOCKED: ENDBRANCH   1   2
DOCKED: BRANCH   1   4
DOCKED: ATOM      4  N   UNL     1     141.223  74.222 220.532 -0.02 +0.12    -0.546 NA 
DOCKED: BRANCH   4   5
DOCKED: ATOM      5  N   UNL     1     141.940  75.402 220.783 -0.12 +0.16    -0.372 NA 
DOCKED: BRANCH   5   6
DOCKED: ATOM      6  C   UNL     1     141.479  76.589 220.520 -0.25 -0.04    +0.094 C  
DOCKED: BRANCH   6   7
DOCKED: ATOM      7  C   UNL     1     141.054  77.563 221.553 -0.36 +0.00    -0.009 A  
DOCKED: ATOM      8  C   UNL     1     139.798  77.401 222.155 -0.34 -0.00    +0.009 A  
DOCKED: ATOM      9  C   UNL     1     141.831  78.691 221.882 -0.42 -0.01    +0.022 A  
DOCKED: ATOM     10  C   UNL     1     139.338  78.326 223.094 -0.30 -0.00    +0.001 A  
DOCKED: ATOM     11  C   UNL     1     141.388  79.610 222.850 -0.48 -0.02    +0.056 A  
DOCKED: ATOM     12  C   UNL     1     140.123  79.428 223.437 -0.45 -0.00    +0.013 A  
DOCKED: BRANCH  11  13
DOCKED: ATOM     13  C   UNL     1     142.221  80.827 223.169 -0.30 -0.09    +0.416 C  
DOCKED: ATOM     14  F   UNL     1     143.540  80.445 223.331 -0.25 +0.04    -0.166 F  
DOCKED: ATOM     15  F   UNL     1     142.146  81.764 222.153 -0.14 +0.03    -0.166 F  
DOCKED: ATOM     16  F   UNL     1     141.775  81.419 224.338 -0.18 +0.01    -0.166 F  
DOCKED: ENDBRANCH  11  13
DOCKED: ENDBRANCH   6   7
DOCKED: ENDBRANCH   5   6
DOCKED: ENDBRANCH   4   5
DOCKED: ENDBRANCH   1   4
DOCKED: BRANCH   1  17
DOCKED: ATOM     17  C   UNL     1     140.963  72.175 221.793 -0.27 +0.00    -0.001 C  
DOCKED: BRANCH  17  18
DOCKED: ATOM     18  C   UNL     1     140.076  71.035 221.373 -0.15 -0.01    +0.071 C  
DOCKED: BRANCH  18  19
DOCKED: ATOM     19  C   UNL     1     138.860  70.852 222.288 -0.13 -0.04    +0.234 C  
DOCKED: BRANCH  19  20
DOCKED: ATOM     20  O   UNL     1     139.093  71.421 223.581 -0.12 +0.12    -0.492 OA 
DOCKED: BRANCH  20  21
DOCKED: ATOM     21  C   UNL     1     139.572  70.753 224.725 -0.35 -0.03    +0.137 A  
DOCKED: ATOM     22  C   UNL     1     140.800  71.071 225.346 -0.53 -0.01    +0.049 A  
DOCKED: ATOM     23  C   UNL     1     138.793  69.713 225.262 -0.33 -0.01    +0.084 A  
DOCKED: ATOM     24  C   UNL     1     141.222  70.371 226.480 -0.54 -0.00    +0.024 A  
DOCKED: ATOM     25  C   UNL     1     139.222  69.016 226.396 -0.47 -0.01    +0.045 A  
DOCKED: ATOM     26  C   UNL     1     140.435  69.344 227.007 -0.55 -0.01    +0.042 A  
DOCKED: ATOM     27  Cl  UNL     1     137.260  69.277 224.519 -0.34 +0.01    -0.080 Cl 
DOCKED: ATOM     28  Cl  UNL     1     140.969  68.469 228.430 -0.77 +0.02    -0.084 Cl 
DOCKED: ENDBRANCH  20  21
DOCKED: ENDBRANCH  19  20
DOCKED: ENDBRANCH  18  19
DOCKED: ENDBRANCH  17  18
DOCKED: ENDBRANCH   1  17
DOCKED: TORSDOF 11
DOCKED: TER
DOCKED: ENDMDL
________________________________________________________________________________


    FINAL DOCKED STATE:
    ________________________


Run:   2 / 20
Time taken for this run:   0.051s

DOCKED: MODEL        2
DOCKED: USER    Run = 2
DOCKED: USER
DOCKED: USER    Estimated Free Energy of Binding    =  -6.73 kcal/mol  [=(1)+(2)+(3)-(4)]
DOCKED: USER
DOCKED: USER    (1) Final Intermolecular Energy     = -10.01 kcal/mol
DOCKED: USER        vdW + Hbond + desolv Energy     = -10.09 kcal/mol
DOCKED: USER        Electrostatic Energy            =  +0.07 kcal/mol
DOCKED: USER        Moving Ligand-Fixed Receptor    = -10.01 kcal/mol
DOCKED: USER        Moving Ligand-Moving Receptor   =  +0.00 kcal/mol
DOCKED: USER    (2) Final Total Internal Energy     =  -0.87 kcal/mol
DOCKED: USER    (3) Torsional Free Energy           =  +3.28 kcal/mol
DOCKED: USER    (4) Unbound System's Energy         =  -0.87 kcal/mol
DOCKED: USER
DOCKED: USER
DOCKED: REMARK SMILES O/C(=C\CCOc1ccc(Cl)cc1Cl)[N-]/N=C\c1cccc(C(F)(F)F)c1
DOCKED: REMARK SMILES IDX 2 1 1 2 15 4 16 5 17 6 18 7 19 8 27 9 20 10 22 11 21 12
DOCKED: REMARK SMILES IDX 23 13 24 14 25 15 26 16 3 17 4 18 5 19 6 20 7 21 8 22 13 23
DOCKED: REMARK SMILES IDX 9 24 12 25 10 26 14 27 11 28
DOCKED: REMARK H PARENT 1 3
DOCKED: USER                              x       y       z     vdW  Elec       q    Type
DOCKED: USER                           _______ _______ _______ _____ _____    ______ ____
DOCKED: ROOT
DOCKED: ATOM      1  C   UNL     1     139.818  74.865 221.496 -0.28 -0.00    +0.023 C  
DOCKED: ENDROOT
DOCKED: BRANCH   1   2
DOCKED: ATOM      2  O   UNL     1     138.763  75.046 222.387 -0.21 +0.15    -0.530 OA 
DOCKED: ATOM      3  H   UNL     1     138.530  74.329 223.065 -0.50 -0.19    +0.290 HD 
DOCKED: ENDBRANCH   1   2
DOCKED: BRANCH   1   4
DOCKED: ATOM      4  N   UNL     1     140.576  73.650 221.560 -0.28 +0.06    -0.546 NA 
DOCKED: BRANCH   4   5
DOCKED: ATOM      5  N   UNL     1     140.699  72.899 222.738 -0.43 -0.01    -0.372 NA 
DOCKED: BRANCH   5   6
DOCKED: ATOM      6  C   UNL     1     140.016  71.817 222.972 -0.31 -0.02    +0.094 C  
DOCKED: BRANCH   6   7
DOCKED: ATOM      7  C   UNL     1     140.057  71.068 224.250 -0.44 +0.00    -0.009 A  
DOCKED: ATOM      8  C   UNL     1     139.540  69.765 224.282 -0.33 -0.00    +0.009 A  
DOCKED: ATOM      9  C   UNL     1     140.515  71.654 225.446 -0.48 -0.00    +0.022 A  
DOCKED: ATOM     10  C   UNL     1     139.510  69.045 225.478 -0.45 -0.00    +0.001 A  
DOCKED: ATOM     11  C   UNL     1     140.518  70.922 226.648 -0.59 -0.01    +0.056 A  
DOCKED: ATOM     12  C   UNL     1     139.991  69.619 226.656 -0.53 -0.00    +0.013 A  
DOCKED: BRANCH  11  13
DOCKED: ATOM     13  C   UNL     1     140.987  71.576 227.924 -0.40 -0.09    +0.416 C  
DOCKED: ATOM     14  F   UNL     1     141.814  72.639 227.614 -0.34 +0.03    -0.166 F  
DOCKED: ATOM     15  F   UNL     1     139.918  72.040 228.670 -0.29 +0.05    -0.166 F  
DOCKED: ATOM     16  F   UNL     1     141.690  70.666 228.697 -0.13 +0.03    -0.166 F  
DOCKED: ENDBRANCH  11  13
DOCKED: ENDBRANCH   6   7
DOCKED: ENDBRANCH   5   6
DOCKED: ENDBRANCH   4   5
DOCKED: ENDBRANCH   1   4
DOCKED: BRANCH   1  17
DOCKED: ATOM     17  C   UNL     1     140.105  75.818 220.596 -0.20 +0.00    -0.001 C  
DOCKED: BRANCH  17  18
DOCKED: ATOM     18  C   UNL     1     141.524  76.170 220.247 -0.24 -0.03    +0.071 C  
DOCKED: BRANCH  18  19
DOCKED: ATOM     19  C   UNL     1     141.847  77.653 220.464 -0.20 -0.14    +0.234 C  
DOCKED: BRANCH  19  20
DOCKED: ATOM     20  O   UNL     1     141.800  77.996 221.853 -0.07 +0.31    -0.492 OA 
DOCKED: BRANCH  20  21
DOCKED: ATOM     21  C   UNL     1     140.789  78.723 222.511 -0.34 -0.04    +0.137 A  
DOCKED: ATOM     22  C   UNL     1     139.434  78.324 222.521 -0.30 -0.01    +0.049 A  
DOCKED: ATOM     23  C   UNL     1     141.150  79.908 223.177 -0.46 -0.02    +0.084 A  
DOCKED: ATOM     24  C   UNL     1     138.476  79.090 223.193 -0.28 -0.00    +0.024 A  
DOCKED: ATOM     25  C   UNL     1     140.186  80.669 223.846 -0.36 -0.01    +0.045 A  
DOCKED: ATOM     26  C   UNL     1     138.849  80.261 223.855 -0.40 -0.00    +0.042 A  
DOCKED: ATOM     27  Cl  UNL     1     142.823  80.447 223.187 -0.80 +0.02    -0.080 Cl 
DOCKED: ATOM     28  Cl  UNL     1     137.643  81.218 224.697 -0.46 +0.01    -0.084 Cl 
DOCKED: ENDBRANCH  20  21
DOCKED: ENDBRANCH  19  20
DOCKED: ENDBRANCH  18  19
DOCKED: ENDBRANCH  17  18
DOCKED: ENDBRANCH   1  17
DOCKED: TORSDOF 11
DOCKED: TER
DOCKED: ENDMDL
________________________________________________________________________________


    FINAL DOCKED STATE:
    ________________________


Run:   3 / 20
Time taken for this run:   0.051s

DOCKED: MODEL        3
DOCKED: USER    Run = 3
DOCKED: USER
DOCKED: USER    Estimated Free Energy of Binding    =  -5.87 kcal/mol  [=(1)+(2)+(3)-(4)]
DOCKED: USER
DOCKED: USER    (1) Final Intermolecular Energy     =  -9.15 kcal/mol
DOCKED: USER        vdW + Hbond + desolv Energy     =  -9.23 kcal/mol
DOCKED: USER        Electrostatic Energy            =  +0.08 kcal/mol
DOCKED: USER        Moving Ligand-Fixed Receptor    =  -9.15 kcal/mol
DOCKED: USER        Moving Ligand-Moving Receptor   =  +0.00 kcal/mol
DOCKED: USER    (2) Final Total Internal Energy     =  -1.33 kcal/mol
DOCKED: USER    (3) Torsional Free Energy           =  +3.28 kcal/mol
DOCKED: USER    (4) Unbound System's Energy         =  -1.33 kcal/mol
DOCKED: USER
DOCKED: USER
DOCKED: REMARK SMILES O/C(=C\CCOc1ccc(Cl)cc1Cl)[N-]/N=C\c1cccc(C(F)(F)F)c1
DOCKED: REMARK SMILES IDX 2 1 1 2 15 4 16 5 17 6 18 7 19 8 27 9 20 10 22 11 21 12
DOCKED: REMARK SMILES IDX 23 13 24 14 25 15 26 16 3 17 4 18 5 19 6 20 7 21 8 22 13 23
DOCKED: REMARK SMILES IDX 9 24 12 25 10 26 14 27 11 28
DOCKED: REMARK H PARENT 1 3
DOCKED: USER                              x       y       z     vdW  Elec       q    Type
DOCKED: USER                           _______ _______ _______ _____ _____    ______ ____
DOCKED: ROOT
DOCKED: ATOM      1  C   UNL     1     140.929  74.584 221.430 -0.30 -0.00    +0.023 C  
DOCKED: ENDROOT
DOCKED: BRANCH   1   2
DOCKED: ATOM      2  O   UNL     1     142.211  75.092 221.236 -0.06 +0.22    -0.530 OA 
DOCKED: ATOM      3  H   UNL     1     142.426  76.056 221.464 -0.41 -0.25    +0.290 HD 
DOCKED: ENDBRANCH   1   2
DOCKED: BRANCH   1   4
DOCKED: ATOM      4  N   UNL     1     140.780  73.209 221.805 -0.29 +0.04    -0.546 NA 
DOCKED: BRANCH   4   5
DOCKED: ATOM      5  N   UNL     1     139.934  72.800 222.848 -0.44 +0.05    -0.372 NA 
DOCKED: BRANCH   5   6
DOCKED: ATOM      6  C   UNL     1     139.622  71.558 223.071 -0.29 -0.02    +0.094 C  
DOCKED: BRANCH   6   7
DOCKED: ATOM      7  C   UNL     1     139.893  70.847 224.342 -0.43 +0.00    -0.009 A  
DOCKED: ATOM      8  C   UNL     1     139.594  69.480 224.427 -0.33 -0.00    +0.009 A  
DOCKED: ATOM      9  C   UNL     1     140.357  71.519 225.491 -0.52 -0.00    +0.022 A  
DOCKED: ATOM     10  C   UNL     1     139.784  68.785 225.622 -0.48 -0.00    +0.001 A  
DOCKED: ATOM     11  C   UNL     1     140.582  70.818 226.690 -0.58 -0.01    +0.056 A  
DOCKED: ATOM     12  C   UNL     1     140.270  69.449 226.750 -0.55 -0.00    +0.013 A  
DOCKED: BRANCH  11  13
DOCKED: ATOM     13  C   UNL     1     141.053  71.560 227.916 -0.40 -0.09    +0.416 C  
DOCKED: ATOM     14  F   UNL     1     139.955  72.007 228.627 -0.29 +0.05    -0.166 F  
DOCKED: ATOM     15  F   UNL     1     141.815  70.742 228.732 -0.12 +0.03    -0.166 F  
DOCKED: ATOM     16  F   UNL     1     141.828  72.647 227.550 -0.35 +0.03    -0.166 F  
DOCKED: ENDBRANCH  11  13
DOCKED: ENDBRANCH   6   7
DOCKED: ENDBRANCH   5   6
DOCKED: ENDBRANCH   4   5
DOCKED: ENDBRANCH   1   4
DOCKED: BRANCH   1  17
DOCKED: ATOM     17  C   UNL     1     139.861  75.381 221.267 -0.28 +0.00    -0.001 C  
DOCKED: BRANCH  17  18
DOCKED: ATOM     18  C   UNL     1     139.461  76.385 222.313 -0.31 -0.01    +0.071 C  
DOCKED: BRANCH  18  19
DOCKED: ATOM     19  C   UNL     1     140.204  77.719 222.180 -0.26 -0.07    +0.234 C  
DOCKED: BRANCH  19  20
DOCKED: ATOM     20  O   UNL     1     141.182  77.667 221.136 -0.08 +0.23    -0.492 OA 
DOCKED: BRANCH  20  21
DOCKED: ATOM     21  C   UNL     1     141.566  78.720 220.283 -0.23 -0.07    +0.137 A  
DOCKED: ATOM     22  C   UNL     1     141.347  80.081 220.591 -0.28 -0.02    +0.049 A  
DOCKED: ATOM     23  C   UNL     1     142.185  78.395 219.064 -0.26 -0.06    +0.084 A  
DOCKED: ATOM     24  C   UNL     1     141.751  81.082 219.702 -0.27 -0.01    +0.024 A  
DOCKED: ATOM     25  C   UNL     1     142.586  79.401 218.179 -0.32 -0.04    +0.045 A  
DOCKED: ATOM     26  C   UNL     1     142.371  80.744 218.497 -0.30 -0.03    +0.042 A  
DOCKED: ATOM     27  Cl  UNL     1     142.474  76.714 218.635 -0.37 +0.04    -0.080 Cl 
DOCKED: ATOM     28  Cl  UNL     1     142.876  82.004 217.385 -0.42 +0.07    -0.084 Cl 
DOCKED: ENDBRANCH  20  21
DOCKED: ENDBRANCH  19  20
DOCKED: ENDBRANCH  18  19
DOCKED: ENDBRANCH  17  18
DOCKED: ENDBRANCH   1  17
DOCKED: TORSDOF 11
DOCKED: TER
DOCKED: ENDMDL
________________________________________________________________________________


    FINAL DOCKED STATE:
    ________________________


Run:   4 / 20
Time taken for this run:   0.051s

DOCKED: MODEL        4
DOCKED: USER    Run = 4
DOCKED: USER
DOCKED: USER    Estimated Free Energy of Binding    =  -6.14 kcal/mol  [=(1)+(2)+(3)-(4)]
DOCKED: USER
DOCKED: USER    (1) Final Intermolecular Energy     =  -9.42 kcal/mol
DOCKED: USER        vdW + Hbond + desolv Energy     =  -9.49 kcal/mol
DOCKED: USER        Electrostatic Energy            =  +0.08 kcal/mol
DOCKED: USER        Moving Ligand-Fixed Receptor    =  -9.42 kcal/mol
DOCKED: USER        Moving Ligand-Moving Receptor   =  +0.00 kcal/mol
DOCKED: USER    (2) Final Total Internal Energy     =  -0.76 kcal/mol
DOCKED: USER    (3) Torsional Free Energy           =  +3.28 kcal/mol
DOCKED: USER    (4) Unbound System's Energy         =  -0.76 kcal/mol
DOCKED: USER
DOCKED: USER
DOCKED: REMARK SMILES O/C(=C\CCOc1ccc(Cl)cc1Cl)[N-]/N=C\c1cccc(C(F)(F)F)c1
DOCKED: REMARK SMILES IDX 2 1 1 2 15 4 16 5 17 6 18 7 19 8 27 9 20 10 22 11 21 12
DOCKED: REMARK SMILES IDX 23 13 24 14 25 15 26 16 3 17 4 18 5 19 6 20 7 21 8 22 13 23
DOCKED: REMARK SMILES IDX 9 24 12 25 10 26 14 27 11 28
DOCKED: REMARK H PARENT 1 3
DOCKED: USER                              x       y       z     vdW  Elec       q    Type
DOCKED: USER                           _______ _______ _______ _____ _____    ______ ____
DOCKED: ROOT
DOCKED: ATOM      1  C   UNL     1     139.984  74.441 220.724 -0.19 -0.00    +0.023 C  
DOCKED: ENDROOT
DOCKED: BRANCH   1   2
DOCKED: ATOM      2  O   UNL     1     140.060  73.583 219.631 +0.02 +0.11    -0.530 OA 
DOCKED: ATOM      3  H   UNL     1     140.045  72.578 219.760 +0.05 -0.05    +0.290 HD 
DOCKED: ENDBRANCH   1   2
DOCKED: BRANCH   1   4
DOCKED: ATOM      4  N   UNL     1     140.575  74.034 221.965 -0.61 +0.02    -0.546 NA 
DOCKED: BRANCH   4   5
DOCKED: ATOM      5  N   UNL     1     139.953  73.124 222.833 -0.46 +0.03    -0.372 NA 
DOCKED: BRANCH   5   6
DOCKED: ATOM      6  C   UNL     1     140.346  71.894 222.982 -0.31 -0.01    +0.094 C  
DOCKED: BRANCH   6   7
DOCKED: ATOM      7  C   UNL     1     140.229  71.130 224.246 -0.45 +0.00    -0.009 A  
DOCKED: ATOM      8  C   UNL     1     139.578  69.888 224.225 -0.34 -0.00    +0.009 A  
DOCKED: ATOM      9  C   UNL     1     140.670  71.651 225.479 -0.52 -0.00    +0.022 A  
DOCKED: ATOM     10  C   UNL     1     139.399  69.162 225.403 -0.43 -0.00    +0.001 A  
DOCKED: ATOM     11  C   UNL     1     140.522  70.911 226.665 -0.59 -0.01    +0.056 A  
DOCKED: ATOM     12  C   UNL     1     139.862  69.670 226.618 -0.52 -0.00    +0.013 A  
DOCKED: BRANCH  11  13
DOCKED: ATOM     13  C   UNL     1     140.976  71.497 227.979 -0.39 -0.09    +0.416 C  
DOCKED: ATOM     14  F   UNL     1     139.869  71.894 228.707 -0.29 +0.05    -0.166 F  
DOCKED: ATOM     15  F   UNL     1     141.692  70.571 228.718 -0.13 +0.03    -0.166 F  
DOCKED: ATOM     16  F   UNL     1     141.789  72.595 227.757 -0.32 +0.04    -0.166 F  
DOCKED: ENDBRANCH  11  13
DOCKED: ENDBRANCH   6   7
DOCKED: ENDBRANCH   5   6
DOCKED: ENDBRANCH   4   5
DOCKED: ENDBRANCH   1   4
DOCKED: BRANCH   1  17
DOCKED: ATOM     17  C   UNL     1     139.368  75.627 220.603 -0.15 +0.00    -0.001 C  
DOCKED: BRANCH  17  18
DOCKED: ATOM     18  C   UNL     1     137.924  75.808 220.980 -0.11 -0.02    +0.071 C  
DOCKED: BRANCH  18  19
DOCKED: ATOM     19  C   UNL     1     137.594  77.236 221.427 -0.09 -0.05    +0.234 C  
DOCKED: BRANCH  19  20
DOCKED: ATOM     20  O   UNL     1     138.172  77.527 222.704 -0.11 +0.08    -0.492 OA 
DOCKED: BRANCH  20  21
DOCKED: ATOM     21  C   UNL     1     139.333  78.284 222.955 -0.24 -0.02    +0.137 A  
DOCKED: ATOM     22  C   UNL     1     140.638  77.792 222.735 -0.41 -0.01    +0.049 A  
DOCKED: ATOM     23  C   UNL     1     139.178  79.588 223.458 -0.35 -0.01    +0.084 A  
DOCKED: ATOM     24  C   UNL     1     141.752  78.593 223.004 -0.52 -0.01    +0.024 A  
DOCKED: ATOM     25  C   UNL     1     140.297  80.384 223.725 -0.40 -0.01    +0.045 A  
DOCKED: ATOM     26  C   UNL     1     141.584  79.889 223.498 -0.55 -0.01    +0.042 A  
DOCKED: ATOM     27  Cl  UNL     1     137.573  80.243 223.752 -0.36 +0.01    -0.080 Cl 
DOCKED: ATOM     28  Cl  UNL     1     142.985  80.891 223.832 -0.73 +0.02    -0.084 Cl 
DOCKED: ENDBRANCH  20  21
DOCKED: ENDBRANCH  19  20
DOCKED: ENDBRANCH  18  19
DOCKED: ENDBRANCH  17  18
DOCKED: ENDBRANCH   1  17
DOCKED: TORSDOF 11
DOCKED: TER
DOCKED: ENDMDL
________________________________________________________________________________


    FINAL DOCKED STATE:
    ________________________


Run:   5 / 20
Time taken for this run:   0.051s

DOCKED: MODEL        5
DOCKED: USER    Run = 5
DOCKED: USER
DOCKED: USER    Estimated Free Energy of Binding    =  -6.04 kcal/mol  [=(1)+(2)+(3)-(4)]
DOCKED: USER
DOCKED: USER    (1) Final Intermolecular Energy     =  -9.32 kcal/mol
DOCKED: USER        vdW + Hbond + desolv Energy     =  -9.26 kcal/mol
DOCKED: USER        Electrostatic Energy            =  -0.06 kcal/mol
DOCKED: USER        Moving Ligand-Fixed Receptor    =  -9.32 kcal/mol
DOCKED: USER        Moving Ligand-Moving Receptor   =  +0.00 kcal/mol
DOCKED: USER    (2) Final Total Internal Energy     =  -1.39 kcal/mol
DOCKED: USER    (3) Torsional Free Energy           =  +3.28 kcal/mol
DOCKED: USER    (4) Unbound System's Energy         =  -1.39 kcal/mol
DOCKED: USER
DOCKED: USER
DOCKED: REMARK SMILES O/C(=C\CCOc1ccc(Cl)cc1Cl)[N-]/N=C\c1cccc(C(F)(F)F)c1
DOCKED: REMARK SMILES IDX 2 1 1 2 15 4 16 5 17 6 18 7 19 8 27 9 20 10 22 11 21 12
DOCKED: REMARK SMILES IDX 23 13 24 14 25 15 26 16 3 17 4 18 5 19 6 20 7 21 8 22 13 23
DOCKED: REMARK SMILES IDX 9 24 12 25 10 26 14 27 11 28
DOCKED: REMARK H PARENT 1 3
DOCKED: USER                              x       y       z     vdW  Elec       q    Type
DOCKED: USER                           _______ _______ _______ _____ _____    ______ ____
DOCKED: ROOT
DOCKED: ATOM      1  C   UNL     1     140.270  75.320 221.913 -0.29 -0.00    +0.023 C  
DOCKED: ENDROOT
DOCKED: BRANCH   1   2
DOCKED: ATOM      2  O   UNL     1     141.103  76.364 222.306 -0.18 +0.19    -0.530 OA 
DOCKED: ATOM      3  H   UNL     1     142.107  76.299 222.185 -0.44 -0.25    +0.290 HD 
DOCKED: ENDBRANCH   1   2
DOCKED: BRANCH   1   4
DOCKED: ATOM      4  N   UNL     1     140.714  73.971 222.107 -0.53 -0.01    -0.546 NA 
DOCKED: BRANCH   4   5
DOCKED: ATOM      5  N   UNL     1     139.936  73.010 222.771 -0.53 +0.04    -0.372 NA 
DOCKED: BRANCH   5   6
DOCKED: ATOM      6  C   UNL     1     140.316  71.779 222.946 -0.31 -0.01    +0.094 C  
DOCKED: BRANCH   6   7
DOCKED: ATOM      7  C   UNL     1     140.231  71.059 224.238 -0.44 +0.00    -0.009 A  
DOCKED: ATOM      8  C   UNL     1     139.610  69.801 224.269 -0.33 -0.00    +0.009 A  
DOCKED: ATOM      9  C   UNL     1     140.673  71.634 225.446 -0.52 -0.00    +0.022 A  
DOCKED: ATOM     10  C   UNL     1     139.462  69.114 225.474 -0.44 -0.00    +0.001 A  
DOCKED: ATOM     11  C   UNL     1     140.556  70.933 226.660 -0.59 -0.01    +0.056 A  
DOCKED: ATOM     12  C   UNL     1     139.926  69.676 226.665 -0.52 -0.00    +0.013 A  
DOCKED: BRANCH  11  13
DOCKED: ATOM     13  C   UNL     1     141.010  71.576 227.947 -0.40 -0.09    +0.416 C  
DOCKED: ATOM     14  F   UNL     1     141.829  72.651 227.654 -0.33 +0.03    -0.166 F  
DOCKED: ATOM     15  F   UNL     1     139.930  72.022 228.689 -0.29 +0.05    -0.166 F  
DOCKED: ATOM     16  F   UNL     1     141.716  70.665 228.714 -0.13 +0.03    -0.166 F  
DOCKED: ENDBRANCH  11  13
DOCKED: ENDBRANCH   6   7
DOCKED: ENDBRANCH   5   6
DOCKED: ENDBRANCH   4   5
DOCKED: ENDBRANCH   1   4
DOCKED: BRANCH   1  17
DOCKED: ATOM     17  C   UNL     1     139.074  75.587 221.366 -0.24 +0.00    -0.001 C  
DOCKED: BRANCH  17  18
DOCKED: ATOM     18  C   UNL     1     138.758  75.218 219.943 -0.06 -0.02    +0.071 C  
DOCKED: BRANCH  18  19
DOCKED: ATOM     19  C   UNL     1     139.824  75.692 218.948 -0.02 -0.06    +0.234 C  
DOCKED: BRANCH  19  20
DOCKED: ATOM     20  O   UNL     1     140.746  74.642 218.637 +0.02 +0.13    -0.492 OA 
DOCKED: BRANCH  20  21
DOCKED: ATOM     21  C   UNL     1     141.985  74.392 219.259 -0.11 -0.04    +0.137 A  
DOCKED: ATOM     22  C   UNL     1     142.953  75.396 219.481 -0.31 -0.02    +0.049 A  
DOCKED: ATOM     23  C   UNL     1     142.269  73.077 219.667 -0.14 -0.02    +0.084 A  
DOCKED: ATOM     24  C   UNL     1     144.166  75.085 220.104 -0.40 -0.01    +0.024 A  
DOCKED: ATOM     25  C   UNL     1     143.484  72.772 220.289 -0.29 -0.01    +0.045 A  
DOCKED: ATOM     26  C   UNL     1     144.432  73.775 220.510 -0.46 -0.01    +0.042 A  
DOCKED: ATOM     27  Cl  UNL     1     141.096  71.793 219.407 -0.10 +0.01    -0.080 Cl 
DOCKED: ATOM     28  Cl  UNL     1     145.955  73.390 221.292 -0.89 +0.01    -0.084 Cl 
DOCKED: ENDBRANCH  20  21
DOCKED: ENDBRANCH  19  20
DOCKED: ENDBRANCH  18  19
DOCKED: ENDBRANCH  17  18
DOCKED: ENDBRANCH   1  17
DOCKED: TORSDOF 11
DOCKED: TER
DOCKED: ENDMDL
________________________________________________________________________________


    FINAL DOCKED STATE:
    ________________________


Run:   6 / 20
Time taken for this run:   0.051s

DOCKED: MODEL        6
DOCKED: USER    Run = 6
DOCKED: USER
DOCKED: USER    Estimated Free Energy of Binding    =  -6.28 kcal/mol  [=(1)+(2)+(3)-(4)]
DOCKED: USER
DOCKED: USER    (1) Final Intermolecular Energy     =  -9.56 kcal/mol
DOCKED: USER        vdW + Hbond + desolv Energy     =  -9.61 kcal/mol
DOCKED: USER        Electrostatic Energy            =  +0.05 kcal/mol
DOCKED: USER        Moving Ligand-Fixed Receptor    =  -9.56 kcal/mol
DOCKED: USER        Moving Ligand-Moving Receptor   =  +0.00 kcal/mol
DOCKED: USER    (2) Final Total Internal Energy     =  -0.83 kcal/mol
DOCKED: USER    (3) Torsional Free Energy           =  +3.28 kcal/mol
DOCKED: USER    (4) Unbound System's Energy         =  -0.83 kcal/mol
DOCKED: USER
DOCKED: USER
DOCKED: REMARK SMILES O/C(=C\CCOc1ccc(Cl)cc1Cl)[N-]/N=C\c1cccc(C(F)(F)F)c1
DOCKED: REMARK SMILES IDX 2 1 1 2 15 4 16 5 17 6 18 7 19 8 27 9 20 10 22 11 21 12
DOCKED: REMARK SMILES IDX 23 13 24 14 25 15 26 16 3 17 4 18 5 19 6 20 7 21 8 22 13 23
DOCKED: REMARK SMILES IDX 9 24 12 25 10 26 14 27 11 28
DOCKED: REMARK H PARENT 1 3
DOCKED: USER                              x       y       z     vdW  Elec       q    Type
DOCKED: USER                           _______ _______ _______ _____ _____    ______ ____
DOCKED: ROOT
DOCKED: ATOM      1  C   UNL     1     141.195  74.083 221.450 -0.25 -0.00    +0.023 C  
DOCKED: ENDROOT
DOCKED: BRANCH   1   2
DOCKED: ATOM      2  O   UNL     1     142.293  74.892 221.171 -0.08 +0.20    -0.530 OA 
DOCKED: ATOM      3  H   UNL     1     142.364  75.823 221.566 -0.42 -0.22    +0.290 HD 
DOCKED: ENDBRANCH   1   2
DOCKED: BRANCH   1   4
DOCKED: ATOM      4  N   UNL     1     140.011  74.685 221.988 -0.60 +0.06    -0.546 NA 
DOCKED: BRANCH   4   5
DOCKED: ATOM      5  N   UNL     1     139.998  75.990 222.506 -0.27 +0.06    -0.372 NA 
DOCKED: BRANCH   5   6
DOCKED: ATOM      6  C   UNL     1     140.123  77.053 221.769 -0.30 -0.03    +0.094 C  
DOCKED: BRANCH   6   7
DOCKED: ATOM      7  C   UNL     1     140.784  78.302 222.217 -0.40 +0.00    -0.009 A  
DOCKED: ATOM      8  C   UNL     1     141.506  78.287 223.419 -0.54 -0.00    +0.009 A  
DOCKED: ATOM      9  C   UNL     1     140.636  79.518 221.522 -0.27 -0.01    +0.022 A  
DOCKED: ATOM     10  C   UNL     1     142.098  79.454 223.904 -0.59 -0.00    +0.001 A  
DOCKED: ATOM     11  C   UNL     1     141.257  80.691 221.987 -0.38 -0.01    +0.056 A  
DOCKED: ATOM     12  C   UNL     1     141.971  80.652 223.198 -0.59 -0.00    +0.013 A  
DOCKED: BRANCH  11  13
DOCKED: ATOM     13  C   UNL     1     141.064  81.990 221.244 -0.15 -0.09    +0.416 C  
DOCKED: ATOM     14  F   UNL     1     141.666  81.898 220.003 -0.10 +0.05    -0.166 F  
DOCKED: ATOM     15  F   UNL     1     139.720  82.271 221.072 -0.06 +0.03    -0.166 F  
DOCKED: ATOM     16  F   UNL     1     141.637  83.034 221.949 -0.10 +0.02    -0.166 F  
DOCKED: ENDBRANCH  11  13
DOCKED: ENDBRANCH   6   7
DOCKED: ENDBRANCH   5   6
DOCKED: ENDBRANCH   4   5
DOCKED: ENDBRANCH   1   4
DOCKED: BRANCH   1  17
DOCKED: ATOM     17  C   UNL     1     141.258  72.764 221.212 -0.27 +0.00    -0.001 C  
DOCKED: BRANCH  17  18
DOCKED: ATOM     18  C   UNL     1     140.062  71.872 221.400 -0.18 -0.01    +0.071 C  
DOCKED: BRANCH  18  19
DOCKED: ATOM     19  C   UNL     1     139.393  72.044 222.768 -0.18 -0.05    +0.234 C  
DOCKED: BRANCH  19  20
DOCKED: ATOM     20  O   UNL     1     139.053  70.778 223.343 -0.08 +0.10    -0.492 OA 
DOCKED: BRANCH  20  21
DOCKED: ATOM     21  C   UNL     1     139.535  70.242 224.554 -0.31 -0.02    +0.137 A  
DOCKED: ATOM     22  C   UNL     1     140.078  71.036 225.587 -0.49 -0.01    +0.049 A  
DOCKED: ATOM     23  C   UNL     1     139.480  68.848 224.730 -0.31 -0.01    +0.084 A  
DOCKED: ATOM     24  C   UNL     1     140.540  70.444 226.767 -0.58 -0.00    +0.024 A  
DOCKED: ATOM     25  C   UNL     1     139.945  68.262 225.912 -0.53 -0.01    +0.045 A  
DOCKED: ATOM     26  C   UNL     1     140.475  69.059 226.931 -0.56 -0.01    +0.042 A  
DOCKED: ATOM     27  Cl  UNL     1     138.818  67.817 223.469 -0.26 +0.01    -0.080 Cl 
DOCKED: ATOM     28  Cl  UNL     1     141.055  68.321 228.413 -0.75 +0.02    -0.084 Cl 
DOCKED: ENDBRANCH  20  21
DOCKED: ENDBRANCH  19  20
DOCKED: ENDBRANCH  18  19
DOCKED: ENDBRANCH  17  18
DOCKED: ENDBRANCH   1  17
DOCKED: TORSDOF 11
DOCKED: TER
DOCKED: ENDMDL
________________________________________________________________________________


    FINAL DOCKED STATE:
    ________________________


Run:   7 / 20
Time taken for this run:   0.051s

DOCKED: MODEL        7
DOCKED: USER    Run = 7
DOCKED: USER
DOCKED: USER    Estimated Free Energy of Binding    =  -6.48 kcal/mol  [=(1)+(2)+(3)-(4)]
DOCKED: USER
DOCKED: USER    (1) Final Intermolecular Energy     =  -9.76 kcal/mol
DOCKED: USER        vdW + Hbond + desolv Energy     = -10.02 kcal/mol
DOCKED: USER        Electrostatic Energy            =  +0.26 kcal/mol
DOCKED: USER        Moving Ligand-Fixed Receptor    =  -9.76 kcal/mol
DOCKED: USER        Moving Ligand-Moving Receptor   =  +0.00 kcal/mol
DOCKED: USER    (2) Final Total Internal Energy     =  -1.14 kcal/mol
DOCKED: USER    (3) Torsional Free Energy           =  +3.28 kcal/mol
DOCKED: USER    (4) Unbound System's Energy         =  -1.14 kcal/mol
DOCKED: USER
DOCKED: USER
DOCKED: REMARK SMILES O/C(=C\CCOc1ccc(Cl)cc1Cl)[N-]/N=C\c1cccc(C(F)(F)F)c1
DOCKED: REMARK SMILES IDX 2 1 1 2 15 4 16 5 17 6 18 7 19 8 27 9 20 10 22 11 21 12
DOCKED: REMARK SMILES IDX 23 13 24 14 25 15 26 16 3 17 4 18 5 19 6 20 7 21 8 22 13 23
DOCKED: REMARK SMILES IDX 9 24 12 25 10 26 14 27 11 28
DOCKED: REMARK H PARENT 1 3
DOCKED: USER                              x       y       z     vdW  Elec       q    Type
DOCKED: USER                           _______ _______ _______ _____ _____    ______ ____
DOCKED: ROOT
DOCKED: ATOM      1  C   UNL     1     140.435  74.065 221.639 -0.28 -0.00    +0.023 C  
DOCKED: ENDROOT
DOCKED: BRANCH   1   2
DOCKED: ATOM      2  O   UNL     1     139.263  73.935 222.380 -0.51 +0.12    -0.530 OA 
DOCKED: ATOM      3  H   UNL     1     139.246  73.382 223.229 -0.42 -0.14    +0.290 HD 
DOCKED: ENDBRANCH   1   2
DOCKED: BRANCH   1   4
DOCKED: ATOM      4  N   UNL     1     140.929  75.380 221.354 -0.14 +0.14    -0.546 NA 
DOCKED: BRANCH   4   5
DOCKED: ATOM      5  N   UNL     1     141.073  76.363 222.345 -0.20 +0.13    -0.372 NA 
DOCKED: BRANCH   5   6
DOCKED: ATOM      6  C   UNL     1     140.426  77.490 222.333 -0.37 -0.03    +0.094 C  
DOCKED: BRANCH   6   7
DOCKED: ATOM      7  C   UNL     1     141.061  78.815 222.529 -0.45 +0.00    -0.009 A  
DOCKED: ATOM      8  C   UNL     1     141.895  79.004 223.640 -0.61 -0.00    +0.009 A  
DOCKED: ATOM      9  C   UNL     1     140.783  79.910 221.687 -0.31 -0.01    +0.022 A  
DOCKED: ATOM     10  C   UNL     1     142.470  80.251 223.891 -0.64 -0.00    +0.001 A  
DOCKED: ATOM     11  C   UNL     1     141.384  81.161 221.915 -0.40 -0.01    +0.056 A  
DOCKED: ATOM     12  C   UNL     1     142.214  81.326 223.038 -0.52 -0.00    +0.013 A  
DOCKED: BRANCH  11  13
DOCKED: ATOM     13  C   UNL     1     141.053  82.328 221.018 -0.14 -0.09    +0.416 C  
DOCKED: ATOM     14  F   UNL     1     141.455  83.501 221.631 -0.10 +0.02    -0.166 F  
DOCKED: ATOM     15  F   UNL     1     141.694  82.217 219.797 -0.09 +0.05    -0.166 F  
DOCKED: ATOM     16  F   UNL     1     139.689  82.382 220.787 -0.05 +0.03    -0.166 F  
DOCKED: ENDBRANCH  11  13
DOCKED: ENDBRANCH   6   7
DOCKED: ENDBRANCH   5   6
DOCKED: ENDBRANCH   4   5
DOCKED: ENDBRANCH   1   4
DOCKED: BRANCH   1  17
DOCKED: ATOM     17  C   UNL     1     141.081  72.970 221.211 -0.27 +0.00    -0.001 C  
DOCKED: BRANCH  17  18
DOCKED: ATOM     18  C   UNL     1     141.100  71.700 222.016 -0.17 -0.01    +0.071 C  
DOCKED: BRANCH  18  19
DOCKED: ATOM     19  C   UNL     1     139.697  71.195 222.374 -0.17 -0.04    +0.234 C  
DOCKED: BRANCH  19  20
DOCKED: ATOM     20  O   UNL     1     139.356  71.525 223.724 -0.15 +0.12    -0.492 OA 
DOCKED: BRANCH  20  21
DOCKED: ATOM     21  C   UNL     1     139.767  70.849 224.890 -0.37 -0.02    +0.137 A  
DOCKED: ATOM     22  C   UNL     1     140.707  71.380 225.800 -0.58 -0.01    +0.049 A  
DOCKED: ATOM     23  C   UNL     1     139.220  69.579 225.148 -0.35 -0.01    +0.084 A  
DOCKED: ATOM     24  C   UNL     1     141.075  70.659 226.940 -0.61 -0.00    +0.024 A  
DOCKED: ATOM     25  C   UNL     1     139.593  68.863 226.289 -0.50 -0.01    +0.045 A  
DOCKED: ATOM     26  C   UNL     1     140.519  69.401 227.187 -0.56 -0.01    +0.042 A  
DOCKED: ATOM     27  Cl  UNL     1     138.049  68.874 224.041 -0.36 +0.01    -0.080 Cl 
DOCKED: ATOM     28  Cl  UNL     1     140.983  68.501 228.619 -0.73 +0.02    -0.084 Cl 
DOCKED: ENDBRANCH  20  21
DOCKED: ENDBRANCH  19  20
DOCKED: ENDBRANCH  18  19
DOCKED: ENDBRANCH  17  18
DOCKED: ENDBRANCH   1  17
DOCKED: TORSDOF 11
DOCKED: TER
DOCKED: ENDMDL
________________________________________________________________________________


    FINAL DOCKED STATE:
    ________________________


Run:   8 / 20
Time taken for this run:   0.051s

DOCKED: MODEL        8
DOCKED: USER    Run = 8
DOCKED: USER
DOCKED: USER    Estimated Free Energy of Binding    =  -6.38 kcal/mol  [=(1)+(2)+(3)-(4)]
DOCKED: USER
DOCKED: USER    (1) Final Intermolecular Energy     =  -9.66 kcal/mol
DOCKED: USER        vdW + Hbond + desolv Energy     =  -9.74 kcal/mol
DOCKED: USER        Electrostatic Energy            =  +0.08 kcal/mol
DOCKED: USER        Moving Ligand-Fixed Receptor    =  -9.66 kcal/mol
DOCKED: USER        Moving Ligand-Moving Receptor   =  +0.00 kcal/mol
DOCKED: USER    (2) Final Total Internal Energy     =  -0.59 kcal/mol
DOCKED: USER    (3) Torsional Free Energy           =  +3.28 kcal/mol
DOCKED: USER    (4) Unbound System's Energy         =  -0.59 kcal/mol
DOCKED: USER
DOCKED: USER
DOCKED: REMARK SMILES O/C(=C\CCOc1ccc(Cl)cc1Cl)[N-]/N=C\c1cccc(C(F)(F)F)c1
DOCKED: REMARK SMILES IDX 2 1 1 2 15 4 16 5 17 6 18 7 19 8 27 9 20 10 22 11 21 12
DOCKED: REMARK SMILES IDX 23 13 24 14 25 15 26 16 3 17 4 18 5 19 6 20 7 21 8 22 13 23
DOCKED: REMARK SMILES IDX 9 24 12 25 10 26 14 27 11 28
DOCKED: REMARK H PARENT 1 3
DOCKED: USER                              x       y       z     vdW  Elec       q    Type
DOCKED: USER                           _______ _______ _______ _____ _____    ______ ____
DOCKED: ROOT
DOCKED: ATOM      1  C   UNL     1     141.137  73.658 221.596 -0.26 -0.00    +0.023 C  
DOCKED: ENDROOT
DOCKED: BRANCH   1   2
DOCKED: ATOM      2  O   UNL     1     142.162  74.537 221.255 -0.07 +0.14    -0.530 OA 
DOCKED: ATOM      3  H   UNL     1     142.221  75.454 221.683 -0.38 -0.16    +0.290 HD 
DOCKED: ENDBRANCH   1   2
DOCKED: BRANCH   1   4
DOCKED: ATOM      4  N   UNL     1     139.863  74.195 221.974 -0.64 +0.07    -0.546 NA 
DOCKED: BRANCH   4   5
DOCKED: ATOM      5  N   UNL     1     139.724  75.458 222.571 -0.35 +0.04    -0.372 NA 
DOCKED: BRANCH   5   6
DOCKED: ATOM      6  C   UNL     1     139.944  76.574 221.942 -0.32 -0.02    +0.094 C  
DOCKED: BRANCH   6   7
DOCKED: ATOM      7  C   UNL     1     139.906  77.910 222.582 -0.36 +0.00    -0.009 A  
DOCKED: ATOM      8  C   UNL     1     138.684  78.381 223.084 -0.28 -0.00    +0.009 A  
DOCKED: ATOM      9  C   UNL     1     141.033  78.754 222.622 -0.45 -0.01    +0.022 A  
DOCKED: ATOM     10  C   UNL     1     138.593  79.656 223.646 -0.35 -0.00    +0.001 A  
DOCKED: ATOM     11  C   UNL     1     140.957  80.026 223.216 -0.46 -0.01    +0.056 A  
DOCKED: ATOM     12  C   UNL     1     139.719  80.478 223.708 -0.41 -0.00    +0.013 A  
DOCKED: BRANCH  11  13
DOCKED: ATOM     13  C   UNL     1     142.168  80.926 223.225 -0.30 -0.08    +0.416 C  
DOCKED: ATOM     14  F   UNL     1     142.199  81.635 224.411 -0.23 +0.01    -0.166 F  
DOCKED: ATOM     15  F   UNL     1     143.336  80.192 223.109 -0.26 +0.05    -0.166 F  
DOCKED: ATOM     16  F   UNL     1     142.110  81.816 222.167 -0.14 +0.03    -0.166 F  
DOCKED: ENDBRANCH  11  13
DOCKED: ENDBRANCH   6   7
DOCKED: ENDBRANCH   5   6
DOCKED: ENDBRANCH   4   5
DOCKED: ENDBRANCH   1   4
DOCKED: BRANCH   1  17
DOCKED: ATOM     17  C   UNL     1     141.352  72.334 221.565 -0.26 +0.00    -0.001 C  
DOCKED: BRANCH  17  18
DOCKED: ATOM     18  C   UNL     1     140.343  71.386 220.978 -0.14 -0.01    +0.071 C  
DOCKED: BRANCH  18  19
DOCKED: ATOM     19  C   UNL     1     139.336  70.867 222.011 -0.12 -0.04    +0.234 C  
DOCKED: BRANCH  19  20
DOCKED: ATOM     20  O   UNL     1     139.549  71.469 223.292 -0.14 +0.10    -0.492 OA 
DOCKED: BRANCH  20  21
DOCKED: ATOM     21  C   UNL     1     139.870  70.808 224.494 -0.36 -0.02    +0.137 A  
DOCKED: ATOM     22  C   UNL     1     141.076  71.025 225.195 -0.50 -0.01    +0.049 A  
DOCKED: ATOM     23  C   UNL     1     138.947  69.880 225.008 -0.34 -0.01    +0.084 A  
DOCKED: ATOM     24  C   UNL     1     141.338  70.337 226.384 -0.52 -0.00    +0.024 A  
DOCKED: ATOM     25  C   UNL     1     139.215  69.195 226.198 -0.45 -0.01    +0.045 A  
DOCKED: ATOM     26  C   UNL     1     140.409  69.423 226.887 -0.54 -0.01    +0.042 A  
DOCKED: ATOM     27  Cl  UNL     1     137.434  69.573 224.167 -0.34 +0.01    -0.080 Cl 
DOCKED: ATOM     28  Cl  UNL     1     140.741  68.563 228.380 -0.80 +0.02    -0.084 Cl 
DOCKED: ENDBRANCH  20  21
DOCKED: ENDBRANCH  19  20
DOCKED: ENDBRANCH  18  19
DOCKED: ENDBRANCH  17  18
DOCKED: ENDBRANCH   1  17
DOCKED: TORSDOF 11
DOCKED: TER
DOCKED: ENDMDL
________________________________________________________________________________


    FINAL DOCKED STATE:
    ________________________


Run:   9 / 20
Time taken for this run:   0.051s

DOCKED: MODEL        9
DOCKED: USER    Run = 9
DOCKED: USER
DOCKED: USER    Estimated Free Energy of Binding    =  -6.21 kcal/mol  [=(1)+(2)+(3)-(4)]
DOCKED: USER
DOCKED: USER    (1) Final Intermolecular Energy     =  -9.49 kcal/mol
DOCKED: USER        vdW + Hbond + desolv Energy     =  -9.55 kcal/mol
DOCKED: USER        Electrostatic Energy            =  +0.06 kcal/mol
DOCKED: USER        Moving Ligand-Fixed Receptor    =  -9.49 kcal/mol
DOCKED: USER        Moving Ligand-Moving Receptor   =  +0.00 kcal/mol
DOCKED: USER    (2) Final Total Internal Energy     =  -1.35 kcal/mol
DOCKED: USER    (3) Torsional Free Energy           =  +3.28 kcal/mol
DOCKED: USER    (4) Unbound System's Energy         =  -1.35 kcal/mol
DOCKED: USER
DOCKED: USER
DOCKED: REMARK SMILES O/C(=C\CCOc1ccc(Cl)cc1Cl)[N-]/N=C\c1cccc(C(F)(F)F)c1
DOCKED: REMARK SMILES IDX 2 1 1 2 15 4 16 5 17 6 18 7 19 8 27 9 20 10 22 11 21 12
DOCKED: REMARK SMILES IDX 23 13 24 14 25 15 26 16 3 17 4 18 5 19 6 20 7 21 8 22 13 23
DOCKED: REMARK SMILES IDX 9 24 12 25 10 26 14 27 11 28
DOCKED: REMARK H PARENT 1 3
DOCKED: USER                              x       y       z     vdW  Elec       q    Type
DOCKED: USER                           _______ _______ _______ _____ _____    ______ ____
DOCKED: ROOT
DOCKED: ATOM      1  C   UNL     1     140.911  74.361 221.448 -0.29 -0.00    +0.023 C  
DOCKED: ENDROOT
DOCKED: BRANCH   1   2
DOCKED: ATOM      2  O   UNL     1     142.137  74.969 221.193 -0.10 +0.19    -0.530 OA 
DOCKED: ATOM      3  H   UNL     1     142.346  75.888 221.564 -0.42 -0.23    +0.290 HD 
DOCKED: ENDBRANCH   1   2
DOCKED: BRANCH   1   4
DOCKED: ATOM      4  N   UNL     1     140.895  73.006 221.917 -0.24 +0.03    -0.546 NA 
DOCKED: BRANCH   4   5
DOCKED: ATOM      5  N   UNL     1     140.315  72.638 223.140 -0.39 +0.03    -0.372 NA 
DOCKED: BRANCH   5   6
DOCKED: ATOM      6  C   UNL     1     140.224  71.407 223.547 -0.34 -0.01    +0.094 C  
DOCKED: BRANCH   6   7
DOCKED: ATOM      7  C   UNL     1     140.432  70.977 224.950 -0.51 +0.00    -0.009 A  
DOCKED: ATOM      8  C   UNL     1     140.815  71.937 225.898 -0.47 -0.00    +0.009 A  
DOCKED: ATOM      9  C   UNL     1     140.346  69.626 225.340 -0.43 -0.00    +0.022 A  
DOCKED: ATOM     10  C   UNL     1     141.073  71.565 227.218 -0.78 -0.00    +0.001 A  
DOCKED: ATOM     11  C   UNL     1     140.574  69.248 226.675 -0.52 -0.01    +0.056 A  
DOCKED: ATOM     12  C   UNL     1     140.960  70.228 227.606 -0.60 -0.00    +0.013 A  
DOCKED: BRANCH  11  13
DOCKED: ATOM     13  C   UNL     1     140.503  67.793 227.067 -0.29 -0.10    +0.416 C  
DOCKED: ATOM     14  F   UNL     1     141.129  67.620 228.288 -0.16 +0.06    -0.166 F  
DOCKED: ATOM     15  F   UNL     1     139.191  67.367 227.170 -0.20 +0.03    -0.166 F  
DOCKED: ATOM     16  F   UNL     1     141.139  67.010 226.118 -0.20 +0.05    -0.166 F  
DOCKED: ENDBRANCH  11  13
DOCKED: ENDBRANCH   6   7
DOCKED: ENDBRANCH   5   6
DOCKED: ENDBRANCH   4   5
DOCKED: ENDBRANCH   1   4
DOCKED: BRANCH   1  17
DOCKED: ATOM     17  C   UNL     1     139.772  75.044 221.259 -0.26 +0.00    -0.001 C  
DOCKED: BRANCH  17  18
DOCKED: ATOM     18  C   UNL     1     139.127  75.824 222.370 -0.28 -0.01    +0.071 C  
DOCKED: BRANCH  18  19
DOCKED: ATOM     19  C   UNL     1     139.837  77.151 222.664 -0.13 -0.05    +0.234 C  
DOCKED: BRANCH  19  20
DOCKED: ATOM     20  O   UNL     1     141.085  77.236 221.968 -0.15 +0.21    -0.492 OA 
DOCKED: BRANCH  20  21
DOCKED: ATOM     21  C   UNL     1     141.432  78.163 220.965 -0.26 -0.07    +0.137 A  
DOCKED: ATOM     22  C   UNL     1     141.478  77.834 219.593 -0.22 -0.03    +0.049 A  
DOCKED: ATOM     23  C   UNL     1     141.760  79.473 221.358 -0.35 -0.04    +0.084 A  
DOCKED: ATOM     24  C   UNL     1     141.831  78.799 218.645 -0.25 -0.02    +0.024 A  
DOCKED: ATOM     25  C   UNL     1     142.113  80.433 220.404 -0.26 -0.02    +0.045 A  
DOCKED: ATOM     26  C   UNL     1     142.148  80.099 219.048 -0.30 -0.03    +0.042 A  
DOCKED: ATOM     27  Cl  UNL     1     141.722  79.928 223.056 -0.72 +0.02    -0.080 Cl 
DOCKED: ATOM     28  Cl  UNL     1     142.590  81.306 217.854 -0.41 +0.07    -0.084 Cl 
DOCKED: ENDBRANCH  20  21
DOCKED: ENDBRANCH  19  20
DOCKED: ENDBRANCH  18  19
DOCKED: ENDBRANCH  17  18
DOCKED: ENDBRANCH   1  17
DOCKED: TORSDOF 11
DOCKED: TER
DOCKED: ENDMDL
________________________________________________________________________________


    FINAL DOCKED STATE:
    ________________________


Run:   10 / 20
Time taken for this run:   0.051s

DOCKED: MODEL        10
DOCKED: USER    Run = 10
DOCKED: USER
DOCKED: USER    Estimated Free Energy of Binding    =  -5.92 kcal/mol  [=(1)+(2)+(3)-(4)]
DOCKED: USER
DOCKED: USER    (1) Final Intermolecular Energy     =  -9.21 kcal/mol
DOCKED: USER        vdW + Hbond + desolv Energy     =  -9.37 kcal/mol
DOCKED: USER        Electrostatic Energy            =  +0.16 kcal/mol
DOCKED: USER        Moving Ligand-Fixed Receptor    =  -9.21 kcal/mol
DOCKED: USER        Moving Ligand-Moving Receptor   =  +0.00 kcal/mol
DOCKED: USER    (2) Final Total Internal Energy     =  -1.39 kcal/mol
DOCKED: USER    (3) Torsional Free Energy           =  +3.28 kcal/mol
DOCKED: USER    (4) Unbound System's Energy         =  -1.39 kcal/mol
DOCKED: USER
DOCKED: USER
DOCKED: REMARK SMILES O/C(=C\CCOc1ccc(Cl)cc1Cl)[N-]/N=C\c1cccc(C(F)(F)F)c1
DOCKED: REMARK SMILES IDX 2 1 1 2 15 4 16 5 17 6 18 7 19 8 27 9 20 10 22 11 21 12
DOCKED: REMARK SMILES IDX 23 13 24 14 25 15 26 16 3 17 4 18 5 19 6 20 7 21 8 22 13 23
DOCKED: REMARK SMILES IDX 9 24 12 25 10 26 14 27 11 28
DOCKED: REMARK H PARENT 1 3
DOCKED: USER                              x       y       z     vdW  Elec       q    Type
DOCKED: USER                           _______ _______ _______ _____ _____    ______ ____
DOCKED: ROOT
DOCKED: ATOM      1  C   UNL     1     139.573  74.237 221.988 -0.24 -0.00    +0.023 C  
DOCKED: ENDROOT
DOCKED: BRANCH   1   2
DOCKED: ATOM      2  O   UNL     1     140.965  74.277 221.989 -0.55 +0.01    -0.530 OA 
DOCKED: ATOM      3  H   UNL     1     141.460  75.082 221.624 +0.06 -0.07    +0.290 HD 
DOCKED: ENDBRANCH   1   2
DOCKED: BRANCH   1   4
DOCKED: ATOM      4  N   UNL     1     138.917  73.004 221.665 -0.05 +0.12    -0.546 NA 
DOCKED: BRANCH   4   5
DOCKED: ATOM      5  N   UNL     1     138.880  71.916 222.550 -0.10 +0.09    -0.372 NA 
DOCKED: BRANCH   5   6
DOCKED: ATOM      6  C   UNL     1     139.946  71.349 223.032 -0.30 -0.02    +0.094 C  
DOCKED: BRANCH   6   7
DOCKED: ATOM      7  C   UNL     1     140.041  70.782 224.398 -0.43 +0.00    -0.009 A  
DOCKED: ATOM      8  C   UNL     1     139.603  69.467 224.614 -0.35 -0.00    +0.009 A  
DOCKED: ATOM      9  C   UNL     1     140.472  71.550 225.498 -0.52 -0.00    +0.022 A  
DOCKED: ATOM     10  C   UNL     1     139.625  68.914 225.895 -0.50 -0.00    +0.001 A  
DOCKED: ATOM     11  C   UNL     1     140.528  70.989 226.786 -0.60 -0.01    +0.056 A  
DOCKED: ATOM     12  C   UNL     1     140.079  69.670 226.978 -0.55 -0.00    +0.013 A  
DOCKED: BRANCH  11  13
DOCKED: ATOM     13  C   UNL     1     140.967  71.834 227.956 -0.41 -0.10    +0.416 C  
DOCKED: ATOM     14  F   UNL     1     141.621  72.958 227.486 -0.30 +0.04    -0.166 F  
DOCKED: ATOM     15  F   UNL     1     139.883  72.231 228.720 -0.29 +0.06    -0.166 F  
DOCKED: ATOM     16  F   UNL     1     141.828  71.116 228.769 -0.16 +0.03    -0.166 F  
DOCKED: ENDBRANCH  11  13
DOCKED: ENDBRANCH   6   7
DOCKED: ENDBRANCH   5   6
DOCKED: ENDBRANCH   4   5
DOCKED: ENDBRANCH   1   4
DOCKED: BRANCH   1  17
DOCKED: ATOM     17  C   UNL     1     138.871  75.340 222.289 -0.24 +0.00    -0.001 C  
DOCKED: BRANCH  17  18
DOCKED: ATOM     18  C   UNL     1     138.538  76.371 221.246 -0.16 -0.02    +0.071 C  
DOCKED: BRANCH  18  19
DOCKED: ATOM     19  C   UNL     1     139.649  76.555 220.206 -0.06 -0.06    +0.234 C  
DOCKED: BRANCH  19  20
DOCKED: ATOM     20  O   UNL     1     140.922  76.744 220.834 -0.06 +0.20    -0.492 OA 
DOCKED: BRANCH  20  21
DOCKED: ATOM     21  C   UNL     1     141.302  77.814 221.668 -0.28 -0.07    +0.137 A  
DOCKED: ATOM     22  C   UNL     1     141.230  77.757 223.077 -0.39 -0.02    +0.049 A  
DOCKED: ATOM     23  C   UNL     1     141.765  78.996 221.062 -0.31 -0.05    +0.084 A  
DOCKED: ATOM     24  C   UNL     1     141.622  78.854 223.851 -0.59 -0.01    +0.024 A  
DOCKED: ATOM     25  C   UNL     1     142.155  80.089 221.842 -0.46 -0.02    +0.045 A  
DOCKED: ATOM     26  C   UNL     1     142.086  80.020 223.236 -0.59 -0.01    +0.042 A  
DOCKED: ATOM     27  Cl  UNL     1     141.868  79.115 219.311 -0.33 +0.05    -0.080 Cl 
DOCKED: ATOM     28  Cl  UNL     1     142.578  81.392 224.212 -0.60 +0.01    -0.084 Cl 
DOCKED: ENDBRANCH  20  21
DOCKED: ENDBRANCH  19  20
DOCKED: ENDBRANCH  18  19
DOCKED: ENDBRANCH  17  18
DOCKED: ENDBRANCH   1  17
DOCKED: TORSDOF 11
DOCKED: TER
DOCKED: ENDMDL
________________________________________________________________________________


    FINAL DOCKED STATE:
    ________________________


Run:   11 / 20
Time taken for this run:   0.051s

DOCKED: MODEL        11
DOCKED: USER    Run = 11
DOCKED: USER
DOCKED: USER    Estimated Free Energy of Binding    =  -6.07 kcal/mol  [=(1)+(2)+(3)-(4)]
DOCKED: USER
DOCKED: USER    (1) Final Intermolecular Energy     =  -9.35 kcal/mol
DOCKED: USER        vdW + Hbond + desolv Energy     =  -9.48 kcal/mol
DOCKED: USER        Electrostatic Energy            =  +0.12 kcal/mol
DOCKED: USER        Moving Ligand-Fixed Receptor    =  -9.35 kcal/mol
DOCKED: USER        Moving Ligand-Moving Receptor   =  +0.00 kcal/mol
DOCKED: USER    (2) Final Total Internal Energy     =  -1.20 kcal/mol
DOCKED: USER    (3) Torsional Free Energy           =  +3.28 kcal/mol
DOCKED: USER    (4) Unbound System's Energy         =  -1.20 kcal/mol
DOCKED: USER
DOCKED: USER
DOCKED: REMARK SMILES O/C(=C\CCOc1ccc(Cl)cc1Cl)[N-]/N=C\c1cccc(C(F)(F)F)c1
DOCKED: REMARK SMILES IDX 2 1 1 2 15 4 16 5 17 6 18 7 19 8 27 9 20 10 22 11 21 12
DOCKED: REMARK SMILES IDX 23 13 24 14 25 15 26 16 3 17 4 18 5 19 6 20 7 21 8 22 13 23
DOCKED: REMARK SMILES IDX 9 24 12 25 10 26 14 27 11 28
DOCKED: REMARK H PARENT 1 3
DOCKED: USER                              x       y       z     vdW  Elec       q    Type
DOCKED: USER                           _______ _______ _______ _____ _____    ______ ____
DOCKED: ROOT
DOCKED: ATOM      1  C   UNL     1     139.723  75.275 221.951 -0.30 -0.00    +0.023 C  
DOCKED: ENDROOT
DOCKED: BRANCH   1   2
DOCKED: ATOM      2  O   UNL     1     140.971  75.892 221.950 -0.25 +0.15    -0.530 OA 
DOCKED: ATOM      3  H   UNL     1     141.801  75.381 222.226 -0.21 -0.09    +0.290 HD 
DOCKED: ENDBRANCH   1   2
DOCKED: BRANCH   1   4
DOCKED: ATOM      4  N   UNL     1     139.633  73.899 222.342 -0.62 +0.08    -0.546 NA 
DOCKED: BRANCH   4   5
DOCKED: ATOM      5  N   UNL     1     140.760  73.071 222.452 -0.49 -0.01    -0.372 NA 
DOCKED: BRANCH   5   6
DOCKED: ATOM      6  C   UNL     1     140.690  71.788 222.647 -0.26 -0.01    +0.094 C  
DOCKED: BRANCH   6   7
DOCKED: ATOM      7  C   UNL     1     140.352  71.162 223.946 -0.41 +0.00    -0.009 A  
DOCKED: ATOM      8  C   UNL     1     139.483  70.061 223.958 -0.32 -0.00    +0.009 A  
DOCKED: ATOM      9  C   UNL     1     140.804  71.690 225.172 -0.44 -0.00    +0.022 A  
DOCKED: ATOM     10  C   UNL     1     139.097  69.475 225.164 -0.40 -0.00    +0.001 A  
DOCKED: ATOM     11  C   UNL     1     140.445  71.086 226.390 -0.58 -0.01    +0.056 A  
DOCKED: ATOM     12  C   UNL     1     139.569  69.986 226.375 -0.46 -0.00    +0.013 A  
DOCKED: BRANCH  11  13
DOCKED: ATOM     13  C   UNL     1     140.916  71.682 227.693 -0.41 -0.09    +0.416 C  
DOCKED: ATOM     14  F   UNL     1     141.525  70.699 228.450 -0.16 +0.03    -0.166 F  
DOCKED: ATOM     15  F   UNL     1     141.821  72.707 227.475 -0.33 +0.03    -0.166 F  
DOCKED: ATOM     16  F   UNL     1     139.842  72.197 228.399 -0.25 +0.05    -0.166 F  
DOCKED: ENDBRANCH  11  13
DOCKED: ENDBRANCH   6   7
DOCKED: ENDBRANCH   5   6
DOCKED: ENDBRANCH   4   5
DOCKED: ENDBRANCH   1   4
DOCKED: BRANCH   1  17
DOCKED: ATOM     17  C   UNL     1     138.632  75.970 221.594 -0.24 +0.00    -0.001 C  
DOCKED: BRANCH  17  18
DOCKED: ATOM     18  C   UNL     1     137.584  76.362 222.598 -0.26 -0.02    +0.071 C  
DOCKED: BRANCH  18  19
DOCKED: ATOM     19  C   UNL     1     136.977  77.743 222.326 -0.13 -0.04    +0.234 C  
DOCKED: BRANCH  19  20
DOCKED: ATOM     20  O   UNL     1     137.900  78.587 221.629 -0.01 +0.09    -0.492 OA 
DOCKED: BRANCH  20  21
DOCKED: ATOM     21  C   UNL     1     139.148  79.043 222.096 -0.18 -0.03    +0.137 A  
DOCKED: ATOM     22  C   UNL     1     139.360  79.492 223.418 -0.38 -0.01    +0.049 A  
DOCKED: ATOM     23  C   UNL     1     140.228  79.059 221.196 -0.18 -0.03    +0.084 A  
DOCKED: ATOM     24  C   UNL     1     140.624  79.934 223.822 -0.46 -0.00    +0.024 A  
DOCKED: ATOM     25  C   UNL     1     141.490  79.502 221.606 -0.37 -0.02    +0.045 A  
DOCKED: ATOM     26  C   UNL     1     141.689  79.939 222.919 -0.53 -0.01    +0.042 A  
DOCKED: ATOM     27  Cl  UNL     1     140.012  78.514 219.538 -0.12 +0.03    -0.080 Cl 
DOCKED: ATOM     28  Cl  UNL     1     143.273  80.493 223.431 -0.70 +0.02    -0.084 Cl 
DOCKED: ENDBRANCH  20  21
DOCKED: ENDBRANCH  19  20
DOCKED: ENDBRANCH  18  19
DOCKED: ENDBRANCH  17  18
DOCKED: ENDBRANCH   1  17
DOCKED: TORSDOF 11
DOCKED: TER
DOCKED: ENDMDL
________________________________________________________________________________


    FINAL DOCKED STATE:
    ________________________


Run:   12 / 20
Time taken for this run:   0.051s

DOCKED: MODEL        12
DOCKED: USER    Run = 12
DOCKED: USER
DOCKED: USER    Estimated Free Energy of Binding    =  -6.78 kcal/mol  [=(1)+(2)+(3)-(4)]
DOCKED: USER
DOCKED: USER    (1) Final Intermolecular Energy     = -10.06 kcal/mol
DOCKED: USER        vdW + Hbond + desolv Energy     = -10.09 kcal/mol
DOCKED: USER        Electrostatic Energy            =  +0.03 kcal/mol
DOCKED: USER        Moving Ligand-Fixed Receptor    = -10.06 kcal/mol
DOCKED: USER        Moving Ligand-Moving Receptor   =  +0.00 kcal/mol
DOCKED: USER    (2) Final Total Internal Energy     =  -1.07 kcal/mol
DOCKED: USER    (3) Torsional Free Energy           =  +3.28 kcal/mol
DOCKED: USER    (4) Unbound System's Energy         =  -1.07 kcal/mol
DOCKED: USER
DOCKED: USER
DOCKED: REMARK SMILES O/C(=C\CCOc1ccc(Cl)cc1Cl)[N-]/N=C\c1cccc(C(F)(F)F)c1
DOCKED: REMARK SMILES IDX 2 1 1 2 15 4 16 5 17 6 18 7 19 8 27 9 20 10 22 11 21 12
DOCKED: REMARK SMILES IDX 23 13 24 14 25 15 26 16 3 17 4 18 5 19 6 20 7 21 8 22 13 23
DOCKED: REMARK SMILES IDX 9 24 12 25 10 26 14 27 11 28
DOCKED: REMARK H PARENT 1 3
DOCKED: USER                              x       y       z     vdW  Elec       q    Type
DOCKED: USER                           _______ _______ _______ _____ _____    ______ ____
DOCKED: ROOT
DOCKED: ATOM      1  C   UNL     1     140.657  74.372 221.896 -0.11 -0.00    +0.023 C  
DOCKED: ENDROOT
DOCKED: BRANCH   1   2
DOCKED: ATOM      2  O   UNL     1     139.594  75.138 222.368 -0.53 +0.07    -0.530 OA 
DOCKED: ATOM      3  H   UNL     1     138.897  74.732 222.982 -0.46 -0.12    +0.290 HD 
DOCKED: ENDBRANCH   1   2
DOCKED: BRANCH   1   4
DOCKED: ATOM      4  N   UNL     1     140.738  72.992 222.277 -0.43 +0.01    -0.546 NA 
DOCKED: BRANCH   4   5
DOCKED: ATOM      5  N   UNL     1     139.738  72.359 223.031 -0.26 +0.08    -0.372 NA 
DOCKED: BRANCH   5   6
DOCKED: ATOM      6  C   UNL     1     139.859  71.158 223.513 -0.33 -0.02    +0.094 C  
DOCKED: BRANCH   6   7
DOCKED: ATOM      7  C   UNL     1     140.206  70.858 224.922 -0.49 +0.00    -0.009 A  
DOCKED: ATOM      8  C   UNL     1     140.683  71.898 225.733 -0.47 -0.00    +0.009 A  
DOCKED: ATOM      9  C   UNL     1     140.157  69.551 225.444 -0.43 -0.00    +0.022 A  
DOCKED: ATOM     10  C   UNL     1     141.072  71.648 227.050 -0.77 -0.00    +0.001 A  
DOCKED: ATOM     11  C   UNL     1     140.516  69.297 226.780 -0.53 -0.01    +0.056 A  
DOCKED: ATOM     12  C   UNL     1     140.995  70.355 227.571 -0.61 -0.00    +0.013 A  
DOCKED: BRANCH  11  13
DOCKED: ATOM     13  C   UNL     1     140.482  67.885 227.312 -0.25 -0.11    +0.416 C  
DOCKED: ATOM     14  F   UNL     1     139.189  67.402 227.239 -0.20 +0.03    -0.166 F  
DOCKED: ATOM     15  F   UNL     1     141.315  67.056 226.581 -0.13 +0.05    -0.166 F  
DOCKED: ATOM     16  F   UNL     1     140.900  67.862 228.632 -0.22 +0.05    -0.166 F  
DOCKED: ENDBRANCH  11  13
DOCKED: ENDBRANCH   6   7
DOCKED: ENDBRANCH   5   6
DOCKED: ENDBRANCH   4   5
DOCKED: ENDBRANCH   1   4
DOCKED: BRANCH   1  17
DOCKED: ATOM     17  C   UNL     1     141.579  74.928 221.096 -0.30 +0.00    -0.001 C  
DOCKED: BRANCH  17  18
DOCKED: ATOM     18  C   UNL     1     141.254  75.346 219.689 -0.15 -0.02    +0.071 C  
DOCKED: BRANCH  18  19
DOCKED: ATOM     19  C   UNL     1     140.183  76.440 219.619 -0.05 -0.07    +0.234 C  
DOCKED: BRANCH  19  20
DOCKED: ATOM     20  O   UNL     1     140.773  77.743 219.585 -0.00 +0.20    -0.492 OA 
DOCKED: BRANCH  20  21
DOCKED: ATOM     21  C   UNL     1     141.181  78.516 220.690 -0.22 -0.06    +0.137 A  
DOCKED: ATOM     22  C   UNL     1     141.146  78.042 222.019 -0.38 -0.02    +0.049 A  
DOCKED: ATOM     23  C   UNL     1     141.633  79.827 220.452 -0.28 -0.04    +0.084 A  
DOCKED: ATOM     24  C   UNL     1     141.565  78.858 223.074 -0.55 -0.01    +0.024 A  
DOCKED: ATOM     25  C   UNL     1     142.050  80.638 221.512 -0.40 -0.02    +0.045 A  
DOCKED: ATOM     26  C   UNL     1     142.017  80.156 222.823 -0.56 -0.01    +0.042 A  
DOCKED: ATOM     27  Cl  UNL     1     141.690  80.464 218.814 -0.34 +0.04    -0.080 Cl 
DOCKED: ATOM     28  Cl  UNL     1     142.542  81.176 224.150 -0.65 +0.01    -0.084 Cl 
DOCKED: ENDBRANCH  20  21
DOCKED: ENDBRANCH  19  20
DOCKED: ENDBRANCH  18  19
DOCKED: ENDBRANCH  17  18
DOCKED: ENDBRANCH   1  17
DOCKED: TORSDOF 11
DOCKED: TER
DOCKED: ENDMDL
________________________________________________________________________________


    FINAL DOCKED STATE:
    ________________________


Run:   13 / 20
Time taken for this run:   0.051s

DOCKED: MODEL        13
DOCKED: USER    Run = 13
DOCKED: USER
DOCKED: USER    Estimated Free Energy of Binding    =  -6.39 kcal/mol  [=(1)+(2)+(3)-(4)]
DOCKED: USER
DOCKED: USER    (1) Final Intermolecular Energy     =  -9.67 kcal/mol
DOCKED: USER        vdW + Hbond + desolv Energy     =  -9.75 kcal/mol
DOCKED: USER        Electrostatic Energy            =  +0.08 kcal/mol
DOCKED: USER        Moving Ligand-Fixed Receptor    =  -9.67 kcal/mol
DOCKED: USER        Moving Ligand-Moving Receptor   =  +0.00 kcal/mol
DOCKED: USER    (2) Final Total Internal Energy     =  -1.33 kcal/mol
DOCKED: USER    (3) Torsional Free Energy           =  +3.28 kcal/mol
DOCKED: USER    (4) Unbound System's Energy         =  -1.33 kcal/mol
DOCKED: USER
DOCKED: USER
DOCKED: REMARK SMILES O/C(=C\CCOc1ccc(Cl)cc1Cl)[N-]/N=C\c1cccc(C(F)(F)F)c1
DOCKED: REMARK SMILES IDX 2 1 1 2 15 4 16 5 17 6 18 7 19 8 27 9 20 10 22 11 21 12
DOCKED: REMARK SMILES IDX 23 13 24 14 25 15 26 16 3 17 4 18 5 19 6 20 7 21 8 22 13 23
DOCKED: REMARK SMILES IDX 9 24 12 25 10 26 14 27 11 28
DOCKED: REMARK H PARENT 1 3
DOCKED: USER                              x       y       z     vdW  Elec       q    Type
DOCKED: USER                           _______ _______ _______ _____ _____    ______ ____
DOCKED: ROOT
DOCKED: ATOM      1  C   UNL     1     140.089  71.841 221.987 -0.26 -0.00    +0.023 C  
DOCKED: ENDROOT
DOCKED: BRANCH   1   2
DOCKED: ATOM      2  O   UNL     1     140.130  72.640 223.127 -0.41 +0.06    -0.530 OA 
DOCKED: ATOM      3  H   UNL     1     139.566  73.480 223.191 -0.41 -0.07    +0.290 HD 
DOCKED: ENDBRANCH   1   2
DOCKED: BRANCH   1   4
DOCKED: ATOM      4  N   UNL     1     139.232  70.692 221.980 +0.00 +0.10    -0.546 NA 
DOCKED: BRANCH   4   5
DOCKED: ATOM      5  N   UNL     1     139.378  69.637 222.893 -0.05 +0.07    -0.372 NA 
DOCKED: BRANCH   5   6
DOCKED: ATOM      6  C   UNL     1     138.848  69.640 224.081 -0.28 -0.01    +0.094 C  
DOCKED: BRANCH   6   7
DOCKED: ATOM      7  C   UNL     1     139.626  69.548 225.339 -0.42 +0.00    -0.009 A  
DOCKED: ATOM      8  C   UNL     1     139.943  68.278 225.843 -0.55 -0.00    +0.009 A  
DOCKED: ATOM      9  C   UNL     1     139.979  70.689 226.086 -0.51 -0.00    +0.022 A  
DOCKED: ATOM     10  C   UNL     1     140.628  68.146 227.052 -0.68 -0.00    +0.001 A  
DOCKED: ATOM     11  C   UNL     1     140.697  70.565 227.289 -0.60 -0.01    +0.056 A  
DOCKED: ATOM     12  C   UNL     1     140.999  69.281 227.776 -0.60 -0.00    +0.013 A  
DOCKED: BRANCH  11  13
DOCKED: ATOM     13  C   UNL     1     141.042  71.797 228.089 -0.37 -0.10    +0.416 C  
DOCKED: ATOM     14  F   UNL     1     139.903  72.264 228.718 -0.29 +0.06    -0.166 F  
DOCKED: ATOM     15  F   UNL     1     142.002  71.518 229.045 -0.17 +0.04    -0.166 F  
DOCKED: ATOM     16  F   UNL     1     141.536  72.786 227.255 -0.33 +0.04    -0.166 F  
DOCKED: ENDBRANCH  11  13
DOCKED: ENDBRANCH   6   7
DOCKED: ENDBRANCH   5   6
DOCKED: ENDBRANCH   4   5
DOCKED: ENDBRANCH   1   4
DOCKED: BRANCH   1  17
DOCKED: ATOM     17  C   UNL     1     140.840  72.156 220.921 -0.20 +0.00    -0.001 C  
DOCKED: BRANCH  17  18
DOCKED: ATOM     18  C   UNL     1     140.765  73.512 220.277 -0.14 -0.01    +0.071 C  
DOCKED: BRANCH  18  19
DOCKED: ATOM     19  C   UNL     1     141.337  74.628 221.159 -0.20 -0.05    +0.234 C  
DOCKED: BRANCH  19  20
DOCKED: ATOM     20  O   UNL     1     140.355  75.120 222.076 -0.55 +0.05    -0.492 OA 
DOCKED: BRANCH  20  21
DOCKED: ATOM     21  C   UNL     1     140.102  76.467 222.403 -0.30 -0.03    +0.137 A  
DOCKED: ATOM     22  C   UNL     1     141.126  77.402 222.668 -0.37 -0.02    +0.049 A  
DOCKED: ATOM     23  C   UNL     1     138.763  76.891 222.479 -0.27 -0.02    +0.084 A  
DOCKED: ATOM     24  C   UNL     1     140.810  78.726 222.988 -0.47 -0.01    +0.024 A  
DOCKED: ATOM     25  C   UNL     1     138.454  78.216 222.800 -0.26 -0.01    +0.045 A  
DOCKED: ATOM     26  C   UNL     1     139.476  79.135 223.054 -0.35 -0.01    +0.042 A  
DOCKED: ATOM     27  Cl  UNL     1     137.454  75.760 222.162 -0.29 +0.02    -0.080 Cl 
DOCKED: ATOM     28  Cl  UNL     1     139.085  80.798 223.454 -0.45 +0.01    -0.084 Cl 
DOCKED: ENDBRANCH  20  21
DOCKED: ENDBRANCH  19  20
DOCKED: ENDBRANCH  18  19
DOCKED: ENDBRANCH  17  18
DOCKED: ENDBRANCH   1  17
DOCKED: TORSDOF 11
DOCKED: TER
DOCKED: ENDMDL
________________________________________________________________________________


    FINAL DOCKED STATE:
    ________________________


Run:   14 / 20
Time taken for this run:   0.051s

DOCKED: MODEL        14
DOCKED: USER    Run = 14
DOCKED: USER
DOCKED: USER    Estimated Free Energy of Binding    =  -5.54 kcal/mol  [=(1)+(2)+(3)-(4)]
DOCKED: USER
DOCKED: USER    (1) Final Intermolecular Energy     =  -8.82 kcal/mol
DOCKED: USER        vdW + Hbond + desolv Energy     =  -8.83 kcal/mol
DOCKED: USER        Electrostatic Energy            =  +0.01 kcal/mol
DOCKED: USER        Moving Ligand-Fixed Receptor    =  -8.82 kcal/mol
DOCKED: USER        Moving Ligand-Moving Receptor   =  +0.00 kcal/mol
DOCKED: USER    (2) Final Total Internal Energy     =  -1.57 kcal/mol
DOCKED: USER    (3) Torsional Free Energy           =  +3.28 kcal/mol
DOCKED: USER    (4) Unbound System's Energy         =  -1.57 kcal/mol
DOCKED: USER
DOCKED: USER
DOCKED: REMARK SMILES O/C(=C\CCOc1ccc(Cl)cc1Cl)[N-]/N=C\c1cccc(C(F)(F)F)c1
DOCKED: REMARK SMILES IDX 2 1 1 2 15 4 16 5 17 6 18 7 19 8 27 9 20 10 22 11 21 12
DOCKED: REMARK SMILES IDX 23 13 24 14 25 15 26 16 3 17 4 18 5 19 6 20 7 21 8 22 13 23
DOCKED: REMARK SMILES IDX 9 24 12 25 10 26 14 27 11 28
DOCKED: REMARK H PARENT 1 3
DOCKED: USER                              x       y       z     vdW  Elec       q    Type
DOCKED: USER                           _______ _______ _______ _____ _____    ______ ____
DOCKED: ROOT
DOCKED: ATOM      1  C   UNL     1     140.092  75.174 221.959 -0.27 -0.00    +0.023 C  
DOCKED: ENDROOT
DOCKED: BRANCH   1   2
DOCKED: ATOM      2  O   UNL     1     141.448  75.336 221.684 -0.22 +0.15    -0.530 OA 
DOCKED: ATOM      3  H   UNL     1     142.003  76.012 222.195 -0.44 -0.20    +0.290 HD 
DOCKED: ENDBRANCH   1   2
DOCKED: BRANCH   1   4
DOCKED: ATOM      4  N   UNL     1     139.616  73.879 222.347 -0.62 +0.08    -0.546 NA 
DOCKED: BRANCH   4   5
DOCKED: ATOM      5  N   UNL     1     140.479  72.843 222.735 -0.48 +0.01    -0.372 NA 
DOCKED: BRANCH   5   6
DOCKED: ATOM      6  C   UNL     1     140.087  71.618 222.927 -0.30 -0.01    +0.094 C  
DOCKED: BRANCH   6   7
DOCKED: ATOM      7  C   UNL     1     139.968  70.983 224.261 -0.43 +0.00    -0.009 A  
DOCKED: ATOM      8  C   UNL     1     139.208  69.810 224.382 -0.34 -0.00    +0.009 A  
DOCKED: ATOM      9  C   UNL     1     140.518  71.566 225.419 -0.52 -0.00    +0.022 A  
DOCKED: ATOM     10  C   UNL     1     139.027  69.210 225.629 -0.44 -0.00    +0.001 A  
DOCKED: ATOM     11  C   UNL     1     140.367  70.949 226.674 -0.57 -0.01    +0.056 A  
DOCKED: ATOM     12  C   UNL     1     139.597  69.776 226.771 -0.50 -0.00    +0.013 A  
DOCKED: BRANCH  11  13
DOCKED: ATOM     13  C   UNL     1     140.940  71.603 227.907 -0.40 -0.09    +0.416 C  
DOCKED: ATOM     14  F   UNL     1     139.912  72.153 228.650 -0.29 +0.05    -0.166 F  
DOCKED: ATOM     15  F   UNL     1     141.618  70.684 228.690 -0.14 +0.03    -0.166 F  
DOCKED: ATOM     16  F   UNL     1     141.827  72.604 227.549 -0.34 +0.03    -0.166 F  
DOCKED: ENDBRANCH  11  13
DOCKED: ENDBRANCH   6   7
DOCKED: ENDBRANCH   5   6
DOCKED: ENDBRANCH   4   5
DOCKED: ENDBRANCH   1   4
DOCKED: BRANCH   1  17
DOCKED: ATOM     17  C   UNL     1     139.260  76.221 221.863 -0.31 +0.00    -0.001 C  
DOCKED: BRANCH  17  18
DOCKED: ATOM     18  C   UNL     1     137.773  76.037 221.736 -0.19 -0.02    +0.071 C  
DOCKED: BRANCH  18  19
DOCKED: ATOM     19  C   UNL     1     137.047  76.067 223.086 -0.17 -0.06    +0.234 C  
DOCKED: BRANCH  19  20
DOCKED: ATOM     20  O   UNL     1     135.891  75.222 223.071 -0.08 +0.11    -0.492 OA 
DOCKED: BRANCH  20  21
DOCKED: ATOM     21  C   UNL     1     135.836  73.858 223.417 -0.16 -0.04    +0.137 A  
DOCKED: ATOM     22  C   UNL     1     136.484  72.847 222.674 -0.15 -0.01    +0.049 A  
DOCKED: ATOM     23  C   UNL     1     135.088  73.489 224.549 -0.24 -0.01    +0.084 A  
DOCKED: ATOM     24  C   UNL     1     136.392  71.508 223.067 -0.15 -0.00    +0.024 A  
DOCKED: ATOM     25  C   UNL     1     134.999  72.149 224.937 -0.17 -0.00    +0.045 A  
DOCKED: ATOM     26  C   UNL     1     135.651  71.157 224.198 -0.18 -0.01    +0.042 A  
DOCKED: ATOM     27  Cl  UNL     1     134.259  74.712 225.503 -0.45 +0.00    -0.080 Cl 
DOCKED: ATOM     28  Cl  UNL     1     135.538  69.477 224.689 -0.28 +0.00    -0.084 Cl 
DOCKED: ENDBRANCH  20  21
DOCKED: ENDBRANCH  19  20
DOCKED: ENDBRANCH  18  19
DOCKED: ENDBRANCH  17  18
DOCKED: ENDBRANCH   1  17
DOCKED: TORSDOF 11
DOCKED: TER
DOCKED: ENDMDL
________________________________________________________________________________


    FINAL DOCKED STATE:
    ________________________


Run:   15 / 20
Time taken for this run:   0.051s

DOCKED: MODEL        15
DOCKED: USER    Run = 15
DOCKED: USER
DOCKED: USER    Estimated Free Energy of Binding    =  -6.97 kcal/mol  [=(1)+(2)+(3)-(4)]
DOCKED: USER
DOCKED: USER    (1) Final Intermolecular Energy     = -10.25 kcal/mol
DOCKED: USER        vdW + Hbond + desolv Energy     = -10.24 kcal/mol
DOCKED: USER        Electrostatic Energy            =  -0.01 kcal/mol
DOCKED: USER        Moving Ligand-Fixed Receptor    = -10.25 kcal/mol
DOCKED: USER        Moving Ligand-Moving Receptor   =  +0.00 kcal/mol
DOCKED: USER    (2) Final Total Internal Energy     =  -0.90 kcal/mol
DOCKED: USER    (3) Torsional Free Energy           =  +3.28 kcal/mol
DOCKED: USER    (4) Unbound System's Energy         =  -0.90 kcal/mol
DOCKED: USER
DOCKED: USER
DOCKED: REMARK SMILES O/C(=C\CCOc1ccc(Cl)cc1Cl)[N-]/N=C\c1cccc(C(F)(F)F)c1
DOCKED: REMARK SMILES IDX 2 1 1 2 15 4 16 5 17 6 18 7 19 8 27 9 20 10 22 11 21 12
DOCKED: REMARK SMILES IDX 23 13 24 14 25 15 26 16 3 17 4 18 5 19 6 20 7 21 8 22 13 23
DOCKED: REMARK SMILES IDX 9 24 12 25 10 26 14 27 11 28
DOCKED: REMARK H PARENT 1 3
DOCKED: USER                              x       y       z     vdW  Elec       q    Type
DOCKED: USER                           _______ _______ _______ _____ _____    ______ ____
DOCKED: ROOT
DOCKED: ATOM      1  C   UNL     1     140.094  74.377 221.634 -0.28 -0.00    +0.023 C  
DOCKED: ENDROOT
DOCKED: BRANCH   1   2
DOCKED: ATOM      2  O   UNL     1     138.933  74.892 222.204 -0.28 +0.13    -0.530 OA 
DOCKED: ATOM      3  H   UNL     1     138.533  74.469 223.034 -0.49 -0.18    +0.290 HD 
DOCKED: ENDBRANCH   1   2
DOCKED: BRANCH   1   4
DOCKED: ATOM      4  N   UNL     1     140.778  73.308 222.302 -0.46 -0.01    -0.546 NA 
DOCKED: BRANCH   4   5
DOCKED: ATOM      5  N   UNL     1     140.208  72.602 223.372 -0.24 +0.04    -0.372 NA 
DOCKED: BRANCH   5   6
DOCKED: ATOM      6  C   UNL     1     140.721  71.514 223.865 -0.28 -0.01    +0.094 C  
DOCKED: BRANCH   6   7
DOCKED: ATOM      7  C   UNL     1     140.735  71.182 225.309 -0.56 +0.00    -0.009 A  
DOCKED: ATOM      8  C   UNL     1     141.035  72.196 226.231 -0.39 -0.00    +0.009 A  
DOCKED: ATOM      9  C   UNL     1     140.545  69.866 225.777 -0.49 -0.00    +0.022 A  
DOCKED: ATOM     10  C   UNL     1     141.111  71.913 227.595 -0.84 -0.00    +0.001 A  
DOCKED: ATOM     11  C   UNL     1     140.588  69.580 227.153 -0.54 -0.01    +0.056 A  
DOCKED: ATOM     12  C   UNL     1     140.895  70.613 228.057 -0.64 -0.00    +0.013 A  
DOCKED: BRANCH  11  13
DOCKED: ATOM     13  C   UNL     1     140.409  68.161 227.632 -0.29 -0.10    +0.416 C  
DOCKED: ATOM     14  F   UNL     1     139.218  67.661 227.140 -0.20 +0.02    -0.166 F  
DOCKED: ATOM     15  F   UNL     1     141.448  67.354 227.201 -0.16 +0.05    -0.166 F  
DOCKED: ATOM     16  F   UNL     1     140.378  68.124 229.016 -0.22 +0.04    -0.166 F  
DOCKED: ENDBRANCH  11  13
DOCKED: ENDBRANCH   6   7
DOCKED: ENDBRANCH   5   6
DOCKED: ENDBRANCH   4   5
DOCKED: ENDBRANCH   1   4
DOCKED: BRANCH   1  17
DOCKED: ATOM     17  C   UNL     1     140.552  74.879 220.477 -0.20 +0.00    -0.001 C  
DOCKED: BRANCH  17  18
DOCKED: ATOM     18  C   UNL     1     140.420  76.340 220.145 -0.15 -0.02    +0.071 C  
DOCKED: BRANCH  18  19
DOCKED: ATOM     19  C   UNL     1     141.476  77.210 220.834 -0.19 -0.12    +0.234 C  
DOCKED: BRANCH  19  20
DOCKED: ATOM     20  O   UNL     1     141.158  77.417 222.215 -0.15 +0.22    -0.492 OA 
DOCKED: BRANCH  20  21
DOCKED: ATOM     21  C   UNL     1     140.232  78.339 222.740 -0.33 -0.03    +0.137 A  
DOCKED: ATOM     22  C   UNL     1     138.837  78.120 222.733 -0.28 -0.01    +0.049 A  
DOCKED: ATOM     23  C   UNL     1     140.725  79.538 223.285 -0.43 -0.02    +0.084 A  
DOCKED: ATOM     24  C   UNL     1     137.967  79.075 223.269 -0.20 -0.00    +0.024 A  
DOCKED: ATOM     25  C   UNL     1     139.850  80.489 223.819 -0.39 -0.01    +0.045 A  
DOCKED: ATOM     26  C   UNL     1     138.472  80.259 223.813 -0.37 -0.00    +0.042 A  
DOCKED: ATOM     27  Cl  UNL     1     142.454  79.857 223.311 -0.78 +0.02    -0.080 Cl 
DOCKED: ATOM     28  Cl  UNL     1     137.377  81.454 224.486 -0.40 +0.01    -0.084 Cl 
DOCKED: ENDBRANCH  20  21
DOCKED: ENDBRANCH  19  20
DOCKED: ENDBRANCH  18  19
DOCKED: ENDBRANCH  17  18
DOCKED: ENDBRANCH   1  17
DOCKED: TORSDOF 11
DOCKED: TER
DOCKED: ENDMDL
________________________________________________________________________________


    FINAL DOCKED STATE:
    ________________________


Run:   16 / 20
Time taken for this run:   0.051s

DOCKED: MODEL        16
DOCKED: USER    Run = 16
DOCKED: USER
DOCKED: USER    Estimated Free Energy of Binding    =  -6.27 kcal/mol  [=(1)+(2)+(3)-(4)]
DOCKED: USER
DOCKED: USER    (1) Final Intermolecular Energy     =  -9.55 kcal/mol
DOCKED: USER        vdW + Hbond + desolv Energy     =  -9.66 kcal/mol
DOCKED: USER        Electrostatic Energy            =  +0.11 kcal/mol
DOCKED: USER        Moving Ligand-Fixed Receptor    =  -9.55 kcal/mol
DOCKED: USER        Moving Ligand-Moving Receptor   =  +0.00 kcal/mol
DOCKED: USER    (2) Final Total Internal Energy     =  -0.54 kcal/mol
DOCKED: USER    (3) Torsional Free Energy           =  +3.28 kcal/mol
DOCKED: USER    (4) Unbound System's Energy         =  -0.54 kcal/mol
DOCKED: USER
DOCKED: USER
DOCKED: REMARK SMILES O/C(=C\CCOc1ccc(Cl)cc1Cl)[N-]/N=C\c1cccc(C(F)(F)F)c1
DOCKED: REMARK SMILES IDX 2 1 1 2 15 4 16 5 17 6 18 7 19 8 27 9 20 10 22 11 21 12
DOCKED: REMARK SMILES IDX 23 13 24 14 25 15 26 16 3 17 4 18 5 19 6 20 7 21 8 22 13 23
DOCKED: REMARK SMILES IDX 9 24 12 25 10 26 14 27 11 28
DOCKED: REMARK H PARENT 1 3
DOCKED: USER                              x       y       z     vdW  Elec       q    Type
DOCKED: USER                           _______ _______ _______ _____ _____    ______ ____
DOCKED: ROOT
DOCKED: ATOM      1  C   UNL     1     139.265  71.331 223.035 -0.29 -0.00    +0.023 C  
DOCKED: ENDROOT
DOCKED: BRANCH   1   2
DOCKED: ATOM      2  O   UNL     1     137.956  71.599 223.425 -0.06 +0.16    -0.530 OA 
DOCKED: ATOM      3  H   UNL     1     137.703  72.505 223.803 -0.41 -0.18    +0.290 HD 
DOCKED: ENDBRANCH   1   2
DOCKED: BRANCH   1   4
DOCKED: ATOM      4  N   UNL     1     139.841  70.061 223.370 +0.04 +0.09    -0.546 NA 
DOCKED: BRANCH   4   5
DOCKED: ATOM      5  N   UNL     1     139.059  68.926 223.635 -0.09 +0.06    -0.372 NA 
DOCKED: BRANCH   5   6
DOCKED: ATOM      6  C   UNL     1     138.830  68.480 224.835 -0.34 -0.01    +0.094 C  
DOCKED: BRANCH   6   7
DOCKED: ATOM      7  C   UNL     1     139.670  68.795 226.014 -0.51 +0.00    -0.009 A  
DOCKED: ATOM      8  C   UNL     1     140.204  67.736 226.763 -0.67 -0.00    +0.009 A  
DOCKED: ATOM      9  C   UNL     1     139.875  70.117 226.455 -0.49 -0.00    +0.022 A  
DOCKED: ATOM     10  C   UNL     1     140.956  67.989 227.911 -0.61 -0.00    +0.001 A  
DOCKED: ATOM     11  C   UNL     1     140.659  70.381 227.593 -0.59 -0.01    +0.056 A  
DOCKED: ATOM     12  C   UNL     1     141.180  69.302 228.329 -0.55 -0.00    +0.013 A  
DOCKED: BRANCH  11  13
DOCKED: ATOM     13  C   UNL     1     140.845  71.801 228.065 -0.38 -0.10    +0.416 C  
DOCKED: ATOM     14  F   UNL     1     141.091  72.615 226.975 -0.31 +0.03    -0.166 F  
DOCKED: ATOM     15  F   UNL     1     139.717  72.260 228.724 -0.27 +0.06    -0.166 F  
DOCKED: ATOM     16  F   UNL     1     141.917  71.879 228.939 -0.20 +0.04    -0.166 F  
DOCKED: ENDBRANCH  11  13
DOCKED: ENDBRANCH   6   7
DOCKED: ENDBRANCH   5   6
DOCKED: ENDBRANCH   4   5
DOCKED: ENDBRANCH   1   4
DOCKED: BRANCH   1  17
DOCKED: ATOM     17  C   UNL     1     139.963  72.253 222.354 -0.31 +0.00    -0.001 C  
DOCKED: BRANCH  17  18
DOCKED: ATOM     18  C   UNL     1     139.330  73.075 221.266 -0.17 -0.01    +0.071 C  
DOCKED: BRANCH  18  19
DOCKED: ATOM     19  C   UNL     1     139.901  74.495 221.177 -0.18 -0.04    +0.234 C  
DOCKED: BRANCH  19  20
DOCKED: ATOM     20  O   UNL     1     139.405  75.321 222.236 -0.40 +0.09    -0.492 OA 
DOCKED: BRANCH  20  21
DOCKED: ATOM     21  C   UNL     1     139.743  76.665 222.489 -0.25 -0.03    +0.137 A  
DOCKED: ATOM     22  C   UNL     1     141.077  77.123 222.574 -0.37 -0.02    +0.049 A  
DOCKED: ATOM     23  C   UNL     1     138.699  77.588 222.676 -0.27 -0.01    +0.084 A  
DOCKED: ATOM     24  C   UNL     1     141.348  78.471 222.829 -0.50 -0.01    +0.024 A  
DOCKED: ATOM     25  C   UNL     1     138.977  78.935 222.931 -0.30 -0.01    +0.045 A  
DOCKED: ATOM     26  C   UNL     1     140.301  79.378 223.006 -0.40 -0.01    +0.042 A  
DOCKED: ATOM     27  Cl  UNL     1     137.023  77.064 222.584 -0.28 +0.01    -0.080 Cl 
DOCKED: ATOM     28  Cl  UNL     1     140.646  81.068 223.324 -0.48 +0.01    -0.084 Cl 
DOCKED: ENDBRANCH  20  21
DOCKED: ENDBRANCH  19  20
DOCKED: ENDBRANCH  18  19
DOCKED: ENDBRANCH  17  18
DOCKED: ENDBRANCH   1  17
DOCKED: TORSDOF 11
DOCKED: TER
DOCKED: ENDMDL
________________________________________________________________________________


    FINAL DOCKED STATE:
    ________________________


Run:   17 / 20
Time taken for this run:   0.051s

DOCKED: MODEL        17
DOCKED: USER    Run = 17
DOCKED: USER
DOCKED: USER    Estimated Free Energy of Binding    =  -5.99 kcal/mol  [=(1)+(2)+(3)-(4)]
DOCKED: USER
DOCKED: USER    (1) Final Intermolecular Energy     =  -9.27 kcal/mol
DOCKED: USER        vdW + Hbond + desolv Energy     =  -9.38 kcal/mol
DOCKED: USER        Electrostatic Energy            =  +0.11 kcal/mol
DOCKED: USER        Moving Ligand-Fixed Receptor    =  -9.27 kcal/mol
DOCKED: USER        Moving Ligand-Moving Receptor   =  +0.00 kcal/mol
DOCKED: USER    (2) Final Total Internal Energy     =  -0.66 kcal/mol
DOCKED: USER    (3) Torsional Free Energy           =  +3.28 kcal/mol
DOCKED: USER    (4) Unbound System's Energy         =  -0.66 kcal/mol
DOCKED: USER
DOCKED: USER
DOCKED: REMARK SMILES O/C(=C\CCOc1ccc(Cl)cc1Cl)[N-]/N=C\c1cccc(C(F)(F)F)c1
DOCKED: REMARK SMILES IDX 2 1 1 2 15 4 16 5 17 6 18 7 19 8 27 9 20 10 22 11 21 12
DOCKED: REMARK SMILES IDX 23 13 24 14 25 15 26 16 3 17 4 18 5 19 6 20 7 21 8 22 13 23
DOCKED: REMARK SMILES IDX 9 24 12 25 10 26 14 27 11 28
DOCKED: REMARK H PARENT 1 3
DOCKED: USER                              x       y       z     vdW  Elec       q    Type
DOCKED: USER                           _______ _______ _______ _____ _____    ______ ____
DOCKED: ROOT
DOCKED: ATOM      1  C   UNL     1     138.353  74.340 221.950 -0.17 -0.01    +0.023 C  
DOCKED: ENDROOT
DOCKED: BRANCH   1   2
DOCKED: ATOM      2  O   UNL     1     137.102  73.874 222.344 -0.04 +0.18    -0.530 OA 
DOCKED: ATOM      3  H   UNL     1     136.944  73.557 223.294 -0.43 -0.15    +0.290 HD 
DOCKED: ENDBRANCH   1   2
DOCKED: BRANCH   1   4
DOCKED: ATOM      4  N   UNL     1     139.405  73.392 221.725 -0.16 +0.11    -0.546 NA 
DOCKED: BRANCH   4   5
DOCKED: ATOM      5  N   UNL     1     140.315  73.025 222.728 -0.55 +0.01    -0.372 NA 
DOCKED: BRANCH   5   6
DOCKED: ATOM      6  C   UNL     1     140.651  71.793 222.974 -0.27 -0.01    +0.094 C  
DOCKED: BRANCH   6   7
DOCKED: ATOM      7  C   UNL     1     140.389  71.100 224.257 -0.44 +0.00    -0.009 A  
DOCKED: ATOM      8  C   UNL     1     139.602  69.939 224.246 -0.34 -0.00    +0.009 A  
DOCKED: ATOM      9  C   UNL     1     140.830  71.617 225.491 -0.53 -0.00    +0.022 A  
DOCKED: ATOM     10  C   UNL     1     139.288  69.285 225.439 -0.43 -0.00    +0.001 A  
DOCKED: ATOM     11  C   UNL     1     140.544  70.947 226.694 -0.59 -0.01    +0.056 A  
DOCKED: ATOM     12  C   UNL     1     139.749  69.787 226.657 -0.51 -0.00    +0.013 A  
DOCKED: BRANCH  11  13
DOCKED: ATOM     13  C   UNL     1     141.001  71.531 228.007 -0.39 -0.09    +0.416 C  
DOCKED: ATOM     14  F   UNL     1     139.896  71.932 228.736 -0.29 +0.05    -0.166 F  
DOCKED: ATOM     15  F   UNL     1     141.713  70.602 228.746 -0.11 +0.03    -0.166 F  
DOCKED: ATOM     16  F   UNL     1     141.818  72.626 227.785 -0.31 +0.04    -0.166 F  
DOCKED: ENDBRANCH  11  13
DOCKED: ENDBRANCH   6   7
DOCKED: ENDBRANCH   5   6
DOCKED: ENDBRANCH   4   5
DOCKED: ENDBRANCH   1   4
DOCKED: BRANCH   1  17
DOCKED: ATOM     17  C   UNL     1     138.556  75.656 221.782 -0.26 +0.00    -0.001 C  
DOCKED: BRANCH  17  18
DOCKED: ATOM     18  C   UNL     1     138.090  76.373 220.546 -0.07 -0.02    +0.071 C  
DOCKED: BRANCH  18  19
DOCKED: ATOM     19  C   UNL     1     137.769  77.851 220.794 -0.04 -0.05    +0.234 C  
DOCKED: BRANCH  19  20
DOCKED: ATOM     20  O   UNL     1     138.158  78.253 222.112 -0.05 +0.09    -0.492 OA 
DOCKED: BRANCH  20  21
DOCKED: ATOM     21  C   UNL     1     139.393  78.814 222.495 -0.24 -0.03    +0.137 A  
DOCKED: ATOM     22  C   UNL     1     140.638  78.306 222.063 -0.34 -0.02    +0.049 A  
DOCKED: ATOM     23  C   UNL     1     139.378  79.925 223.357 -0.35 -0.01    +0.084 A  
DOCKED: ATOM     24  C   UNL     1     141.830  78.907 222.479 -0.49 -0.01    +0.024 A  
DOCKED: ATOM     25  C   UNL     1     140.574  80.521 223.769 -0.41 -0.01    +0.045 A  
DOCKED: ATOM     26  C   UNL     1     141.800  80.014 223.331 -0.57 -0.01    +0.042 A  
DOCKED: ATOM     27  Cl  UNL     1     137.852  80.589 223.924 -0.43 +0.01    -0.080 Cl 
DOCKED: ATOM     28  Cl  UNL     1     143.299  80.765 223.848 -0.57 +0.02    -0.084 Cl 
DOCKED: ENDBRANCH  20  21
DOCKED: ENDBRANCH  19  20
DOCKED: ENDBRANCH  18  19
DOCKED: ENDBRANCH  17  18
DOCKED: ENDBRANCH   1  17
DOCKED: TORSDOF 11
DOCKED: TER
DOCKED: ENDMDL
________________________________________________________________________________


    FINAL DOCKED STATE:
    ________________________


Run:   18 / 20
Time taken for this run:   0.051s

DOCKED: MODEL        18
DOCKED: USER    Run = 18
DOCKED: USER
DOCKED: USER    Estimated Free Energy of Binding    =  -5.91 kcal/mol  [=(1)+(2)+(3)-(4)]
DOCKED: USER
DOCKED: USER    (1) Final Intermolecular Energy     =  -9.19 kcal/mol
DOCKED: USER        vdW + Hbond + desolv Energy     =  -9.32 kcal/mol
DOCKED: USER        Electrostatic Energy            =  +0.13 kcal/mol
DOCKED: USER        Moving Ligand-Fixed Receptor    =  -9.19 kcal/mol
DOCKED: USER        Moving Ligand-Moving Receptor   =  +0.00 kcal/mol
DOCKED: USER    (2) Final Total Internal Energy     =  -0.85 kcal/mol
DOCKED: USER    (3) Torsional Free Energy           =  +3.28 kcal/mol
DOCKED: USER    (4) Unbound System's Energy         =  -0.85 kcal/mol
DOCKED: USER
DOCKED: USER
DOCKED: REMARK SMILES O/C(=C\CCOc1ccc(Cl)cc1Cl)[N-]/N=C\c1cccc(C(F)(F)F)c1
DOCKED: REMARK SMILES IDX 2 1 1 2 15 4 16 5 17 6 18 7 19 8 27 9 20 10 22 11 21 12
DOCKED: REMARK SMILES IDX 23 13 24 14 25 15 26 16 3 17 4 18 5 19 6 20 7 21 8 22 13 23
DOCKED: REMARK SMILES IDX 9 24 12 25 10 26 14 27 11 28
DOCKED: REMARK H PARENT 1 3
DOCKED: USER                              x       y       z     vdW  Elec       q    Type
DOCKED: USER                           _______ _______ _______ _____ _____    ______ ____
DOCKED: ROOT
DOCKED: ATOM      1  C   UNL     1     140.737  74.332 221.675 -0.25 -0.00    +0.023 C  
DOCKED: ENDROOT
DOCKED: BRANCH   1   2
DOCKED: ATOM      2  O   UNL     1     139.660  74.897 222.352 -0.59 +0.06    -0.530 OA 
DOCKED: ATOM      3  H   UNL     1     138.993  74.313 222.843 -0.48 -0.11    +0.290 HD 
DOCKED: ENDBRANCH   1   2
DOCKED: BRANCH   1   4
DOCKED: ATOM      4  N   UNL     1     140.795  72.906 221.538 -0.11 +0.06    -0.546 NA 
DOCKED: BRANCH   4   5
DOCKED: ATOM      5  N   UNL     1     140.057  72.039 222.358 -0.18 +0.06    -0.372 NA 
DOCKED: BRANCH   5   6
DOCKED: ATOM      6  C   UNL     1     140.309  71.863 223.622 -0.33 -0.01    +0.094 C  
DOCKED: BRANCH   6   7
DOCKED: ATOM      7  C   UNL     1     139.877  70.677 224.398 -0.42 +0.00    -0.009 A  
DOCKED: ATOM      8  C   UNL     1     138.726  69.988 223.990 -0.30 -0.00    +0.009 A  
DOCKED: ATOM      9  C   UNL     1     140.534  70.275 225.578 -0.50 -0.00    +0.022 A  
DOCKED: ATOM     10  C   UNL     1     138.255  68.898 224.724 -0.35 -0.00    +0.001 A  
DOCKED: ATOM     11  C   UNL     1     140.084  69.158 226.305 -0.49 -0.01    +0.056 A  
DOCKED: ATOM     12  C   UNL     1     138.924  68.486 225.878 -0.46 -0.00    +0.013 A  
DOCKED: BRANCH  11  13
DOCKED: ATOM     13  C   UNL     1     140.784  68.760 227.581 -0.29 -0.09    +0.416 C  
DOCKED: ATOM     14  F   UNL     1     141.409  69.867 228.122 -0.16 +0.03    -0.166 F  
DOCKED: ATOM     15  F   UNL     1     139.887  68.253 228.505 -0.19 +0.03    -0.166 F  
DOCKED: ATOM     16  F   UNL     1     141.733  67.786 227.321 -0.14 +0.05    -0.166 F  
DOCKED: ENDBRANCH  11  13
DOCKED: ENDBRANCH   6   7
DOCKED: ENDBRANCH   5   6
DOCKED: ENDBRANCH   4   5
DOCKED: ENDBRANCH   1   4
DOCKED: BRANCH   1  17
DOCKED: ATOM     17  C   UNL     1     141.693  75.119 221.161 -0.27 +0.00    -0.001 C  
DOCKED: BRANCH  17  18
DOCKED: ATOM     18  C   UNL     1     141.458  75.942 219.925 -0.20 -0.03    +0.071 C  
DOCKED: BRANCH  18  19
DOCKED: ATOM     19  C   UNL     1     141.536  77.451 220.184 -0.18 -0.12    +0.234 C  
DOCKED: BRANCH  19  20
DOCKED: ATOM     20  O   UNL     1     141.568  77.736 221.587 -0.09 +0.28    -0.492 OA 
DOCKED: BRANCH  20  21
DOCKED: ATOM     21  C   UNL     1     140.624  78.481 222.320 -0.31 -0.04    +0.137 A  
DOCKED: ATOM     22  C   UNL     1     139.252  78.151 222.371 -0.28 -0.01    +0.049 A  
DOCKED: ATOM     23  C   UNL     1     141.073  79.613 223.024 -0.44 -0.02    +0.084 A  
DOCKED: ATOM     24  C   UNL     1     138.363  78.931 223.118 -0.27 -0.00    +0.024 A  
DOCKED: ATOM     25  C   UNL     1     140.179  80.389 223.768 -0.40 -0.01    +0.045 A  
DOCKED: ATOM     26  C   UNL     1     138.824  80.049 223.817 -0.39 -0.01    +0.042 A  
DOCKED: ATOM     27  Cl  UNL     1     142.772  80.066 222.986 -0.78 +0.03    -0.080 Cl 
DOCKED: ATOM     28  Cl  UNL     1     137.705  81.023 224.753 -0.47 +0.01    -0.084 Cl 
DOCKED: ENDBRANCH  20  21
DOCKED: ENDBRANCH  19  20
DOCKED: ENDBRANCH  18  19
DOCKED: ENDBRANCH  17  18
DOCKED: ENDBRANCH   1  17
DOCKED: TORSDOF 11
DOCKED: TER
DOCKED: ENDMDL
________________________________________________________________________________


    FINAL DOCKED STATE:
    ________________________


Run:   19 / 20
Time taken for this run:   0.051s

DOCKED: MODEL        19
DOCKED: USER    Run = 19
DOCKED: USER
DOCKED: USER    Estimated Free Energy of Binding    =  -5.96 kcal/mol  [=(1)+(2)+(3)-(4)]
DOCKED: USER
DOCKED: USER    (1) Final Intermolecular Energy     =  -9.24 kcal/mol
DOCKED: USER        vdW + Hbond + desolv Energy     =  -9.24 kcal/mol
DOCKED: USER        Electrostatic Energy            =  -0.00 kcal/mol
DOCKED: USER        Moving Ligand-Fixed Receptor    =  -9.24 kcal/mol
DOCKED: USER        Moving Ligand-Moving Receptor   =  +0.00 kcal/mol
DOCKED: USER    (2) Final Total Internal Energy     =  -1.50 kcal/mol
DOCKED: USER    (3) Torsional Free Energy           =  +3.28 kcal/mol
DOCKED: USER    (4) Unbound System's Energy         =  -1.50 kcal/mol
DOCKED: USER
DOCKED: USER
DOCKED: REMARK SMILES O/C(=C\CCOc1ccc(Cl)cc1Cl)[N-]/N=C\c1cccc(C(F)(F)F)c1
DOCKED: REMARK SMILES IDX 2 1 1 2 15 4 16 5 17 6 18 7 19 8 27 9 20 10 22 11 21 12
DOCKED: REMARK SMILES IDX 23 13 24 14 25 15 26 16 3 17 4 18 5 19 6 20 7 21 8 22 13 23
DOCKED: REMARK SMILES IDX 9 24 12 25 10 26 14 27 11 28
DOCKED: REMARK H PARENT 1 3
DOCKED: USER                              x       y       z     vdW  Elec       q    Type
DOCKED: USER                           _______ _______ _______ _____ _____    ______ ____
DOCKED: ROOT
DOCKED: ATOM      1  C   UNL     1     140.161  75.228 221.605 -0.32 -0.00    +0.023 C  
DOCKED: ENDROOT
DOCKED: BRANCH   1   2
DOCKED: ATOM      2  O   UNL     1     140.943  76.068 222.393 -0.23 +0.14    -0.530 OA 
DOCKED: ATOM      3  H   UNL     1     141.948  76.107 222.268 -0.44 -0.19    +0.290 HD 
DOCKED: ENDBRANCH   1   2
DOCKED: BRANCH   1   4
DOCKED: ATOM      4  N   UNL     1     139.914  73.890 222.056 -0.63 +0.06    -0.546 NA 
DOCKED: BRANCH   4   5
DOCKED: ATOM      5  N   UNL     1     140.947  73.022 222.443 -0.39 -0.01    -0.372 NA 
DOCKED: BRANCH   5   6
DOCKED: ATOM      6  C   UNL     1     140.780  71.746 222.625 -0.22 -0.01    +0.094 C  
DOCKED: BRANCH   6   7
DOCKED: ATOM      7  C   UNL     1     140.320  71.141 223.897 -0.41 +0.00    -0.009 A  
DOCKED: ATOM      8  C   UNL     1     139.310  70.169 223.853 -0.31 -0.00    +0.009 A  
DOCKED: ATOM      9  C   UNL     1     140.801  71.573 225.148 -0.49 -0.00    +0.022 A  
DOCKED: ATOM     10  C   UNL     1     138.811  69.612 225.032 -0.38 -0.00    +0.001 A  
DOCKED: ATOM     11  C   UNL     1     140.327  70.994 226.339 -0.56 -0.01    +0.056 A  
DOCKED: ATOM     12  C   UNL     1     139.310  70.024 226.269 -0.35 -0.00    +0.013 A  
DOCKED: BRANCH  11  13
DOCKED: ATOM     13  C   UNL     1     140.834  71.489 227.670 -0.40 -0.08    +0.416 C  
DOCKED: ATOM     14  F   UNL     1     141.447  70.446 228.340 -0.18 +0.03    -0.166 F  
DOCKED: ATOM     15  F   UNL     1     141.747  72.516 227.506 -0.34 +0.03    -0.166 F  
DOCKED: ATOM     16  F   UNL     1     139.783  71.964 228.436 -0.25 +0.05    -0.166 F  
DOCKED: ENDBRANCH  11  13
DOCKED: ENDBRANCH   6   7
DOCKED: ENDBRANCH   5   6
DOCKED: ENDBRANCH   4   5
DOCKED: ENDBRANCH   1   4
DOCKED: BRANCH   1  17
DOCKED: ATOM     17  C   UNL     1     139.650  75.678 220.449 -0.15 +0.00    -0.001 C  
DOCKED: BRANCH  17  18
DOCKED: ATOM     18  C   UNL     1     138.947  74.760 219.489 -0.04 -0.02    +0.071 C  
DOCKED: BRANCH  18  19
DOCKED: ATOM     19  C   UNL     1     139.888  73.746 218.828 -0.01 -0.05    +0.234 C  
DOCKED: BRANCH  19  20
DOCKED: ATOM     20  O   UNL     1     141.179  74.316 218.588 +0.02 +0.13    -0.492 OA 
DOCKED: BRANCH  20  21
DOCKED: ATOM     21  C   UNL     1     142.366  74.050 219.298 -0.12 -0.04    +0.137 A  
DOCKED: ATOM     22  C   UNL     1     142.720  72.762 219.755 -0.17 -0.01    +0.049 A  
DOCKED: ATOM     23  C   UNL     1     143.230  75.125 219.571 -0.31 -0.04    +0.084 A  
DOCKED: ATOM     24  C   UNL     1     143.913  72.562 220.456 -0.34 -0.00    +0.024 A  
DOCKED: ATOM     25  C   UNL     1     144.422  74.919 220.273 -0.37 -0.02    +0.045 A  
DOCKED: ATOM     26  C   UNL     1     144.765  73.638 220.715 -0.50 -0.01    +0.042 A  
DOCKED: ATOM     27  Cl  UNL     1     142.829  76.749 219.027 -0.44 +0.05    -0.080 Cl 
DOCKED: ATOM     28  Cl  UNL     1     146.262  73.382 221.594 -0.88 +0.01    -0.084 Cl 
DOCKED: ENDBRANCH  20  21
DOCKED: ENDBRANCH  19  20
DOCKED: ENDBRANCH  18  19
DOCKED: ENDBRANCH  17  18
DOCKED: ENDBRANCH   1  17
DOCKED: TORSDOF 11
DOCKED: TER
DOCKED: ENDMDL
________________________________________________________________________________


    FINAL DOCKED STATE:
    ________________________


Run:   20 / 20
Time taken for this run:   0.051s

DOCKED: MODEL        20
DOCKED: USER    Run = 20
DOCKED: USER
DOCKED: USER    Estimated Free Energy of Binding    =  -6.08 kcal/mol  [=(1)+(2)+(3)-(4)]
DOCKED: USER
DOCKED: USER    (1) Final Intermolecular Energy     =  -9.36 kcal/mol
DOCKED: USER        vdW + Hbond + desolv Energy     =  -9.40 kcal/mol
DOCKED: USER        Electrostatic Energy            =  +0.04 kcal/mol
DOCKED: USER        Moving Ligand-Fixed Receptor    =  -9.36 kcal/mol
DOCKED: USER        Moving Ligand-Moving Receptor   =  +0.00 kcal/mol
DOCKED: USER    (2) Final Total Internal Energy     =  -0.85 kcal/mol
DOCKED: USER    (3) Torsional Free Energy           =  +3.28 kcal/mol
DOCKED: USER    (4) Unbound System's Energy         =  -0.85 kcal/mol
DOCKED: USER
DOCKED: USER
DOCKED: REMARK SMILES O/C(=C\CCOc1ccc(Cl)cc1Cl)[N-]/N=C\c1cccc(C(F)(F)F)c1
DOCKED: REMARK SMILES IDX 2 1 1 2 15 4 16 5 17 6 18 7 19 8 27 9 20 10 22 11 21 12
DOCKED: REMARK SMILES IDX 23 13 24 14 25 15 26 16 3 17 4 18 5 19 6 20 7 21 8 22 13 23
DOCKED: REMARK SMILES IDX 9 24 12 25 10 26 14 27 11 28
DOCKED: REMARK H PARENT 1 3
DOCKED: USER                              x       y       z     vdW  Elec       q    Type
DOCKED: USER                           _______ _______ _______ _____ _____    ______ ____
DOCKED: ROOT
DOCKED: ATOM      1  C   UNL     1     138.820  73.839 221.719 -0.20 -0.01    +0.023 C  
DOCKED: ENDROOT
DOCKED: BRANCH   1   2
DOCKED: ATOM      2  O   UNL     1     138.792  72.944 220.653 +0.00 +0.11    -0.530 OA 
DOCKED: ATOM      3  H   UNL     1     139.493  72.218 220.568 +0.06 -0.05    +0.290 HD 
DOCKED: ENDBRANCH   1   2
DOCKED: BRANCH   1   4
DOCKED: ATOM      4  N   UNL     1     139.885  73.743 222.674 -0.43 +0.01    -0.546 NA 
DOCKED: BRANCH   4   5
DOCKED: ATOM      5  N   UNL     1     140.776  72.659 222.703 -0.39 +0.00    -0.372 NA 
DOCKED: BRANCH   5   6
DOCKED: ATOM      6  C   UNL     1     140.409  71.439 222.964 -0.27 -0.01    +0.094 C  
DOCKED: BRANCH   6   7
DOCKED: ATOM      7  C   UNL     1     140.199  70.909 224.332 -0.44 +0.00    -0.009 A  
DOCKED: ATOM      8  C   UNL     1     139.387  69.777 224.498 -0.35 -0.00    +0.009 A  
DOCKED: ATOM      9  C   UNL     1     140.713  71.556 225.473 -0.55 -0.00    +0.022 A  
DOCKED: ATOM     10  C   UNL     1     139.120  69.278 225.774 -0.44 -0.00    +0.001 A  
DOCKED: ATOM     11  C   UNL     1     140.475  71.040 226.759 -0.60 -0.01    +0.056 A  
DOCKED: ATOM     12  C   UNL     1     139.655  69.906 226.900 -0.50 -0.00    +0.013 A  
DOCKED: BRANCH  11  13
DOCKED: ATOM     13  C   UNL     1     141.012  71.762 227.971 -0.40 -0.09    +0.416 C  
DOCKED: ATOM     14  F   UNL     1     139.954  72.236 228.724 -0.29 +0.06    -0.166 F  
DOCKED: ATOM     15  F   UNL     1     141.780  70.919 228.755 -0.14 +0.03    -0.166 F  
DOCKED: ATOM     16  F   UNL     1     141.803  72.829 227.580 -0.32 +0.04    -0.166 F  
DOCKED: ENDBRANCH  11  13
DOCKED: ENDBRANCH   6   7
DOCKED: ENDBRANCH   5   6
DOCKED: ENDBRANCH   4   5
DOCKED: ENDBRANCH   1   4
DOCKED: BRANCH   1  17
DOCKED: ATOM     17  C   UNL     1     137.863  74.772 221.836 -0.19 +0.00    -0.001 C  
DOCKED: BRANCH  17  18
DOCKED: ATOM     18  C   UNL     1     138.107  76.063 222.567 -0.25 -0.02    +0.071 C  
DOCKED: BRANCH  18  19
DOCKED: ATOM     19  C   UNL     1     137.308  77.239 221.992 -0.13 -0.04    +0.234 C  
DOCKED: BRANCH  19  20
DOCKED: ATOM     20  O   UNL     1     137.726  78.481 222.568 -0.06 +0.08    -0.492 OA 
DOCKED: BRANCH  20  21
DOCKED: ATOM     21  C   UNL     1     139.051  78.928 222.745 -0.25 -0.02    +0.137 A  
DOCKED: ATOM     22  C   UNL     1     140.164  78.302 222.142 -0.31 -0.01    +0.049 A  
DOCKED: ATOM     23  C   UNL     1     139.269  80.043 223.573 -0.37 -0.01    +0.084 A  
DOCKED: ATOM     24  C   UNL     1     141.455  78.793 222.357 -0.46 -0.01    +0.024 A  
DOCKED: ATOM     25  C   UNL     1     140.564  80.529 223.785 -0.40 -0.01    +0.045 A  
DOCKED: ATOM     26  C   UNL     1     141.657  79.905 223.177 -0.54 -0.01    +0.042 A  
DOCKED: ATOM     27  Cl  UNL     1     137.915  80.852 224.350 -0.46 +0.01    -0.080 Cl 
DOCKED: ATOM     28  Cl  UNL     1     143.280  80.518 223.443 -0.71 +0.02    -0.084 Cl 
DOCKED: ENDBRANCH  20  21
DOCKED: ENDBRANCH  19  20
DOCKED: ENDBRANCH  18  19
DOCKED: ENDBRANCH  17  18
DOCKED: ENDBRANCH   1  17
DOCKED: TORSDOF 11
DOCKED: TER
DOCKED: ENDMDL
________________________________________________________________________________


    CLUSTERING HISTOGRAM
    ____________________


________________________________________________________________________________
     |           |     |           |     |
Clus | Lowest    | Run | Mean      | Num | Histogram
-ter | Binding   |     | Binding   | in  |
Rank | Energy    |     | Energy    | Clus|    5    10   15   20   25   30   35
_____|___________|_____|___________|_____|____:____|____:____|____:____|____:___
   1 |     -6.97 |  15 |     -6.60 |   4 |####
   2 |     -6.48 |   7 |     -6.32 |   4 |####
   3 |     -6.39 |  13 |     -6.33 |   2 |##
   4 |     -6.21 |   9 |     -6.04 |   2 |##
   5 |     -6.14 |   4 |     -6.04 |   5 |#####
   6 |     -6.04 |   5 |     -6.00 |   2 |##
   7 |     -5.54 |  14 |     -5.54 |   1 |#
_____|___________|_____|___________|_____|______________________________________


    RMSD TABLE
    __________


_______________________________________________________________________
     |      |      |           |         |                 |
Rank | Sub- | Run  | Binding   | Cluster | Reference       | Grep
     | Rank |      | Energy    | RMSD    | RMSD            | Pattern
_____|______|______|___________|_________|_________________|___________
   1      1     15       -6.97      0.00    272.99           RANKING
   1      2     12       -6.78      1.53    272.63           RANKING
   1      3      2       -6.73      1.67    272.94           RANKING
   1      4     18       -5.91      1.16    272.58           RANKING
   2      1      7       -6.48      0.00    272.66           RANKING
   2      2      8       -6.38      1.92    272.66           RANKING
   2      3      6       -6.28      1.28    272.47           RANKING
   2      4      1       -6.13      1.56    272.50           RANKING
   3      1     13       -6.39      0.00    272.57           RANKING
   3      2     16       -6.27      1.07    272.73           RANKING
   4      1      9       -6.21      0.00    272.48           RANKING
   4      2      3       -5.87      1.97    272.36           RANKING
   5      1      4       -6.14      0.00    272.65           RANKING
   5      2     20       -6.08      0.82    272.75           RANKING
   5      3     11       -6.07      1.65    272.70           RANKING
   5      4     17       -5.99      1.32    272.73           RANKING
   5      5     10       -5.92      1.69    272.80           RANKING
   6      1      5       -6.04      0.00    272.01           RANKING
   6      2     19       -5.96      1.17    271.93           RANKING
   7      1     14       -5.54      0.00    271.89           RANKING

Run time 0.976 sec
Idle time 0.000 sec
