AutoDock-GPU version: v1.6

**********************************************************
**    AutoDock-GPU AUTODOCKTOOLS-COMPATIBLE DLG FILE    **
**********************************************************


    DOCKING PARAMETERS
    ________________________


Ligand file:                               /home/a/REINVENT4/ReinventStudies/scoringData/graph-dock-h4r84i/graph-DockGPU/node-autodockgpu/inputs/JBHRSOAXAGIKHA-ZYTNAAKSNA-N.pdbqt
Grid fld file:                             /home/a/REINVENT4/ReinventStudies/mols/Rad51/maps/rad51_receptor.maps.fld

Random seed:                               42
Number of runs:                            20
Number of energy evaluations:              3119281
Number of generations:                     42000
Size of population:                        150
Rate of crossover:                         80.000000%
Tournament selection probability limit:    60.000000%
Rate of mutation:                          2.000000%
Maximal allowed delta movement:            +/- 6.000000A
Maximal allowed delta angle:               +/- 90.000000

Rate of local search:                      100.000000%
Maximal number of local search iterations: 300
Rho lower bound:                           0.010000
Spread of local search delta movement:     2.000000A
Spread of local search delta angle:        74.999999
Limit of consecutive successes/failures:   4

Handle symmetry during clustering:         YES
RMSD tolerance:                            2.000000A

Program call in command line was:          /home/a/REINVENT4/ReinventStudies/adgpu-v1.6_linux_x64_cuda12_128wi --filelist batch.txt --heuristics 1 --nrun 20 --psize 150 --lsit 300 --seed 42 --heurmax 12000000 


    GRID PARAMETERS
    ________________________


Receptor name:                             rad51_receptor
Number of grid points (x, y, z):           53, 53, 53
Grid center (x, y, z):                     139.950000, 75.640000, 221.970000A
Grid size (x, y, z):                       19.500000, 19.500000, 19.500000A
Grid spacing:                              0.375000A


    LIGAND PARAMETERS
    ________________________


Ligand name:                               /home/a/REINVENT4/ReinventStudies/scoringData/graph-dock-h4r84i/graph-DockGPU/node-autodockgpu/inputs/JBHRSOAXAGIKHA-ZYTNAAKSNA-N
Number of atoms:                           28
Number of rotatable bonds:                 11
Number of atom types:                      7


    DUMMY DATA (only for ADT-compatibility)
    ________________________


DPF> outlev 1
DPF> ga_run 20
DPF> fld /home/a/REINVENT4/ReinventStudies/mols/Rad51/maps/rad51_receptor.maps.fld
DPF> move /home/a/REINVENT4/ReinventStudies/scoringData/graph-dock-h4r84i/graph-DockGPU/node-autodockgpu/inputs/JBHRSOAXAGIKHA-ZYTNAAKSNA-N.pdbqt


    COUNTER STATES
    ________________________


Number of energy evaluations performed:    2556886
Number of generations used:                135


    INPUT LIGAND PDBQT FILE:
    ________________________


INPUT-LIGAND-PDBQT: REMARK SMILES O/C(=C\CCOc1ccc(Cl)cc1Cl)[N-]/N=C/c1cccc(C(F)(F)F)c1
INPUT-LIGAND-PDBQT: REMARK SMILES IDX 2 1 1 2 15 4 16 5 17 6 18 7 19 8 27 9 20 10 22 11 21 12
INPUT-LIGAND-PDBQT: REMARK SMILES IDX 23 13 24 14 25 15 26 16 3 17 4 18 5 19 6 20 7 21 8 22 13 23
INPUT-LIGAND-PDBQT: REMARK SMILES IDX 9 24 12 25 10 26 14 27 11 28
INPUT-LIGAND-PDBQT: REMARK H PARENT 1 3
INPUT-LIGAND-PDBQT: ROOT
INPUT-LIGAND-PDBQT: ATOM      1  C   UNL     1      -1.373   0.213  -1.986  1.00  0.00     0.023 C 
INPUT-LIGAND-PDBQT: ENDROOT
INPUT-LIGAND-PDBQT: BRANCH   1   2
INPUT-LIGAND-PDBQT: ATOM      2  O   UNL     1      -1.319  -0.005  -3.360  1.00  0.00    -0.530 OA
INPUT-LIGAND-PDBQT: ATOM      3  H   UNL     1      -2.141  -0.299  -3.872  1.00  0.00     0.290 HD
INPUT-LIGAND-PDBQT: ENDBRANCH   1   2
INPUT-LIGAND-PDBQT: BRANCH   1   4
INPUT-LIGAND-PDBQT: ATOM      4  N   UNL     1      -2.619   0.018  -1.306  1.00  0.00    -0.546 NA
INPUT-LIGAND-PDBQT: BRANCH   4   5
INPUT-LIGAND-PDBQT: ATOM      5  N   UNL     1      -2.756   0.188   0.079  1.00  0.00    -0.372 NA
INPUT-LIGAND-PDBQT: BRANCH   5   6
INPUT-LIGAND-PDBQT: ATOM      6  C   UNL     1      -3.896  -0.000   0.661  1.00  0.00     0.094 C 
INPUT-LIGAND-PDBQT: BRANCH   6   7
INPUT-LIGAND-PDBQT: ATOM      7  C   UNL     1      -4.044   0.174   2.121  1.00  0.00    -0.009 A 
INPUT-LIGAND-PDBQT: ATOM      8  C   UNL     1      -5.296  -0.043   2.715  1.00  0.00     0.009 A 
INPUT-LIGAND-PDBQT: ATOM      9  C   UNL     1      -2.957   0.559   2.928  1.00  0.00     0.022 A 
INPUT-LIGAND-PDBQT: ATOM     10  C   UNL     1      -5.463   0.129   4.090  1.00  0.00     0.001 A 
INPUT-LIGAND-PDBQT: ATOM     11  C   UNL     1      -3.113   0.708   4.318  1.00  0.00     0.056 A 
INPUT-LIGAND-PDBQT: ATOM     12  C   UNL     1      -4.383   0.512   4.888  1.00  0.00     0.013 A 
INPUT-LIGAND-PDBQT: BRANCH  11  13
INPUT-LIGAND-PDBQT: ATOM     13  C   UNL     1      -1.955   1.168   5.168  1.00  0.00     0.416 C 
INPUT-LIGAND-PDBQT: ATOM     14  F   UNL     1      -1.909   2.549   5.165  1.00  0.00    -0.166 F 
INPUT-LIGAND-PDBQT: ATOM     15  F   UNL     1      -2.096   0.725   6.472  1.00  0.00    -0.166 F 
INPUT-LIGAND-PDBQT: ATOM     16  F   UNL     1      -0.761   0.675   4.672  1.00  0.00    -0.166 F 
INPUT-LIGAND-PDBQT: ENDBRANCH  11  13
INPUT-LIGAND-PDBQT: ENDBRANCH   6   7
INPUT-LIGAND-PDBQT: ENDBRANCH   5   6
INPUT-LIGAND-PDBQT: ENDBRANCH   4   5
INPUT-LIGAND-PDBQT: ENDBRANCH   1   4
INPUT-LIGAND-PDBQT: BRANCH   1  17
INPUT-LIGAND-PDBQT: ATOM     17  C   UNL     1      -0.273   0.602  -1.324  1.00  0.00    -0.001 C 
INPUT-LIGAND-PDBQT: BRANCH  17  18
INPUT-LIGAND-PDBQT: ATOM     18  C   UNL     1       1.054   0.805  -2.004  1.00  0.00     0.071 C 
INPUT-LIGAND-PDBQT: BRANCH  18  19
INPUT-LIGAND-PDBQT: ATOM     19  C   UNL     1       1.725  -0.526  -2.341  1.00  0.00     0.234 C 
INPUT-LIGAND-PDBQT: BRANCH  19  20
INPUT-LIGAND-PDBQT: ATOM     20  O   UNL     1       1.944  -1.267  -1.144  1.00  0.00    -0.492 OA
INPUT-LIGAND-PDBQT: BRANCH  20  21
INPUT-LIGAND-PDBQT: ATOM     21  C   UNL     1       2.405  -2.592  -1.029  1.00  0.00     0.137 A 
INPUT-LIGAND-PDBQT: ATOM     22  C   UNL     1       2.351  -3.149   0.257  1.00  0.00     0.049 A 
INPUT-LIGAND-PDBQT: ATOM     23  C   UNL     1       2.911  -3.386  -2.097  1.00  0.00     0.084 A 
INPUT-LIGAND-PDBQT: ATOM     24  C   UNL     1       2.767  -4.460   0.494  1.00  0.00     0.024 A 
INPUT-LIGAND-PDBQT: ATOM     25  C   UNL     1       3.325  -4.701  -1.843  1.00  0.00     0.045 A 
INPUT-LIGAND-PDBQT: ATOM     26  C   UNL     1       3.253  -5.237  -0.556  1.00  0.00     0.042 A 
INPUT-LIGAND-PDBQT: ATOM     27  Cl  UNL     1       3.098  -2.826  -3.755  1.00  0.00    -0.080 Cl
INPUT-LIGAND-PDBQT: ATOM     28  Cl  UNL     1       3.778  -6.885  -0.259  1.00  0.00    -0.084 Cl
INPUT-LIGAND-PDBQT: ENDBRANCH  20  21
INPUT-LIGAND-PDBQT: ENDBRANCH  19  20
INPUT-LIGAND-PDBQT: ENDBRANCH  18  19
INPUT-LIGAND-PDBQT: ENDBRANCH  17  18
INPUT-LIGAND-PDBQT: ENDBRANCH   1  17
INPUT-LIGAND-PDBQT: TORSDOF 11


    FINAL DOCKED STATE:
    ________________________


Run:   1 / 20
Time taken for this run:   0.109s

DOCKED: MODEL        1
DOCKED: USER    Run = 1
DOCKED: USER
DOCKED: USER    Estimated Free Energy of Binding    =  -6.12 kcal/mol  [=(1)+(2)+(3)-(4)]
DOCKED: USER
DOCKED: USER    (1) Final Intermolecular Energy     =  -9.40 kcal/mol
DOCKED: USER        vdW + Hbond + desolv Energy     =  -9.51 kcal/mol
DOCKED: USER        Electrostatic Energy            =  +0.11 kcal/mol
DOCKED: USER        Moving Ligand-Fixed Receptor    =  -9.40 kcal/mol
DOCKED: USER        Moving Ligand-Moving Receptor   =  +0.00 kcal/mol
DOCKED: USER    (2) Final Total Internal Energy     =  -0.87 kcal/mol
DOCKED: USER    (3) Torsional Free Energy           =  +3.28 kcal/mol
DOCKED: USER    (4) Unbound System's Energy         =  -0.87 kcal/mol
DOCKED: USER
DOCKED: USER
DOCKED: REMARK SMILES O/C(=C\CCOc1ccc(Cl)cc1Cl)[N-]/N=C/c1cccc(C(F)(F)F)c1
DOCKED: REMARK SMILES IDX 2 1 1 2 15 4 16 5 17 6 18 7 19 8 27 9 20 10 22 11 21 12
DOCKED: REMARK SMILES IDX 23 13 24 14 25 15 26 16 3 17 4 18 5 19 6 20 7 21 8 22 13 23
DOCKED: REMARK SMILES IDX 9 24 12 25 10 26 14 27 11 28
DOCKED: REMARK H PARENT 1 3
DOCKED: USER                              x       y       z     vdW  Elec       q    Type
DOCKED: USER                           _______ _______ _______ _____ _____    ______ ____
DOCKED: ROOT
DOCKED: ATOM      1  C   UNL     1     137.903  73.791 221.954 -0.14 -0.01    +0.023 C  
DOCKED: ENDROOT
DOCKED: BRANCH   1   2
DOCKED: ATOM      2  O   UNL     1     137.249  72.778 222.649 -0.03 +0.18    -0.530 OA 
DOCKED: ATOM      3  H   UNL     1     137.402  72.645 223.640 -0.46 -0.16    +0.290 HD 
DOCKED: ENDBRANCH   1   2
DOCKED: BRANCH   1   4
DOCKED: ATOM      4  N   UNL     1     139.312  73.670 221.723 -0.18 +0.11    -0.546 NA 
DOCKED: BRANCH   4   5
DOCKED: ATOM      5  N   UNL     1     140.205  73.250 222.719 -0.55 +0.00    -0.372 NA 
DOCKED: BRANCH   5   6
DOCKED: ATOM      6  C   UNL     1     140.517  72.001 222.847 -0.28 -0.01    +0.094 C  
DOCKED: BRANCH   6   7
DOCKED: ATOM      7  C   UNL     1     140.270  71.279 224.112 -0.44 +0.00    -0.009 A  
DOCKED: ATOM      8  C   UNL     1     139.524  70.092 224.091 -0.33 -0.00    +0.009 A  
DOCKED: ATOM      9  C   UNL     1     140.761  71.761 225.340 -0.46 -0.00    +0.022 A  
DOCKED: ATOM     10  C   UNL     1     139.265  69.401 225.276 -0.41 -0.00    +0.001 A  
DOCKED: ATOM     11  C   UNL     1     140.526  71.055 226.534 -0.59 -0.01    +0.056 A  
DOCKED: ATOM     12  C   UNL     1     139.753  69.882 226.493 -0.49 -0.00    +0.013 A  
DOCKED: BRANCH  11  13
DOCKED: ATOM     13  C   UNL     1     141.015  71.604 227.851 -0.40 -0.09    +0.416 C  
DOCKED: ATOM     14  F   UNL     1     139.943  72.123 228.553 -0.29 +0.05    -0.166 F  
DOCKED: ATOM     15  F   UNL     1     141.610  70.610 228.608 -0.13 +0.03    -0.166 F  
DOCKED: ATOM     16  F   UNL     1     141.947  72.606 227.645 -0.30 +0.03    -0.166 F  
DOCKED: ENDBRANCH  11  13
DOCKED: ENDBRANCH   6   7
DOCKED: ENDBRANCH   5   6
DOCKED: ENDBRANCH   4   5
DOCKED: ENDBRANCH   1   4
DOCKED: BRANCH   1  17
DOCKED: ATOM     17  C   UNL     1     137.217  74.858 221.518 -0.15 +0.00    -0.001 C  
DOCKED: BRANCH  17  18
DOCKED: ATOM     18  C   UNL     1     137.850  75.953 220.703 -0.09 -0.02    +0.071 C  
DOCKED: BRANCH  18  19
DOCKED: ATOM     19  C   UNL     1     137.535  77.335 221.273 -0.07 -0.05    +0.234 C  
DOCKED: BRANCH  19  20
DOCKED: ATOM     20  O   UNL     1     138.195  77.497 222.525 -0.10 +0.09    -0.492 OA 
DOCKED: BRANCH  20  21
DOCKED: ATOM     21  C   UNL     1     139.367  78.231 222.787 -0.26 -0.03    +0.137 A  
DOCKED: ATOM     22  C   UNL     1     139.188  79.459 223.439 -0.37 -0.01    +0.049 A  
DOCKED: ATOM     23  C   UNL     1     140.689  77.825 222.444 -0.39 -0.03    +0.084 A  
DOCKED: ATOM     24  C   UNL     1     140.276  80.270 223.765 -0.42 -0.00    +0.024 A  
DOCKED: ATOM     25  C   UNL     1     141.772  78.650 222.779 -0.48 -0.02    +0.045 A  
DOCKED: ATOM     26  C   UNL     1     141.569  79.865 223.436 -0.55 -0.01    +0.042 A  
DOCKED: ATOM     27  Cl  UNL     1     141.086  76.345 221.579 -0.40 +0.03    -0.080 Cl 
DOCKED: ATOM     28  Cl  UNL     1     142.938  80.884 223.844 -0.75 +0.02    -0.084 Cl 
DOCKED: ENDBRANCH  20  21
DOCKED: ENDBRANCH  19  20
DOCKED: ENDBRANCH  18  19
DOCKED: ENDBRANCH  17  18
DOCKED: ENDBRANCH   1  17
DOCKED: TORSDOF 11
DOCKED: TER
DOCKED: ENDMDL
________________________________________________________________________________


    FINAL DOCKED STATE:
    ________________________


Run:   2 / 20
Time taken for this run:   0.109s

DOCKED: MODEL        2
DOCKED: USER    Run = 2
DOCKED: USER
DOCKED: USER    Estimated Free Energy of Binding    =  -6.64 kcal/mol  [=(1)+(2)+(3)-(4)]
DOCKED: USER
DOCKED: USER    (1) Final Intermolecular Energy     =  -9.93 kcal/mol
DOCKED: USER        vdW + Hbond + desolv Energy     = -10.01 kcal/mol
DOCKED: USER        Electrostatic Energy            =  +0.08 kcal/mol
DOCKED: USER        Moving Ligand-Fixed Receptor    =  -9.93 kcal/mol
DOCKED: USER        Moving Ligand-Moving Receptor   =  +0.00 kcal/mol
DOCKED: USER    (2) Final Total Internal Energy     =  -1.27 kcal/mol
DOCKED: USER    (3) Torsional Free Energy           =  +3.28 kcal/mol
DOCKED: USER    (4) Unbound System's Energy         =  -1.27 kcal/mol
DOCKED: USER
DOCKED: USER
DOCKED: REMARK SMILES O/C(=C\CCOc1ccc(Cl)cc1Cl)[N-]/N=C/c1cccc(C(F)(F)F)c1
DOCKED: REMARK SMILES IDX 2 1 1 2 15 4 16 5 17 6 18 7 19 8 27 9 20 10 22 11 21 12
DOCKED: REMARK SMILES IDX 23 13 24 14 25 15 26 16 3 17 4 18 5 19 6 20 7 21 8 22 13 23
DOCKED: REMARK SMILES IDX 9 24 12 25 10 26 14 27 11 28
DOCKED: REMARK H PARENT 1 3
DOCKED: USER                              x       y       z     vdW  Elec       q    Type
DOCKED: USER                           _______ _______ _______ _____ _____    ______ ____
DOCKED: ROOT
DOCKED: ATOM      1  C   UNL     1     141.193  74.792 221.502 -0.28 -0.00    +0.023 C  
DOCKED: ENDROOT
DOCKED: BRANCH   1   2
DOCKED: ATOM      2  O   UNL     1     140.934  75.837 222.386 -0.24 +0.11    -0.530 OA 
DOCKED: ATOM      3  H   UNL     1     141.641  76.532 222.590 -0.30 -0.16    +0.290 HD 
DOCKED: ENDBRANCH   1   2
DOCKED: BRANCH   1   4
DOCKED: ATOM      4  N   UNL     1     141.084  73.445 221.977 -0.38 +0.01    -0.546 NA 
DOCKED: BRANCH   4   5
DOCKED: ATOM      5  N   UNL     1     139.962  72.983 222.679 -0.56 +0.04    -0.372 NA 
DOCKED: BRANCH   5   6
DOCKED: ATOM      6  C   UNL     1     139.719  71.716 222.781 -0.28 -0.02    +0.094 C  
DOCKED: BRANCH   6   7
DOCKED: ATOM      7  C   UNL     1     139.719  71.044 224.097 -0.41 +0.00    -0.009 A  
DOCKED: ATOM      8  C   UNL     1     139.102  69.791 224.229 -0.33 -0.00    +0.009 A  
DOCKED: ATOM      9  C   UNL     1     140.321  71.636 225.223 -0.44 -0.00    +0.022 A  
DOCKED: ATOM     10  C   UNL     1     139.078  69.144 225.465 -0.43 -0.00    +0.001 A  
DOCKED: ATOM     11  C   UNL     1     140.323  70.976 226.466 -0.56 -0.01    +0.056 A  
DOCKED: ATOM     12  C   UNL     1     139.675  69.734 226.581 -0.50 -0.00    +0.013 A  
DOCKED: BRANCH  11  13
DOCKED: ATOM     13  C   UNL     1     140.927  71.640 227.678 -0.41 -0.08    +0.416 C  
DOCKED: ATOM     14  F   UNL     1     141.523  70.679 228.473 -0.16 +0.03    -0.166 F  
DOCKED: ATOM     15  F   UNL     1     141.882  72.570 227.304 -0.33 +0.03    -0.166 F  
DOCKED: ATOM     16  F   UNL     1     139.953  72.293 228.412 -0.28 +0.06    -0.166 F  
DOCKED: ENDBRANCH  11  13
DOCKED: ENDBRANCH   6   7
DOCKED: ENDBRANCH   5   6
DOCKED: ENDBRANCH   4   5
DOCKED: ENDBRANCH   1   4
DOCKED: BRANCH   1  17
DOCKED: ATOM     17  C   UNL     1     141.542  75.057 220.234 -0.25 +0.00    -0.001 C  
DOCKED: BRANCH  17  18
DOCKED: ATOM     18  C   UNL     1     142.401  76.233 219.857 -0.29 -0.04    +0.071 C  
DOCKED: BRANCH  18  19
DOCKED: ATOM     19  C   UNL     1     141.632  77.550 219.961 -0.19 -0.13    +0.234 C  
DOCKED: BRANCH  19  20
DOCKED: ATOM     20  O   UNL     1     141.910  78.168 221.214 -0.11 +0.32    -0.492 OA 
DOCKED: BRANCH  20  21
DOCKED: ATOM     21  C   UNL     1     141.012  78.865 222.045 -0.31 -0.05    +0.137 A  
DOCKED: ATOM     22  C   UNL     1     139.659  78.528 221.899 -0.24 -0.01    +0.049 A  
DOCKED: ATOM     23  C   UNL     1     141.371  79.862 222.995 -0.46 -0.02    +0.084 A  
DOCKED: ATOM     24  C   UNL     1     138.675  79.141 222.677 -0.27 -0.00    +0.024 A  
DOCKED: ATOM     25  C   UNL     1     140.371  80.468 223.769 -0.40 -0.01    +0.045 A  
DOCKED: ATOM     26  C   UNL     1     139.031  80.110 223.613 -0.38 -0.01    +0.042 A  
DOCKED: ATOM     27  Cl  UNL     1     143.011  80.440 223.265 -0.77 +0.02    -0.080 Cl 
DOCKED: ATOM     28  Cl  UNL     1     137.795  80.883 224.591 -0.47 +0.01    -0.084 Cl 
DOCKED: ENDBRANCH  20  21
DOCKED: ENDBRANCH  19  20
DOCKED: ENDBRANCH  18  19
DOCKED: ENDBRANCH  17  18
DOCKED: ENDBRANCH   1  17
DOCKED: TORSDOF 11
DOCKED: TER
DOCKED: ENDMDL
________________________________________________________________________________


    FINAL DOCKED STATE:
    ________________________


Run:   3 / 20
Time taken for this run:   0.109s

DOCKED: MODEL        3
DOCKED: USER    Run = 3
DOCKED: USER
DOCKED: USER    Estimated Free Energy of Binding    =  -6.35 kcal/mol  [=(1)+(2)+(3)-(4)]
DOCKED: USER
DOCKED: USER    (1) Final Intermolecular Energy     =  -9.63 kcal/mol
DOCKED: USER        vdW + Hbond + desolv Energy     =  -9.63 kcal/mol
DOCKED: USER        Electrostatic Energy            =  -0.00 kcal/mol
DOCKED: USER        Moving Ligand-Fixed Receptor    =  -9.63 kcal/mol
DOCKED: USER        Moving Ligand-Moving Receptor   =  +0.00 kcal/mol
DOCKED: USER    (2) Final Total Internal Energy     =  -1.44 kcal/mol
DOCKED: USER    (3) Torsional Free Energy           =  +3.28 kcal/mol
DOCKED: USER    (4) Unbound System's Energy         =  -1.44 kcal/mol
DOCKED: USER
DOCKED: USER
DOCKED: REMARK SMILES O/C(=C\CCOc1ccc(Cl)cc1Cl)[N-]/N=C/c1cccc(C(F)(F)F)c1
DOCKED: REMARK SMILES IDX 2 1 1 2 15 4 16 5 17 6 18 7 19 8 27 9 20 10 22 11 21 12
DOCKED: REMARK SMILES IDX 23 13 24 14 25 15 26 16 3 17 4 18 5 19 6 20 7 21 8 22 13 23
DOCKED: REMARK SMILES IDX 9 24 12 25 10 26 14 27 11 28
DOCKED: REMARK H PARENT 1 3
DOCKED: USER                              x       y       z     vdW  Elec       q    Type
DOCKED: USER                           _______ _______ _______ _____ _____    ______ ____
DOCKED: ROOT
DOCKED: ATOM      1  C   UNL     1     140.510  75.015 221.933 -0.20 -0.00    +0.023 C  
DOCKED: ENDROOT
DOCKED: BRANCH   1   2
DOCKED: ATOM      2  O   UNL     1     139.499  75.568 222.714 -0.36 +0.08    -0.530 OA 
DOCKED: ATOM      3  H   UNL     1     138.958  74.992 223.347 -0.44 -0.13    +0.290 HD 
DOCKED: ENDBRANCH   1   2
DOCKED: BRANCH   1   4
DOCKED: ATOM      4  N   UNL     1     140.716  73.598 221.975 -0.55 +0.02    -0.546 NA 
DOCKED: BRANCH   4   5
DOCKED: ATOM      5  N   UNL     1     139.920  72.743 222.750 -0.45 +0.05    -0.372 NA 
DOCKED: BRANCH   5   6
DOCKED: ATOM      6  C   UNL     1     140.282  71.522 222.975 -0.30 -0.01    +0.094 C  
DOCKED: BRANCH   6   7
DOCKED: ATOM      7  C   UNL     1     140.214  70.945 224.334 -0.44 +0.00    -0.009 A  
DOCKED: ATOM      8  C   UNL     1     139.687  69.657 224.508 -0.34 -0.00    +0.009 A  
DOCKED: ATOM      9  C   UNL     1     140.661  71.664 225.459 -0.51 -0.00    +0.022 A  
DOCKED: ATOM     10  C   UNL     1     139.600  69.098 225.784 -0.47 -0.00    +0.001 A  
DOCKED: ATOM     11  C   UNL     1     140.600  71.095 226.744 -0.62 -0.01    +0.056 A  
DOCKED: ATOM     12  C   UNL     1     140.043  69.813 226.898 -0.55 -0.00    +0.013 A  
DOCKED: BRANCH  11  13
DOCKED: ATOM     13  C   UNL     1     141.036  71.890 227.949 -0.41 -0.10    +0.416 C  
DOCKED: ATOM     14  F   UNL     1     141.844  71.102 228.746 -0.14 +0.03    -0.166 F  
DOCKED: ATOM     15  F   UNL     1     141.743  73.017 227.565 -0.29 +0.04    -0.166 F  
DOCKED: ATOM     16  F   UNL     1     139.938  72.300 228.685 -0.27 +0.06    -0.166 F  
DOCKED: ENDBRANCH  11  13
DOCKED: ENDBRANCH   6   7
DOCKED: ENDBRANCH   5   6
DOCKED: ENDBRANCH   4   5
DOCKED: ENDBRANCH   1   4
DOCKED: BRANCH   1  17
DOCKED: ATOM     17  C   UNL     1     141.273  75.807 221.164 -0.31 +0.00    -0.001 C  
DOCKED: BRANCH  17  18
DOCKED: ATOM     18  C   UNL     1     140.913  76.148 219.743 -0.15 -0.03    +0.071 C  
DOCKED: BRANCH  18  19
DOCKED: ATOM     19  C   UNL     1     140.768  74.895 218.881 -0.03 -0.06    +0.234 C  
DOCKED: BRANCH  19  20
DOCKED: ATOM     20  O   UNL     1     142.058  74.416 218.513 +0.02 +0.14    -0.492 OA 
DOCKED: BRANCH  20  21
DOCKED: ATOM     21  C   UNL     1     143.124  74.080 219.370 -0.19 -0.04    +0.137 A  
DOCKED: ATOM     22  C   UNL     1     144.049  75.103 219.626 -0.33 -0.03    +0.049 A  
DOCKED: ATOM     23  C   UNL     1     143.325  72.809 219.979 -0.23 -0.01    +0.084 A  
DOCKED: ATOM     24  C   UNL     1     145.140  74.895 220.471 -0.22 -0.01    +0.024 A  
DOCKED: ATOM     25  C   UNL     1     144.425  72.615 220.825 -0.40 -0.01    +0.045 A  
DOCKED: ATOM     26  C   UNL     1     145.328  73.651 221.072 -0.57 -0.01    +0.042 A  
DOCKED: ATOM     27  Cl  UNL     1     142.294  71.406 219.722 -0.18 +0.01    -0.080 Cl 
DOCKED: ATOM     28  Cl  UNL     1     146.700  73.388 222.134 -0.71 +0.02    -0.084 Cl 
DOCKED: ENDBRANCH  20  21
DOCKED: ENDBRANCH  19  20
DOCKED: ENDBRANCH  18  19
DOCKED: ENDBRANCH  17  18
DOCKED: ENDBRANCH   1  17
DOCKED: TORSDOF 11
DOCKED: TER
DOCKED: ENDMDL
________________________________________________________________________________


    FINAL DOCKED STATE:
    ________________________


Run:   4 / 20
Time taken for this run:   0.109s

DOCKED: MODEL        4
DOCKED: USER    Run = 4
DOCKED: USER
DOCKED: USER    Estimated Free Energy of Binding    =  -6.69 kcal/mol  [=(1)+(2)+(3)-(4)]
DOCKED: USER
DOCKED: USER    (1) Final Intermolecular Energy     =  -9.98 kcal/mol
DOCKED: USER        vdW + Hbond + desolv Energy     =  -9.98 kcal/mol
DOCKED: USER        Electrostatic Energy            =  +0.01 kcal/mol
DOCKED: USER        Moving Ligand-Fixed Receptor    =  -9.98 kcal/mol
DOCKED: USER        Moving Ligand-Moving Receptor   =  +0.00 kcal/mol
DOCKED: USER    (2) Final Total Internal Energy     =  -0.97 kcal/mol
DOCKED: USER    (3) Torsional Free Energy           =  +3.28 kcal/mol
DOCKED: USER    (4) Unbound System's Energy         =  -0.97 kcal/mol
DOCKED: USER
DOCKED: USER
DOCKED: REMARK SMILES O/C(=C\CCOc1ccc(Cl)cc1Cl)[N-]/N=C/c1cccc(C(F)(F)F)c1
DOCKED: REMARK SMILES IDX 2 1 1 2 15 4 16 5 17 6 18 7 19 8 27 9 20 10 22 11 21 12
DOCKED: REMARK SMILES IDX 23 13 24 14 25 15 26 16 3 17 4 18 5 19 6 20 7 21 8 22 13 23
DOCKED: REMARK SMILES IDX 9 24 12 25 10 26 14 27 11 28
DOCKED: REMARK H PARENT 1 3
DOCKED: USER                              x       y       z     vdW  Elec       q    Type
DOCKED: USER                           _______ _______ _______ _____ _____    ______ ____
DOCKED: ROOT
DOCKED: ATOM      1  C   UNL     1     140.146  75.366 221.987 -0.28 -0.00    +0.023 C  
DOCKED: ENDROOT
DOCKED: BRANCH   1   2
DOCKED: ATOM      2  O   UNL     1     141.029  76.339 222.446 -0.18 +0.17    -0.530 OA 
DOCKED: ATOM      3  H   UNL     1     142.011  76.305 222.204 -0.44 -0.23    +0.290 HD 
DOCKED: ENDBRANCH   1   2
DOCKED: BRANCH   1   4
DOCKED: ATOM      4  N   UNL     1     140.579  74.001 221.957 -0.60 +0.02    -0.546 NA 
DOCKED: BRANCH   4   5
DOCKED: ATOM      5  N   UNL     1     139.936  72.990 222.686 -0.56 +0.05    -0.372 NA 
DOCKED: BRANCH   5   6
DOCKED: ATOM      6  C   UNL     1     140.547  71.885 222.969 -0.29 -0.01    +0.094 C  
DOCKED: BRANCH   6   7
DOCKED: ATOM      7  C   UNL     1     140.278  71.169 224.233 -0.45 +0.00    -0.009 A  
DOCKED: ATOM      8  C   UNL     1     139.542  69.975 224.203 -0.34 -0.00    +0.009 A  
DOCKED: ATOM      9  C   UNL     1     140.740  71.661 225.468 -0.52 -0.00    +0.022 A  
DOCKED: ATOM     10  C   UNL     1     139.264  69.289 225.386 -0.42 -0.00    +0.001 A  
DOCKED: ATOM     11  C   UNL     1     140.486  70.960 226.661 -0.59 -0.01    +0.056 A  
DOCKED: ATOM     12  C   UNL     1     139.723  69.780 226.610 -0.50 -0.00    +0.013 A  
DOCKED: BRANCH  11  13
DOCKED: ATOM     13  C   UNL     1     140.942  71.520 227.984 -0.40 -0.09    +0.416 C  
DOCKED: ATOM     14  F   UNL     1     139.839  71.923 228.712 -0.29 +0.05    -0.166 F  
DOCKED: ATOM     15  F   UNL     1     141.636  70.566 228.709 -0.13 +0.03    -0.166 F  
DOCKED: ATOM     16  F   UNL     1     141.778  72.606 227.791 -0.31 +0.04    -0.166 F  
DOCKED: ENDBRANCH  11  13
DOCKED: ENDBRANCH   6   7
DOCKED: ENDBRANCH   5   6
DOCKED: ENDBRANCH   4   5
DOCKED: ENDBRANCH   1   4
DOCKED: BRANCH   1  17
DOCKED: ATOM     17  C   UNL     1     138.916  75.714 221.580 -0.26 +0.00    -0.001 C  
DOCKED: BRANCH  17  18
DOCKED: ATOM     18  C   UNL     1     138.010  76.597 222.396 -0.26 -0.01    +0.071 C  
DOCKED: BRANCH  18  19
DOCKED: ATOM     19  C   UNL     1     137.415  77.726 221.555 -0.09 -0.04    +0.234 C  
DOCKED: BRANCH  19  20
DOCKED: ATOM     20  O   UNL     1     138.465  78.508 220.993 +0.01 +0.11    -0.492 OA 
DOCKED: BRANCH  20  21
DOCKED: ATOM     21  C   UNL     1     139.580  79.051 221.660 -0.16 -0.03    +0.137 A  
DOCKED: ATOM     22  C   UNL     1     139.309  79.705 222.871 -0.31 -0.01    +0.049 A  
DOCKED: ATOM     23  C   UNL     1     140.927  78.987 221.204 -0.25 -0.03    +0.084 A  
DOCKED: ATOM     24  C   UNL     1     140.334  80.272 223.630 -0.43 -0.00    +0.024 A  
DOCKED: ATOM     25  C   UNL     1     141.945  79.561 221.978 -0.45 -0.02    +0.045 A  
DOCKED: ATOM     26  C   UNL     1     141.652  80.199 223.185 -0.54 -0.01    +0.042 A  
DOCKED: ATOM     27  Cl  UNL     1     141.433  78.256 219.685 -0.32 +0.04    -0.080 Cl 
DOCKED: ATOM     28  Cl  UNL     1     142.942  80.912 224.138 -0.64 +0.01    -0.084 Cl 
DOCKED: ENDBRANCH  20  21
DOCKED: ENDBRANCH  19  20
DOCKED: ENDBRANCH  18  19
DOCKED: ENDBRANCH  17  18
DOCKED: ENDBRANCH   1  17
DOCKED: TORSDOF 11
DOCKED: TER
DOCKED: ENDMDL
________________________________________________________________________________


    FINAL DOCKED STATE:
    ________________________


Run:   5 / 20
Time taken for this run:   0.109s

DOCKED: MODEL        5
DOCKED: USER    Run = 5
DOCKED: USER
DOCKED: USER    Estimated Free Energy of Binding    =  -7.28 kcal/mol  [=(1)+(2)+(3)-(4)]
DOCKED: USER
DOCKED: USER    (1) Final Intermolecular Energy     = -10.56 kcal/mol
DOCKED: USER        vdW + Hbond + desolv Energy     = -10.56 kcal/mol
DOCKED: USER        Electrostatic Energy            =  -0.00 kcal/mol
DOCKED: USER        Moving Ligand-Fixed Receptor    = -10.56 kcal/mol
DOCKED: USER        Moving Ligand-Moving Receptor   =  +0.00 kcal/mol
DOCKED: USER    (2) Final Total Internal Energy     =  -0.93 kcal/mol
DOCKED: USER    (3) Torsional Free Energy           =  +3.28 kcal/mol
DOCKED: USER    (4) Unbound System's Energy         =  -0.93 kcal/mol
DOCKED: USER
DOCKED: USER
DOCKED: REMARK SMILES O/C(=C\CCOc1ccc(Cl)cc1Cl)[N-]/N=C/c1cccc(C(F)(F)F)c1
DOCKED: REMARK SMILES IDX 2 1 1 2 15 4 16 5 17 6 18 7 19 8 27 9 20 10 22 11 21 12
DOCKED: REMARK SMILES IDX 23 13 24 14 25 15 26 16 3 17 4 18 5 19 6 20 7 21 8 22 13 23
DOCKED: REMARK SMILES IDX 9 24 12 25 10 26 14 27 11 28
DOCKED: REMARK H PARENT 1 3
DOCKED: USER                              x       y       z     vdW  Elec       q    Type
DOCKED: USER                           _______ _______ _______ _____ _____    ______ ____
DOCKED: ROOT
DOCKED: ATOM      1  C   UNL     1     140.800  73.133 221.856 -0.27 -0.00    +0.023 C  
DOCKED: ENDROOT
DOCKED: BRANCH   1   2
DOCKED: ATOM      2  O   UNL     1     139.947  74.128 222.324 -0.73 +0.02    -0.530 OA 
DOCKED: ATOM      3  H   UNL     1     139.175  73.904 222.939 -0.47 -0.11    +0.290 HD 
DOCKED: ENDBRANCH   1   2
DOCKED: BRANCH   1   4
DOCKED: ATOM      4  N   UNL     1     140.604  71.788 222.309 -0.07 +0.06    -0.546 NA 
DOCKED: BRANCH   4   5
DOCKED: ATOM      5  N   UNL     1     139.585  71.436 223.206 -0.15 +0.08    -0.372 NA 
DOCKED: BRANCH   5   6
DOCKED: ATOM      6  C   UNL     1     139.523  70.244 223.705 -0.27 -0.02    +0.094 C  
DOCKED: BRANCH   6   7
DOCKED: ATOM      7  C   UNL     1     139.929  69.981 225.102 -0.42 +0.00    -0.009 A  
DOCKED: ATOM      8  C   UNL     1     139.934  68.662 225.578 -0.47 -0.00    +0.009 A  
DOCKED: ATOM      9  C   UNL     1     140.305  71.026 225.966 -0.56 -0.00    +0.022 A  
DOCKED: ATOM     10  C   UNL     1     140.300  68.390 226.897 -0.65 -0.00    +0.001 A  
DOCKED: ATOM     11  C   UNL     1     140.701  70.756 227.289 -0.62 -0.01    +0.056 A  
DOCKED: ATOM     12  C   UNL     1     140.672  69.429 227.753 -0.61 -0.00    +0.013 A  
DOCKED: BRANCH  11  13
DOCKED: ATOM     13  C   UNL     1     141.055  71.886 228.222 -0.32 -0.10    +0.416 C  
DOCKED: ATOM     14  F   UNL     1     139.934  72.247 228.946 -0.24 +0.06    -0.166 F  
DOCKED: ATOM     15  F   UNL     1     142.054  71.504 229.101 -0.17 +0.04    -0.166 F  
DOCKED: ATOM     16  F   UNL     1     141.505  72.984 227.509 -0.30 +0.04    -0.166 F  
DOCKED: ENDBRANCH  11  13
DOCKED: ENDBRANCH   6   7
DOCKED: ENDBRANCH   5   6
DOCKED: ENDBRANCH   4   5
DOCKED: ENDBRANCH   1   4
DOCKED: BRANCH   1  17
DOCKED: ATOM     17  C   UNL     1     141.787  73.441 221.001 -0.26 +0.00    -0.001 C  
DOCKED: BRANCH  17  18
DOCKED: ATOM     18  C   UNL     1     142.240  74.856 220.761 -0.25 -0.03    +0.071 C  
DOCKED: BRANCH  18  19
DOCKED: ATOM     19  C   UNL     1     141.273  75.613 219.852 -0.12 -0.08    +0.234 C  
DOCKED: BRANCH  19  20
DOCKED: ATOM     20  O   UNL     1     140.563  76.585 220.614 -0.03 +0.17    -0.492 OA 
DOCKED: BRANCH  20  21
DOCKED: ATOM     21  C   UNL     1     141.099  77.676 221.323 -0.27 -0.06    +0.137 A  
DOCKED: ATOM     22  C   UNL     1     141.036  77.587 222.721 -0.43 -0.02    +0.049 A  
DOCKED: ATOM     23  C   UNL     1     141.683  78.835 220.737 -0.28 -0.05    +0.084 A  
DOCKED: ATOM     24  C   UNL     1     141.548  78.601 223.533 -0.57 -0.01    +0.024 A  
DOCKED: ATOM     25  C   UNL     1     142.193  79.844 221.566 -0.40 -0.02    +0.045 A  
DOCKED: ATOM     26  C   UNL     1     142.128  79.729 222.956 -0.57 -0.01    +0.042 A  
DOCKED: ATOM     27  Cl  UNL     1     141.792  79.131 219.006 -0.35 +0.05    -0.080 Cl 
DOCKED: ATOM     28  Cl  UNL     1     142.771  81.005 223.975 -0.67 +0.01    -0.084 Cl 
DOCKED: ENDBRANCH  20  21
DOCKED: ENDBRANCH  19  20
DOCKED: ENDBRANCH  18  19
DOCKED: ENDBRANCH  17  18
DOCKED: ENDBRANCH   1  17
DOCKED: TORSDOF 11
DOCKED: TER
DOCKED: ENDMDL
________________________________________________________________________________


    FINAL DOCKED STATE:
    ________________________


Run:   6 / 20
Time taken for this run:   0.109s

DOCKED: MODEL        6
DOCKED: USER    Run = 6
DOCKED: USER
DOCKED: USER    Estimated Free Energy of Binding    =  -6.91 kcal/mol  [=(1)+(2)+(3)-(4)]
DOCKED: USER
DOCKED: USER    (1) Final Intermolecular Energy     = -10.19 kcal/mol
DOCKED: USER        vdW + Hbond + desolv Energy     = -10.27 kcal/mol
DOCKED: USER        Electrostatic Energy            =  +0.08 kcal/mol
DOCKED: USER        Moving Ligand-Fixed Receptor    = -10.19 kcal/mol
DOCKED: USER        Moving Ligand-Moving Receptor   =  +0.00 kcal/mol
DOCKED: USER    (2) Final Total Internal Energy     =  -1.33 kcal/mol
DOCKED: USER    (3) Torsional Free Energy           =  +3.28 kcal/mol
DOCKED: USER    (4) Unbound System's Energy         =  -1.33 kcal/mol
DOCKED: USER
DOCKED: USER
DOCKED: REMARK SMILES O/C(=C\CCOc1ccc(Cl)cc1Cl)[N-]/N=C/c1cccc(C(F)(F)F)c1
DOCKED: REMARK SMILES IDX 2 1 1 2 15 4 16 5 17 6 18 7 19 8 27 9 20 10 22 11 21 12
DOCKED: REMARK SMILES IDX 23 13 24 14 25 15 26 16 3 17 4 18 5 19 6 20 7 21 8 22 13 23
DOCKED: REMARK SMILES IDX 9 24 12 25 10 26 14 27 11 28
DOCKED: REMARK H PARENT 1 3
DOCKED: USER                              x       y       z     vdW  Elec       q    Type
DOCKED: USER                           _______ _______ _______ _____ _____    ______ ____
DOCKED: ROOT
DOCKED: ATOM      1  C   UNL     1     140.724  75.022 221.628 -0.32 -0.00    +0.023 C  
DOCKED: ENDROOT
DOCKED: BRANCH   1   2
DOCKED: ATOM      2  O   UNL     1     140.979  76.036 222.548 -0.15 +0.13    -0.530 OA 
DOCKED: ATOM      3  H   UNL     1     141.820  76.595 222.485 -0.40 -0.20    +0.290 HD 
DOCKED: ENDBRANCH   1   2
DOCKED: BRANCH   1   4
DOCKED: ATOM      4  N   UNL     1     140.032  73.848 222.071 -0.64 +0.05    -0.546 NA 
DOCKED: BRANCH   4   5
DOCKED: ATOM      5  N   UNL     1     140.682  72.792 222.725 -0.44 -0.00    -0.372 NA 
DOCKED: BRANCH   5   6
DOCKED: ATOM      6  C   UNL     1     140.106  71.642 222.862 -0.30 -0.01    +0.094 C  
DOCKED: BRANCH   6   7
DOCKED: ATOM      7  C   UNL     1     140.004  70.994 224.186 -0.43 +0.00    -0.009 A  
DOCKED: ATOM      8  C   UNL     1     139.378  69.743 224.293 -0.33 -0.00    +0.009 A  
DOCKED: ATOM      9  C   UNL     1     140.517  71.607 225.345 -0.49 -0.00    +0.022 A  
DOCKED: ATOM     10  C   UNL     1     139.258  69.118 225.535 -0.44 -0.00    +0.001 A  
DOCKED: ATOM     11  C   UNL     1     140.423  70.970 226.595 -0.58 -0.01    +0.056 A  
DOCKED: ATOM     12  C   UNL     1     139.767  69.730 226.683 -0.51 -0.00    +0.013 A  
DOCKED: BRANCH  11  13
DOCKED: ATOM     13  C   UNL     1     140.932  71.656 227.839 -0.40 -0.09    +0.416 C  
DOCKED: ATOM     14  F   UNL     1     141.579  70.731 228.635 -0.15 +0.03    -0.166 F  
DOCKED: ATOM     15  F   UNL     1     141.817  72.669 227.513 -0.34 +0.03    -0.166 F  
DOCKED: ATOM     16  F   UNL     1     139.884  72.212 228.551 -0.28 +0.05    -0.166 F  
DOCKED: ENDBRANCH  11  13
DOCKED: ENDBRANCH   6   7
DOCKED: ENDBRANCH   5   6
DOCKED: ENDBRANCH   4   5
DOCKED: ENDBRANCH   1   4
DOCKED: BRANCH   1  17
DOCKED: ATOM     17  C   UNL     1     141.129  75.152 220.356 -0.23 +0.00    -0.001 C  
DOCKED: BRANCH  17  18
DOCKED: ATOM     18  C   UNL     1     142.239  76.083 219.949 -0.28 -0.04    +0.071 C  
DOCKED: BRANCH  18  19
DOCKED: ATOM     19  C   UNL     1     141.758  77.532 219.864 -0.19 -0.13    +0.234 C  
DOCKED: BRANCH  19  20
DOCKED: ATOM     20  O   UNL     1     142.057  78.206 221.083 -0.10 +0.35    -0.492 OA 
DOCKED: BRANCH  20  21
DOCKED: ATOM     21  C   UNL     1     141.162  78.894 221.923 -0.31 -0.05    +0.137 A  
DOCKED: ATOM     22  C   UNL     1     139.807  78.566 221.773 -0.23 -0.01    +0.049 A  
DOCKED: ATOM     23  C   UNL     1     141.524  79.876 222.889 -0.47 -0.02    +0.084 A  
DOCKED: ATOM     24  C   UNL     1     138.826  79.171 222.559 -0.26 -0.00    +0.024 A  
DOCKED: ATOM     25  C   UNL     1     140.527  80.475 223.671 -0.42 -0.01    +0.045 A  
DOCKED: ATOM     26  C   UNL     1     139.185  80.125 223.510 -0.38 -0.01    +0.042 A  
DOCKED: ATOM     27  Cl  UNL     1     143.167  80.443 223.167 -0.72 +0.02    -0.080 Cl 
DOCKED: ATOM     28  Cl  UNL     1     137.952  80.889 224.498 -0.47 +0.01    -0.084 Cl 
DOCKED: ENDBRANCH  20  21
DOCKED: ENDBRANCH  19  20
DOCKED: ENDBRANCH  18  19
DOCKED: ENDBRANCH  17  18
DOCKED: ENDBRANCH   1  17
DOCKED: TORSDOF 11
DOCKED: TER
DOCKED: ENDMDL
________________________________________________________________________________


    FINAL DOCKED STATE:
    ________________________


Run:   7 / 20
Time taken for this run:   0.109s

DOCKED: MODEL        7
DOCKED: USER    Run = 7
DOCKED: USER
DOCKED: USER    Estimated Free Energy of Binding    =  -6.15 kcal/mol  [=(1)+(2)+(3)-(4)]
DOCKED: USER
DOCKED: USER    (1) Final Intermolecular Energy     =  -9.43 kcal/mol
DOCKED: USER        vdW + Hbond + desolv Energy     =  -9.47 kcal/mol
DOCKED: USER        Electrostatic Energy            =  +0.04 kcal/mol
DOCKED: USER        Moving Ligand-Fixed Receptor    =  -9.43 kcal/mol
DOCKED: USER        Moving Ligand-Moving Receptor   =  +0.00 kcal/mol
DOCKED: USER    (2) Final Total Internal Energy     =  -1.34 kcal/mol
DOCKED: USER    (3) Torsional Free Energy           =  +3.28 kcal/mol
DOCKED: USER    (4) Unbound System's Energy         =  -1.34 kcal/mol
DOCKED: USER
DOCKED: USER
DOCKED: REMARK SMILES O/C(=C\CCOc1ccc(Cl)cc1Cl)[N-]/N=C/c1cccc(C(F)(F)F)c1
DOCKED: REMARK SMILES IDX 2 1 1 2 15 4 16 5 17 6 18 7 19 8 27 9 20 10 22 11 21 12
DOCKED: REMARK SMILES IDX 23 13 24 14 25 15 26 16 3 17 4 18 5 19 6 20 7 21 8 22 13 23
DOCKED: REMARK SMILES IDX 9 24 12 25 10 26 14 27 11 28
DOCKED: REMARK H PARENT 1 3
DOCKED: USER                              x       y       z     vdW  Elec       q    Type
DOCKED: USER                           _______ _______ _______ _____ _____    ______ ____
DOCKED: ROOT
DOCKED: ATOM      1  C   UNL     1     140.179  75.025 221.607 -0.31 -0.00    +0.023 C  
DOCKED: ENDROOT
DOCKED: BRANCH   1   2
DOCKED: ATOM      2  O   UNL     1     139.170  75.537 222.418 -0.29 +0.11    -0.530 OA 
DOCKED: ATOM      3  H   UNL     1     138.790  74.991 223.181 -0.45 -0.13    +0.290 HD 
DOCKED: ENDBRANCH   1   2
DOCKED: BRANCH   1   4
DOCKED: ATOM      4  N   UNL     1     140.731  73.740 221.921 -0.54 +0.02    -0.546 NA 
DOCKED: BRANCH   4   5
DOCKED: ATOM      5  N   UNL     1     140.325  73.000 223.041 -0.35 -0.00    -0.372 NA 
DOCKED: BRANCH   5   6
DOCKED: ATOM      6  C   UNL     1     140.316  71.706 223.012 -0.31 -0.01    +0.094 C  
DOCKED: BRANCH   6   7
DOCKED: ATOM      7  C   UNL     1     140.184  70.918 224.255 -0.43 +0.00    -0.009 A  
DOCKED: ATOM      8  C   UNL     1     139.615  69.637 224.199 -0.31 -0.00    +0.009 A  
DOCKED: ATOM      9  C   UNL     1     140.610  71.428 225.496 -0.56 -0.00    +0.022 A  
DOCKED: ATOM     10  C   UNL     1     139.467  68.880 225.362 -0.45 -0.00    +0.001 A  
DOCKED: ATOM     11  C   UNL     1     140.488  70.659 226.668 -0.56 -0.01    +0.056 A  
DOCKED: ATOM     12  C   UNL     1     139.890  69.388 226.592 -0.52 -0.00    +0.013 A  
DOCKED: BRANCH  11  13
DOCKED: ATOM     13  C   UNL     1     140.903  71.231 228.000 -0.35 -0.08    +0.416 C  
DOCKED: ATOM     14  F   UNL     1     141.579  70.265 228.720 -0.13 +0.03    -0.166 F  
DOCKED: ATOM     15  F   UNL     1     141.732  72.326 227.827 -0.33 +0.03    -0.166 F  
DOCKED: ATOM     16  F   UNL     1     139.795  71.639 228.721 -0.27 +0.04    -0.166 F  
DOCKED: ENDBRANCH  11  13
DOCKED: ENDBRANCH   6   7
DOCKED: ENDBRANCH   5   6
DOCKED: ENDBRANCH   4   5
DOCKED: ENDBRANCH   1   4
DOCKED: BRANCH   1  17
DOCKED: ATOM     17  C   UNL     1     140.620  75.733 220.556 -0.23 +0.00    -0.001 C  
DOCKED: BRANCH  17  18
DOCKED: ATOM     18  C   UNL     1     141.810  76.650 220.638 -0.19 -0.04    +0.071 C  
DOCKED: BRANCH  18  19
DOCKED: ATOM     19  C   UNL     1     142.776  76.426 219.475 -0.25 -0.14    +0.234 C  
DOCKED: BRANCH  19  20
DOCKED: ATOM     20  O   UNL     1     143.787  75.501 219.866 -0.19 +0.29    -0.492 OA 
DOCKED: BRANCH  20  21
DOCKED: ATOM     21  C   UNL     1     143.725  74.095 219.820 -0.28 -0.04    +0.137 A  
DOCKED: ATOM     22  C   UNL     1     142.588  73.552 219.205 -0.14 -0.01    +0.049 A  
DOCKED: ATOM     23  C   UNL     1     144.710  73.209 220.342 -0.42 -0.01    +0.084 A  
DOCKED: ATOM     24  C   UNL     1     142.421  72.172 219.087 -0.10 -0.00    +0.024 A  
DOCKED: ATOM     25  C   UNL     1     144.527  71.824 220.215 -0.28 -0.00    +0.045 A  
DOCKED: ATOM     26  C   UNL     1     143.391  71.307 219.590 -0.18 -0.00    +0.042 A  
DOCKED: ATOM     27  Cl  UNL     1     146.165  73.720 221.189 -0.83 +0.01    -0.080 Cl 
DOCKED: ATOM     28  Cl  UNL     1     143.181  69.571 219.443 -0.22 +0.01    -0.084 Cl 
DOCKED: ENDBRANCH  20  21
DOCKED: ENDBRANCH  19  20
DOCKED: ENDBRANCH  18  19
DOCKED: ENDBRANCH  17  18
DOCKED: ENDBRANCH   1  17
DOCKED: TORSDOF 11
DOCKED: TER
DOCKED: ENDMDL
________________________________________________________________________________


    FINAL DOCKED STATE:
    ________________________


Run:   8 / 20
Time taken for this run:   0.109s

DOCKED: MODEL        8
DOCKED: USER    Run = 8
DOCKED: USER
DOCKED: USER    Estimated Free Energy of Binding    =  -6.61 kcal/mol  [=(1)+(2)+(3)-(4)]
DOCKED: USER
DOCKED: USER    (1) Final Intermolecular Energy     =  -9.89 kcal/mol
DOCKED: USER        vdW + Hbond + desolv Energy     =  -9.98 kcal/mol
DOCKED: USER        Electrostatic Energy            =  +0.09 kcal/mol
DOCKED: USER        Moving Ligand-Fixed Receptor    =  -9.89 kcal/mol
DOCKED: USER        Moving Ligand-Moving Receptor   =  +0.00 kcal/mol
DOCKED: USER    (2) Final Total Internal Energy     =  -1.31 kcal/mol
DOCKED: USER    (3) Torsional Free Energy           =  +3.28 kcal/mol
DOCKED: USER    (4) Unbound System's Energy         =  -1.31 kcal/mol
DOCKED: USER
DOCKED: USER
DOCKED: REMARK SMILES O/C(=C\CCOc1ccc(Cl)cc1Cl)[N-]/N=C/c1cccc(C(F)(F)F)c1
DOCKED: REMARK SMILES IDX 2 1 1 2 15 4 16 5 17 6 18 7 19 8 27 9 20 10 22 11 21 12
DOCKED: REMARK SMILES IDX 23 13 24 14 25 15 26 16 3 17 4 18 5 19 6 20 7 21 8 22 13 23
DOCKED: REMARK SMILES IDX 9 24 12 25 10 26 14 27 11 28
DOCKED: REMARK H PARENT 1 3
DOCKED: USER                              x       y       z     vdW  Elec       q    Type
DOCKED: USER                           _______ _______ _______ _____ _____    ______ ____
DOCKED: ROOT
DOCKED: ATOM      1  C   UNL     1     140.204  71.669 222.358 -0.29 -0.00    +0.023 C  
DOCKED: ENDROOT
DOCKED: BRANCH   1   2
DOCKED: ATOM      2  O   UNL     1     140.057  72.632 223.352 -0.30 +0.08    -0.530 OA 
DOCKED: ATOM      3  H   UNL     1     139.547  73.488 223.175 -0.41 -0.07    +0.290 HD 
DOCKED: ENDBRANCH   1   2
DOCKED: BRANCH   1   4
DOCKED: ATOM      4  N   UNL     1     139.507  70.425 222.496 +0.00 +0.10    -0.546 NA 
DOCKED: BRANCH   4   5
DOCKED: ATOM      5  N   UNL     1     138.806  70.079 223.660 -0.09 +0.07    -0.372 NA 
DOCKED: BRANCH   5   6
DOCKED: ATOM      6  C   UNL     1     139.116  69.017 224.331 -0.30 -0.01    +0.094 C  
DOCKED: BRANCH   6   7
DOCKED: ATOM      7  C   UNL     1     139.796  69.113 225.639 -0.46 +0.00    -0.009 A  
DOCKED: ATOM      8  C   UNL     1     140.137  67.937 226.324 -0.64 -0.00    +0.009 A  
DOCKED: ATOM      9  C   UNL     1     140.104  70.359 226.216 -0.52 -0.00    +0.022 A  
DOCKED: ATOM     10  C   UNL     1     140.768  68.004 227.567 -0.65 -0.00    +0.001 A  
DOCKED: ATOM     11  C   UNL     1     140.764  70.432 227.456 -0.58 -0.01    +0.056 A  
DOCKED: ATOM     12  C   UNL     1     141.071  69.242 228.137 -0.60 -0.00    +0.013 A  
DOCKED: BRANCH  11  13
DOCKED: ATOM     13  C   UNL     1     141.046  71.772 228.089 -0.37 -0.10    +0.416 C  
DOCKED: ATOM     14  F   UNL     1     139.899  72.234 228.706 -0.29 +0.06    -0.166 F  
DOCKED: ATOM     15  F   UNL     1     142.054  71.667 229.033 -0.17 +0.04    -0.166 F  
DOCKED: ATOM     16  F   UNL     1     141.445  72.688 227.132 -0.33 +0.03    -0.166 F  
DOCKED: ENDBRANCH  11  13
DOCKED: ENDBRANCH   6   7
DOCKED: ENDBRANCH   5   6
DOCKED: ENDBRANCH   4   5
DOCKED: ENDBRANCH   1   4
DOCKED: BRANCH   1  17
DOCKED: ATOM     17  C   UNL     1     140.990  71.912 221.299 -0.23 +0.00    -0.001 C  
DOCKED: BRANCH  17  18
DOCKED: ATOM     18  C   UNL     1     140.776  73.086 220.382 -0.14 -0.01    +0.071 C  
DOCKED: BRANCH  18  19
DOCKED: ATOM     19  C   UNL     1     141.252  74.392 221.018 -0.20 -0.05    +0.234 C  
DOCKED: BRANCH  19  20
DOCKED: ATOM     20  O   UNL     1     140.293  74.834 221.975 -0.64 +0.05    -0.492 OA 
DOCKED: BRANCH  20  21
DOCKED: ATOM     21  C   UNL     1     139.985  76.161 222.329 -0.30 -0.03    +0.137 A  
DOCKED: ATOM     22  C   UNL     1     141.081  77.017 222.510 -0.36 -0.02    +0.049 A  
DOCKED: ATOM     23  C   UNL     1     138.673  76.682 222.513 -0.27 -0.02    +0.084 A  
DOCKED: ATOM     24  C   UNL     1     140.901  78.359 222.848 -0.47 -0.01    +0.024 A  
DOCKED: ATOM     25  C   UNL     1     138.508  78.033 222.852 -0.25 -0.01    +0.045 A  
DOCKED: ATOM     26  C   UNL     1     139.615  78.868 223.018 -0.35 -0.01    +0.042 A  
DOCKED: ATOM     27  Cl  UNL     1     137.195  75.736 222.379 -0.29 +0.02    -0.080 Cl 
DOCKED: ATOM     28  Cl  UNL     1     139.387  80.555 223.444 -0.49 +0.01    -0.084 Cl 
DOCKED: ENDBRANCH  20  21
DOCKED: ENDBRANCH  19  20
DOCKED: ENDBRANCH  18  19
DOCKED: ENDBRANCH  17  18
DOCKED: ENDBRANCH   1  17
DOCKED: TORSDOF 11
DOCKED: TER
DOCKED: ENDMDL
________________________________________________________________________________


    FINAL DOCKED STATE:
    ________________________


Run:   9 / 20
Time taken for this run:   0.109s

DOCKED: MODEL        9
DOCKED: USER    Run = 9
DOCKED: USER
DOCKED: USER    Estimated Free Energy of Binding    =  -6.12 kcal/mol  [=(1)+(2)+(3)-(4)]
DOCKED: USER
DOCKED: USER    (1) Final Intermolecular Energy     =  -9.40 kcal/mol
DOCKED: USER        vdW + Hbond + desolv Energy     =  -9.58 kcal/mol
DOCKED: USER        Electrostatic Energy            =  +0.19 kcal/mol
DOCKED: USER        Moving Ligand-Fixed Receptor    =  -9.40 kcal/mol
DOCKED: USER        Moving Ligand-Moving Receptor   =  +0.00 kcal/mol
DOCKED: USER    (2) Final Total Internal Energy     =  -1.01 kcal/mol
DOCKED: USER    (3) Torsional Free Energy           =  +3.28 kcal/mol
DOCKED: USER    (4) Unbound System's Energy         =  -1.01 kcal/mol
DOCKED: USER
DOCKED: USER
DOCKED: REMARK SMILES O/C(=C\CCOc1ccc(Cl)cc1Cl)[N-]/N=C/c1cccc(C(F)(F)F)c1
DOCKED: REMARK SMILES IDX 2 1 1 2 15 4 16 5 17 6 18 7 19 8 27 9 20 10 22 11 21 12
DOCKED: REMARK SMILES IDX 23 13 24 14 25 15 26 16 3 17 4 18 5 19 6 20 7 21 8 22 13 23
DOCKED: REMARK SMILES IDX 9 24 12 25 10 26 14 27 11 28
DOCKED: REMARK H PARENT 1 3
DOCKED: USER                              x       y       z     vdW  Elec       q    Type
DOCKED: USER                           _______ _______ _______ _____ _____    ______ ____
DOCKED: ROOT
DOCKED: ATOM      1  C   UNL     1     139.426  74.526 221.515 -0.26 -0.00    +0.023 C  
DOCKED: ENDROOT
DOCKED: BRANCH   1   2
DOCKED: ATOM      2  O   UNL     1     140.575  75.272 221.766 -0.38 +0.09    -0.530 OA 
DOCKED: ATOM      3  H   UNL     1     141.382  74.850 222.205 +0.08 -0.01    +0.290 HD 
DOCKED: ENDBRANCH   1   2
DOCKED: BRANCH   1   4
DOCKED: ATOM      4  N   UNL     1     139.380  73.164 221.956 -0.18 +0.11    -0.546 NA 
DOCKED: BRANCH   4   5
DOCKED: ATOM      5  N   UNL     1     140.350  72.614 222.805 -0.45 +0.03    -0.372 NA 
DOCKED: BRANCH   5   6
DOCKED: ATOM      6  C   UNL     1     140.387  71.341 223.034 -0.26 -0.01    +0.094 C  
DOCKED: BRANCH   6   7
DOCKED: ATOM      7  C   UNL     1     140.247  70.809 224.406 -0.44 +0.00    -0.009 A  
DOCKED: ATOM      8  C   UNL     1     139.635  69.562 224.601 -0.35 -0.00    +0.009 A  
DOCKED: ATOM      9  C   UNL     1     140.710  71.530 225.523 -0.57 -0.00    +0.022 A  
DOCKED: ATOM     10  C   UNL     1     139.480  69.047 225.888 -0.48 -0.00    +0.001 A  
DOCKED: ATOM     11  C   UNL     1     140.580  71.004 226.821 -0.61 -0.01    +0.056 A  
DOCKED: ATOM     12  C   UNL     1     139.939  69.765 226.995 -0.55 -0.00    +0.013 A  
DOCKED: BRANCH  11  13
DOCKED: ATOM     13  C   UNL     1     141.035  71.805 228.015 -0.39 -0.10    +0.416 C  
DOCKED: ATOM     14  F   UNL     1     141.828  71.010 228.820 -0.13 +0.03    -0.166 F  
DOCKED: ATOM     15  F   UNL     1     141.764  72.912 227.616 -0.29 +0.04    -0.166 F  
DOCKED: ATOM     16  F   UNL     1     139.947  72.246 228.748 -0.28 +0.06    -0.166 F  
DOCKED: ENDBRANCH  11  13
DOCKED: ENDBRANCH   6   7
DOCKED: ENDBRANCH   5   6
DOCKED: ENDBRANCH   4   5
DOCKED: ENDBRANCH   1   4
DOCKED: BRANCH   1  17
DOCKED: ATOM     17  C   UNL     1     138.391  75.083 220.868 -0.14 +0.00    -0.001 C  
DOCKED: BRANCH  17  18
DOCKED: ATOM     18  C   UNL     1     137.457  76.063 221.523 -0.15 -0.02    +0.071 C  
DOCKED: BRANCH  18  19
DOCKED: ATOM     19  C   UNL     1     138.004  76.555 222.863 -0.16 -0.05    +0.234 C  
DOCKED: BRANCH  19  20
DOCKED: ATOM     20  O   UNL     1     138.144  77.972 222.830 -0.09 +0.08    -0.492 OA 
DOCKED: BRANCH  20  21
DOCKED: ATOM     21  C   UNL     1     139.302  78.725 223.103 -0.28 -0.02    +0.137 A  
DOCKED: ATOM     22  C   UNL     1     140.523  78.083 222.849 -0.38 -0.01    +0.049 A  
DOCKED: ATOM     23  C   UNL     1     139.322  80.056 223.609 -0.37 -0.01    +0.084 A  
DOCKED: ATOM     24  C   UNL     1     141.739  78.732 223.067 -0.55 -0.01    +0.024 A  
DOCKED: ATOM     25  C   UNL     1     140.552  80.694 223.823 -0.38 -0.01    +0.045 A  
DOCKED: ATOM     26  C   UNL     1     141.754  80.038 223.553 -0.57 -0.01    +0.042 A  
DOCKED: ATOM     27  Cl  UNL     1     137.888  80.984 224.033 -0.43 +0.01    -0.080 Cl 
DOCKED: ATOM     28  Cl  UNL     1     143.283  80.855 223.830 -0.56 +0.02    -0.084 Cl 
DOCKED: ENDBRANCH  20  21
DOCKED: ENDBRANCH  19  20
DOCKED: ENDBRANCH  18  19
DOCKED: ENDBRANCH  17  18
DOCKED: ENDBRANCH   1  17
DOCKED: TORSDOF 11
DOCKED: TER
DOCKED: ENDMDL
________________________________________________________________________________


    FINAL DOCKED STATE:
    ________________________


Run:   10 / 20
Time taken for this run:   0.109s

DOCKED: MODEL        10
DOCKED: USER    Run = 10
DOCKED: USER
DOCKED: USER    Estimated Free Energy of Binding    =  -6.82 kcal/mol  [=(1)+(2)+(3)-(4)]
DOCKED: USER
DOCKED: USER    (1) Final Intermolecular Energy     = -10.10 kcal/mol
DOCKED: USER        vdW + Hbond + desolv Energy     = -10.00 kcal/mol
DOCKED: USER        Electrostatic Energy            =  -0.11 kcal/mol
DOCKED: USER        Moving Ligand-Fixed Receptor    = -10.10 kcal/mol
DOCKED: USER        Moving Ligand-Moving Receptor   =  +0.00 kcal/mol
DOCKED: USER    (2) Final Total Internal Energy     =  -0.66 kcal/mol
DOCKED: USER    (3) Torsional Free Energy           =  +3.28 kcal/mol
DOCKED: USER    (4) Unbound System's Energy         =  -0.66 kcal/mol
DOCKED: USER
DOCKED: USER
DOCKED: REMARK SMILES O/C(=C\CCOc1ccc(Cl)cc1Cl)[N-]/N=C/c1cccc(C(F)(F)F)c1
DOCKED: REMARK SMILES IDX 2 1 1 2 15 4 16 5 17 6 18 7 19 8 27 9 20 10 22 11 21 12
DOCKED: REMARK SMILES IDX 23 13 24 14 25 15 26 16 3 17 4 18 5 19 6 20 7 21 8 22 13 23
DOCKED: REMARK SMILES IDX 9 24 12 25 10 26 14 27 11 28
DOCKED: REMARK H PARENT 1 3
DOCKED: USER                              x       y       z     vdW  Elec       q    Type
DOCKED: USER                           _______ _______ _______ _____ _____    ______ ____
DOCKED: ROOT
DOCKED: ATOM      1  C   UNL     1     139.947  74.203 221.627 -0.28 -0.00    +0.023 C  
DOCKED: ENDROOT
DOCKED: BRANCH   1   2
DOCKED: ATOM      2  O   UNL     1     138.859  74.718 222.326 -0.28 +0.15    -0.530 OA 
DOCKED: ATOM      3  H   UNL     1     138.432  74.197 223.081 -0.50 -0.21    +0.290 HD 
DOCKED: ENDBRANCH   1   2
DOCKED: BRANCH   1   4
DOCKED: ATOM      4  N   UNL     1     140.908  73.411 222.336 -0.37 -0.03    -0.546 NA 
DOCKED: BRANCH   4   5
DOCKED: ATOM      5  N   UNL     1     140.772  72.025 222.496 -0.18 +0.03    -0.372 NA 
DOCKED: BRANCH   5   6
DOCKED: ATOM      6  C   UNL     1     139.733  71.524 223.082 -0.30 -0.02    +0.094 C  
DOCKED: BRANCH   6   7
DOCKED: ATOM      7  C   UNL     1     139.849  70.853 224.394 -0.43 +0.00    -0.009 A  
DOCKED: ATOM      8  C   UNL     1     139.406  69.529 224.530 -0.35 -0.00    +0.009 A  
DOCKED: ATOM      9  C   UNL     1     140.388  71.516 225.512 -0.53 -0.00    +0.022 A  
DOCKED: ATOM     10  C   UNL     1     139.493  68.880 225.763 -0.48 -0.00    +0.001 A  
DOCKED: ATOM     11  C   UNL     1     140.502  70.858 226.750 -0.58 -0.01    +0.056 A  
DOCKED: ATOM     12  C   UNL     1     140.027  69.541 226.870 -0.55 -0.00    +0.013 A  
DOCKED: BRANCH  11  13
DOCKED: ATOM     13  C   UNL     1     141.036  71.592 227.955 -0.40 -0.09    +0.416 C  
DOCKED: ATOM     14  F   UNL     1     139.977  72.061 228.708 -0.29 +0.05    -0.166 F  
DOCKED: ATOM     15  F   UNL     1     141.809  70.753 228.739 -0.12 +0.03    -0.166 F  
DOCKED: ATOM     16  F   UNL     1     141.821  72.663 227.565 -0.34 +0.03    -0.166 F  
DOCKED: ENDBRANCH  11  13
DOCKED: ENDBRANCH   6   7
DOCKED: ENDBRANCH   5   6
DOCKED: ENDBRANCH   4   5
DOCKED: ENDBRANCH   1   4
DOCKED: BRANCH   1  17
DOCKED: ATOM     17  C   UNL     1     140.083  74.453 220.316 -0.15 +0.00    -0.001 C  
DOCKED: BRANCH  17  18
DOCKED: ATOM     18  C   UNL     1     141.423  74.670 219.666 -0.15 -0.02    +0.071 C  
DOCKED: BRANCH  18  19
DOCKED: ATOM     19  C   UNL     1     142.153  75.871 220.266 -0.17 -0.12    +0.234 C  
DOCKED: BRANCH  19  20
DOCKED: ATOM     20  O   UNL     1     141.203  76.846 220.689 -0.07 +0.22    -0.492 OA 
DOCKED: BRANCH  20  21
DOCKED: ATOM     21  C   UNL     1     141.447  78.011 221.439 -0.28 -0.07    +0.137 A  
DOCKED: ATOM     22  C   UNL     1     141.368  77.870 222.832 -0.40 -0.02    +0.049 A  
DOCKED: ATOM     23  C   UNL     1     141.759  79.291 220.899 -0.30 -0.04    +0.084 A  
DOCKED: ATOM     24  C   UNL     1     141.604  78.951 223.682 -0.59 -0.01    +0.024 A  
DOCKED: ATOM     25  C   UNL     1     141.994  80.367 221.766 -0.44 -0.02    +0.045 A  
DOCKED: ATOM     26  C   UNL     1     141.918  80.200 223.149 -0.57 -0.01    +0.042 A  
DOCKED: ATOM     27  Cl  UNL     1     141.845  79.654 219.179 -0.36 +0.05    -0.080 Cl 
DOCKED: ATOM     28  Cl  UNL     1     142.214  81.561 224.217 -0.55 +0.01    -0.084 Cl 
DOCKED: ENDBRANCH  20  21
DOCKED: ENDBRANCH  19  20
DOCKED: ENDBRANCH  18  19
DOCKED: ENDBRANCH  17  18
DOCKED: ENDBRANCH   1  17
DOCKED: TORSDOF 11
DOCKED: TER
DOCKED: ENDMDL
________________________________________________________________________________


    FINAL DOCKED STATE:
    ________________________


Run:   11 / 20
Time taken for this run:   0.109s

DOCKED: MODEL        11
DOCKED: USER    Run = 11
DOCKED: USER
DOCKED: USER    Estimated Free Energy of Binding    =  -5.19 kcal/mol  [=(1)+(2)+(3)-(4)]
DOCKED: USER
DOCKED: USER    (1) Final Intermolecular Energy     =  -8.47 kcal/mol
DOCKED: USER        vdW + Hbond + desolv Energy     =  -8.43 kcal/mol
DOCKED: USER        Electrostatic Energy            =  -0.04 kcal/mol
DOCKED: USER        Moving Ligand-Fixed Receptor    =  -8.47 kcal/mol
DOCKED: USER        Moving Ligand-Moving Receptor   =  +0.00 kcal/mol
DOCKED: USER    (2) Final Total Internal Energy     =  -1.96 kcal/mol
DOCKED: USER    (3) Torsional Free Energy           =  +3.28 kcal/mol
DOCKED: USER    (4) Unbound System's Energy         =  -1.96 kcal/mol
DOCKED: USER
DOCKED: USER
DOCKED: REMARK SMILES O/C(=C\CCOc1ccc(Cl)cc1Cl)[N-]/N=C/c1cccc(C(F)(F)F)c1
DOCKED: REMARK SMILES IDX 2 1 1 2 15 4 16 5 17 6 18 7 19 8 27 9 20 10 22 11 21 12
DOCKED: REMARK SMILES IDX 23 13 24 14 25 15 26 16 3 17 4 18 5 19 6 20 7 21 8 22 13 23
DOCKED: REMARK SMILES IDX 9 24 12 25 10 26 14 27 11 28
DOCKED: REMARK H PARENT 1 3
DOCKED: USER                              x       y       z     vdW  Elec       q    Type
DOCKED: USER                           _______ _______ _______ _____ _____    ______ ____
DOCKED: ROOT
DOCKED: ATOM      1  C   UNL     1     139.954  72.562 222.153 -0.29 -0.00    +0.023 C  
DOCKED: ENDROOT
DOCKED: BRANCH   1   2
DOCKED: ATOM      2  O   UNL     1     138.657  72.652 222.652 -0.05 +0.18    -0.530 OA 
DOCKED: ATOM      3  H   UNL     1     138.285  73.536 222.976 -0.48 -0.19    +0.290 HD 
DOCKED: ENDBRANCH   1   2
DOCKED: BRANCH   1   4
DOCKED: ATOM      4  N   UNL     1     140.710  73.766 221.978 -0.59 +0.01    -0.546 NA 
DOCKED: BRANCH   4   5
DOCKED: ATOM      5  N   UNL     1     140.154  75.039 222.168 -0.55 +0.03    -0.372 NA 
DOCKED: BRANCH   5   6
DOCKED: ATOM      6  C   UNL     1     140.734  76.094 221.695 -0.33 -0.03    +0.094 C  
DOCKED: BRANCH   6   7
DOCKED: ATOM      7  C   UNL     1     140.496  77.426 222.290 -0.41 +0.00    -0.009 A  
DOCKED: ATOM      8  C   UNL     1     139.207  77.760 222.733 -0.30 -0.00    +0.009 A  
DOCKED: ATOM      9  C   UNL     1     141.533  78.370 222.415 -0.43 -0.01    +0.022 A  
DOCKED: ATOM     10  C   UNL     1     138.955  79.017 223.284 -0.34 -0.00    +0.001 A  
DOCKED: ATOM     11  C   UNL     1     141.290  79.629 222.995 -0.48 -0.02    +0.056 A  
DOCKED: ATOM     12  C   UNL     1     139.986  79.952 223.407 -0.43 -0.00    +0.013 A  
DOCKED: BRANCH  11  13
DOCKED: ATOM     13  C   UNL     1     142.396  80.651 223.081 -0.31 -0.10    +0.416 C  
DOCKED: ATOM     14  F   UNL     1     142.231  81.584 222.075 -0.15 +0.04    -0.166 F  
DOCKED: ATOM     15  F   UNL     1     142.372  81.299 224.304 -0.23 +0.02    -0.166 F  
DOCKED: ATOM     16  F   UNL     1     143.632  80.046 222.937 -0.24 +0.06    -0.166 F  
DOCKED: ENDBRANCH  11  13
DOCKED: ENDBRANCH   6   7
DOCKED: ENDBRANCH   5   6
DOCKED: ENDBRANCH   4   5
DOCKED: ENDBRANCH   1   4
DOCKED: BRANCH   1  17
DOCKED: ATOM     17  C   UNL     1     140.472  71.364 221.842 -0.21 +0.00    -0.001 C  
DOCKED: BRANCH  17  18
DOCKED: ATOM     18  C   UNL     1     141.206  71.108 220.554 -0.12 -0.01    +0.071 C  
DOCKED: BRANCH  18  19
DOCKED: ATOM     19  C   UNL     1     142.679  71.505 220.655 -0.11 -0.03    +0.234 C  
DOCKED: BRANCH  19  20
DOCKED: ATOM     20  O   UNL     1     143.039  72.293 219.524 -0.00 +0.06    -0.492 OA 
DOCKED: BRANCH  20  21
DOCKED: ATOM     21  C   UNL     1     142.973  73.694 219.400 -0.16 -0.03    +0.137 A  
DOCKED: ATOM     22  C   UNL     1     141.870  74.193 218.692 -0.08 -0.01    +0.049 A  
DOCKED: ATOM     23  C   UNL     1     143.922  74.616 219.925 -0.37 -0.03    +0.084 A  
DOCKED: ATOM     24  C   UNL     1     141.687  75.565 218.514 -0.12 -0.01    +0.024 A  
DOCKED: ATOM     25  C   UNL     1     143.725  75.991 219.738 -0.39 -0.03    +0.045 A  
DOCKED: ATOM     26  C   UNL     1     142.614  76.465 219.038 -0.30 -0.02    +0.042 A  
DOCKED: ATOM     27  Cl  UNL     1     145.386  74.157 220.788 -0.66 +0.02    -0.080 Cl 
DOCKED: ATOM     28  Cl  UNL     1     142.386  78.190 218.814 -0.32 +0.06    -0.084 Cl 
DOCKED: ENDBRANCH  20  21
DOCKED: ENDBRANCH  19  20
DOCKED: ENDBRANCH  18  19
DOCKED: ENDBRANCH  17  18
DOCKED: ENDBRANCH   1  17
DOCKED: TORSDOF 11
DOCKED: TER
DOCKED: ENDMDL
________________________________________________________________________________


    FINAL DOCKED STATE:
    ________________________


Run:   12 / 20
Time taken for this run:   0.109s

DOCKED: MODEL        12
DOCKED: USER    Run = 12
DOCKED: USER
DOCKED: USER    Estimated Free Energy of Binding    =  -5.91 kcal/mol  [=(1)+(2)+(3)-(4)]
DOCKED: USER
DOCKED: USER    (1) Final Intermolecular Energy     =  -9.19 kcal/mol
DOCKED: USER        vdW + Hbond + desolv Energy     =  -9.24 kcal/mol
DOCKED: USER        Electrostatic Energy            =  +0.05 kcal/mol
DOCKED: USER        Moving Ligand-Fixed Receptor    =  -9.19 kcal/mol
DOCKED: USER        Moving Ligand-Moving Receptor   =  +0.00 kcal/mol
DOCKED: USER    (2) Final Total Internal Energy     =  -0.96 kcal/mol
DOCKED: USER    (3) Torsional Free Energy           =  +3.28 kcal/mol
DOCKED: USER    (4) Unbound System's Energy         =  -0.96 kcal/mol
DOCKED: USER
DOCKED: USER
DOCKED: REMARK SMILES O/C(=C\CCOc1ccc(Cl)cc1Cl)[N-]/N=C/c1cccc(C(F)(F)F)c1
DOCKED: REMARK SMILES IDX 2 1 1 2 15 4 16 5 17 6 18 7 19 8 27 9 20 10 22 11 21 12
DOCKED: REMARK SMILES IDX 23 13 24 14 25 15 26 16 3 17 4 18 5 19 6 20 7 21 8 22 13 23
DOCKED: REMARK SMILES IDX 9 24 12 25 10 26 14 27 11 28
DOCKED: REMARK H PARENT 1 3
DOCKED: USER                              x       y       z     vdW  Elec       q    Type
DOCKED: USER                           _______ _______ _______ _____ _____    ______ ____
DOCKED: ROOT
DOCKED: ATOM      1  C   UNL     1     139.278  74.065 221.796 -0.24 -0.00    +0.023 C  
DOCKED: ENDROOT
DOCKED: BRANCH   1   2
DOCKED: ATOM      2  O   UNL     1     138.218  73.330 221.271 -0.02 +0.12    -0.530 OA 
DOCKED: ATOM      3  H   UNL     1     138.199  72.321 221.347 +0.06 -0.06    +0.290 HD 
DOCKED: ENDBRANCH   1   2
DOCKED: BRANCH   1   4
DOCKED: ATOM      4  N   UNL     1     140.358  73.365 222.425 -0.56 +0.00    -0.546 NA 
DOCKED: BRANCH   4   5
DOCKED: ATOM      5  N   UNL     1     140.357  71.973 222.592 -0.20 +0.04    -0.372 NA 
DOCKED: BRANCH   5   6
DOCKED: ATOM      6  C   UNL     1     139.571  71.408 223.451 -0.32 -0.02    +0.094 C  
DOCKED: BRANCH   6   7
DOCKED: ATOM      7  C   UNL     1     140.070  70.980 224.774 -0.48 +0.00    -0.009 A  
DOCKED: ATOM      8  C   UNL     1     140.778  71.893 225.569 -0.46 -0.00    +0.009 A  
DOCKED: ATOM      9  C   UNL     1     139.855  69.674 225.252 -0.41 -0.00    +0.022 A  
DOCKED: ATOM     10  C   UNL     1     141.271  71.507 226.817 -0.70 -0.00    +0.001 A  
DOCKED: ATOM     11  C   UNL     1     140.327  69.287 226.520 -0.51 -0.01    +0.056 A  
DOCKED: ATOM     12  C   UNL     1     141.058  70.210 227.288 -0.58 -0.00    +0.013 A  
DOCKED: BRANCH  11  13
DOCKED: ATOM     13  C   UNL     1     140.134  67.871 227.003 -0.29 -0.09    +0.416 C  
DOCKED: ATOM     14  F   UNL     1     140.140  67.857 228.384 -0.15 +0.05    -0.166 F  
DOCKED: ATOM     15  F   UNL     1     138.930  67.357 226.552 -0.21 +0.00    -0.166 F  
DOCKED: ATOM     16  F   UNL     1     141.151  67.056 226.538 -0.19 +0.05    -0.166 F  
DOCKED: ENDBRANCH  11  13
DOCKED: ENDBRANCH   6   7
DOCKED: ENDBRANCH   5   6
DOCKED: ENDBRANCH   4   5
DOCKED: ENDBRANCH   1   4
DOCKED: BRANCH   1  17
DOCKED: ATOM     17  C   UNL     1     139.273  75.404 221.710 -0.29 +0.00    -0.001 C  
DOCKED: BRANCH  17  18
DOCKED: ATOM     18  C   UNL     1     138.504  76.275 222.666 -0.26 -0.02    +0.071 C  
DOCKED: BRANCH  18  19
DOCKED: ATOM     19  C   UNL     1     137.555  77.220 221.930 -0.13 -0.04    +0.234 C  
DOCKED: BRANCH  19  20
DOCKED: ATOM     20  O   UNL     1     138.266  78.382 221.513 -0.01 +0.10    -0.492 OA 
DOCKED: BRANCH  20  21
DOCKED: ATOM     21  C   UNL     1     139.401  78.954 222.117 -0.20 -0.03    +0.137 A  
DOCKED: ATOM     22  C   UNL     1     140.640  78.532 221.613 -0.28 -0.02    +0.049 A  
DOCKED: ATOM     23  C   UNL     1     139.383  79.905 223.176 -0.33 -0.01    +0.084 A  
DOCKED: ATOM     24  C   UNL     1     141.837  79.038 222.121 -0.47 -0.01    +0.024 A  
DOCKED: ATOM     25  C   UNL     1     140.593  80.405 223.676 -0.43 -0.01    +0.045 A  
DOCKED: ATOM     26  C   UNL     1     141.814  79.976 223.152 -0.56 -0.01    +0.042 A  
DOCKED: ATOM     27  Cl  UNL     1     137.922  80.498 223.959 -0.43 +0.01    -0.080 Cl 
DOCKED: ATOM     28  Cl  UNL     1     143.318  80.613 223.794 -0.60 +0.02    -0.084 Cl 
DOCKED: ENDBRANCH  20  21
DOCKED: ENDBRANCH  19  20
DOCKED: ENDBRANCH  18  19
DOCKED: ENDBRANCH  17  18
DOCKED: ENDBRANCH   1  17
DOCKED: TORSDOF 11
DOCKED: TER
DOCKED: ENDMDL
________________________________________________________________________________


    FINAL DOCKED STATE:
    ________________________


Run:   13 / 20
Time taken for this run:   0.109s

DOCKED: MODEL        13
DOCKED: USER    Run = 13
DOCKED: USER
DOCKED: USER    Estimated Free Energy of Binding    =  -6.24 kcal/mol  [=(1)+(2)+(3)-(4)]
DOCKED: USER
DOCKED: USER    (1) Final Intermolecular Energy     =  -9.52 kcal/mol
DOCKED: USER        vdW + Hbond + desolv Energy     =  -9.53 kcal/mol
DOCKED: USER        Electrostatic Energy            =  +0.00 kcal/mol
DOCKED: USER        Moving Ligand-Fixed Receptor    =  -9.52 kcal/mol
DOCKED: USER        Moving Ligand-Moving Receptor   =  +0.00 kcal/mol
DOCKED: USER    (2) Final Total Internal Energy     =  -0.66 kcal/mol
DOCKED: USER    (3) Torsional Free Energy           =  +3.28 kcal/mol
DOCKED: USER    (4) Unbound System's Energy         =  -0.66 kcal/mol
DOCKED: USER
DOCKED: USER
DOCKED: REMARK SMILES O/C(=C\CCOc1ccc(Cl)cc1Cl)[N-]/N=C/c1cccc(C(F)(F)F)c1
DOCKED: REMARK SMILES IDX 2 1 1 2 15 4 16 5 17 6 18 7 19 8 27 9 20 10 22 11 21 12
DOCKED: REMARK SMILES IDX 23 13 24 14 25 15 26 16 3 17 4 18 5 19 6 20 7 21 8 22 13 23
DOCKED: REMARK SMILES IDX 9 24 12 25 10 26 14 27 11 28
DOCKED: REMARK H PARENT 1 3
DOCKED: USER                              x       y       z     vdW  Elec       q    Type
DOCKED: USER                           _______ _______ _______ _____ _____    ______ ____
DOCKED: ROOT
DOCKED: ATOM      1  C   UNL     1     139.898  72.590 221.714 -0.25 -0.00    +0.023 C  
DOCKED: ENDROOT
DOCKED: BRANCH   1   2
DOCKED: ATOM      2  O   UNL     1     140.499  72.070 220.571 -0.01 +0.08    -0.530 OA 
DOCKED: ATOM      3  H   UNL     1     140.642  72.647 219.752 +0.06 -0.05    +0.290 HD 
DOCKED: ENDBRANCH   1   2
DOCKED: BRANCH   1   4
DOCKED: ATOM      4  N   UNL     1     140.457  73.766 222.313 -0.58 -0.02    -0.546 NA 
DOCKED: BRANCH   4   5
DOCKED: ATOM      5  N   UNL     1     139.948  75.050 222.071 -0.57 +0.04    -0.372 NA 
DOCKED: BRANCH   5   6
DOCKED: ATOM      6  C   UNL     1     140.741  76.044 221.834 -0.33 -0.03    +0.094 C  
DOCKED: BRANCH   6   7
DOCKED: ATOM      7  C   UNL     1     140.474  77.383 222.400 -0.41 +0.00    -0.009 A  
DOCKED: ATOM      8  C   UNL     1     139.157  77.741 222.726 -0.30 -0.00    +0.009 A  
DOCKED: ATOM      9  C   UNL     1     141.511  78.309 222.614 -0.45 -0.01    +0.022 A  
DOCKED: ATOM     10  C   UNL     1     138.879  79.005 223.248 -0.33 -0.00    +0.001 A  
DOCKED: ATOM     11  C   UNL     1     141.241  79.575 223.165 -0.49 -0.01    +0.056 A  
DOCKED: ATOM     12  C   UNL     1     139.910  79.922 223.458 -0.43 -0.00    +0.013 A  
DOCKED: BRANCH  11  13
DOCKED: ATOM     13  C   UNL     1     142.351  80.579 223.345 -0.32 -0.10    +0.416 C  
DOCKED: ATOM     14  F   UNL     1     141.836  81.855 223.220 -0.18 +0.02    -0.166 F  
DOCKED: ATOM     15  F   UNL     1     142.933  80.449 224.595 -0.17 +0.03    -0.166 F  
DOCKED: ATOM     16  F   UNL     1     143.335  80.393 222.391 -0.21 +0.06    -0.166 F  
DOCKED: ENDBRANCH  11  13
DOCKED: ENDBRANCH   6   7
DOCKED: ENDBRANCH   5   6
DOCKED: ENDBRANCH   4   5
DOCKED: ENDBRANCH   1   4
DOCKED: BRANCH   1  17
DOCKED: ATOM     17  C   UNL     1     138.818  71.990 222.238 -0.21 +0.00    -0.001 C  
DOCKED: BRANCH  17  18
DOCKED: ATOM     18  C   UNL     1     138.409  70.590 221.868 -0.12 -0.01    +0.071 C  
DOCKED: BRANCH  18  19
DOCKED: ATOM     19  C   UNL     1     139.337  69.548 222.489 -0.09 -0.04    +0.234 C  
DOCKED: BRANCH  19  20
DOCKED: ATOM     20  O   UNL     1     138.787  69.092 223.722 -0.08 +0.07    -0.492 OA 
DOCKED: BRANCH  20  21
DOCKED: ATOM     21  C   UNL     1     139.448  68.960 224.958 -0.32 -0.02    +0.137 A  
DOCKED: ATOM     22  C   UNL     1     139.225  67.758 225.645 -0.48 -0.00    +0.049 A  
DOCKED: ATOM     23  C   UNL     1     140.302  69.936 225.546 -0.42 -0.01    +0.084 A  
DOCKED: ATOM     24  C   UNL     1     139.836  67.506 226.874 -0.59 -0.00    +0.024 A  
DOCKED: ATOM     25  C   UNL     1     140.908  69.667 226.781 -0.53 -0.01    +0.045 A  
DOCKED: ATOM     26  C   UNL     1     140.679  68.459 227.442 -0.63 -0.01    +0.042 A  
DOCKED: ATOM     27  Cl  UNL     1     140.644  71.514 224.846 -0.57 +0.01    -0.080 Cl 
DOCKED: ATOM     28  Cl  UNL     1     141.447  68.144 228.988 -0.50 +0.02    -0.084 Cl 
DOCKED: ENDBRANCH  20  21
DOCKED: ENDBRANCH  19  20
DOCKED: ENDBRANCH  18  19
DOCKED: ENDBRANCH  17  18
DOCKED: ENDBRANCH   1  17
DOCKED: TORSDOF 11
DOCKED: TER
DOCKED: ENDMDL
________________________________________________________________________________


    FINAL DOCKED STATE:
    ________________________


Run:   14 / 20
Time taken for this run:   0.109s

DOCKED: MODEL        14
DOCKED: USER    Run = 14
DOCKED: USER
DOCKED: USER    Estimated Free Energy of Binding    =  -6.89 kcal/mol  [=(1)+(2)+(3)-(4)]
DOCKED: USER
DOCKED: USER    (1) Final Intermolecular Energy     = -10.17 kcal/mol
DOCKED: USER        vdW + Hbond + desolv Energy     = -10.32 kcal/mol
DOCKED: USER        Electrostatic Energy            =  +0.14 kcal/mol
DOCKED: USER        Moving Ligand-Fixed Receptor    = -10.17 kcal/mol
DOCKED: USER        Moving Ligand-Moving Receptor   =  +0.00 kcal/mol
DOCKED: USER    (2) Final Total Internal Energy     =  -0.95 kcal/mol
DOCKED: USER    (3) Torsional Free Energy           =  +3.28 kcal/mol
DOCKED: USER    (4) Unbound System's Energy         =  -0.95 kcal/mol
DOCKED: USER
DOCKED: USER
DOCKED: REMARK SMILES O/C(=C\CCOc1ccc(Cl)cc1Cl)[N-]/N=C/c1cccc(C(F)(F)F)c1
DOCKED: REMARK SMILES IDX 2 1 1 2 15 4 16 5 17 6 18 7 19 8 27 9 20 10 22 11 21 12
DOCKED: REMARK SMILES IDX 23 13 24 14 25 15 26 16 3 17 4 18 5 19 6 20 7 21 8 22 13 23
DOCKED: REMARK SMILES IDX 9 24 12 25 10 26 14 27 11 28
DOCKED: REMARK H PARENT 1 3
DOCKED: USER                              x       y       z     vdW  Elec       q    Type
DOCKED: USER                           _______ _______ _______ _____ _____    ______ ____
DOCKED: ROOT
DOCKED: ATOM      1  C   UNL     1     140.314  74.611 221.505 -0.30 -0.00    +0.023 C  
DOCKED: ENDROOT
DOCKED: BRANCH   1   2
DOCKED: ATOM      2  O   UNL     1     139.467  75.314 222.359 -0.45 +0.09    -0.530 OA 
DOCKED: ATOM      3  H   UNL     1     139.070  74.870 223.177 -0.46 -0.10    +0.290 HD 
DOCKED: ENDBRANCH   1   2
DOCKED: BRANCH   1   4
DOCKED: ATOM      4  N   UNL     1     140.665  73.263 221.839 -0.35 +0.04    -0.546 NA 
DOCKED: BRANCH   4   5
DOCKED: ATOM      5  N   UNL     1     140.296  72.667 223.053 -0.42 +0.03    -0.372 NA 
DOCKED: BRANCH   5   6
DOCKED: ATOM      6  C   UNL     1     140.283  71.380 223.184 -0.30 -0.01    +0.094 C  
DOCKED: BRANCH   6   7
DOCKED: ATOM      7  C   UNL     1     140.174  70.751 224.516 -0.44 +0.00    -0.009 A  
DOCKED: ATOM      8  C   UNL     1     139.571  69.490 224.633 -0.36 -0.00    +0.009 A  
DOCKED: ATOM      9  C   UNL     1     140.658  71.392 225.672 -0.58 -0.00    +0.022 A  
DOCKED: ATOM     10  C   UNL     1     139.444  68.882 225.883 -0.49 -0.00    +0.001 A  
DOCKED: ATOM     11  C   UNL     1     140.557  70.772 226.931 -0.59 -0.01    +0.056 A  
DOCKED: ATOM     12  C   UNL     1     139.924  69.521 227.029 -0.56 -0.00    +0.013 A  
DOCKED: BRANCH  11  13
DOCKED: ATOM     13  C   UNL     1     141.034  71.488 228.171 -0.34 -0.09    +0.416 C  
DOCKED: ATOM     14  F   UNL     1     141.819  70.630 228.917 -0.04 +0.03    -0.166 F  
DOCKED: ATOM     15  F   UNL     1     141.780  72.605 227.837 -0.30 +0.04    -0.166 F  
DOCKED: ATOM     16  F   UNL     1     139.960  71.901 228.938 -0.24 +0.05    -0.166 F  
DOCKED: ENDBRANCH  11  13
DOCKED: ENDBRANCH   6   7
DOCKED: ENDBRANCH   5   6
DOCKED: ENDBRANCH   4   5
DOCKED: ENDBRANCH   1   4
DOCKED: BRANCH   1  17
DOCKED: ATOM     17  C   UNL     1     140.788  75.199 220.396 -0.21 +0.00    -0.001 C  
DOCKED: BRANCH  17  18
DOCKED: ATOM     18  C   UNL     1     142.072  75.983 220.379 -0.23 -0.04    +0.071 C  
DOCKED: BRANCH  18  19
DOCKED: ATOM     19  C   UNL     1     141.817  77.481 220.222 -0.21 -0.14    +0.234 C  
DOCKED: BRANCH  19  20
DOCKED: ATOM     20  O   UNL     1     142.015  78.133 221.473 -0.06 +0.34    -0.492 OA 
DOCKED: BRANCH  20  21
DOCKED: ATOM     21  C   UNL     1     141.063  78.840 222.232 -0.33 -0.05    +0.137 A  
DOCKED: ATOM     22  C   UNL     1     139.727  78.451 222.052 -0.26 -0.01    +0.049 A  
DOCKED: ATOM     23  C   UNL     1     141.351  79.895 223.143 -0.47 -0.02    +0.084 A  
DOCKED: ATOM     24  C   UNL     1     138.694  79.069 222.759 -0.28 -0.00    +0.024 A  
DOCKED: ATOM     25  C   UNL     1     140.302  80.505 223.846 -0.38 -0.01    +0.045 A  
DOCKED: ATOM     26  C   UNL     1     138.981  80.095 223.657 -0.38 -0.01    +0.042 A  
DOCKED: ATOM     27  Cl  UNL     1     142.960  80.541 223.446 -0.80 +0.02    -0.080 Cl 
DOCKED: ATOM     28  Cl  UNL     1     137.683  80.873 224.545 -0.47 +0.01    -0.084 Cl 
DOCKED: ENDBRANCH  20  21
DOCKED: ENDBRANCH  19  20
DOCKED: ENDBRANCH  18  19
DOCKED: ENDBRANCH  17  18
DOCKED: ENDBRANCH   1  17
DOCKED: TORSDOF 11
DOCKED: TER
DOCKED: ENDMDL
________________________________________________________________________________


    FINAL DOCKED STATE:
    ________________________


Run:   15 / 20
Time taken for this run:   0.109s

DOCKED: MODEL        15
DOCKED: USER    Run = 15
DOCKED: USER
DOCKED: USER    Estimated Free Energy of Binding    =  -6.37 kcal/mol  [=(1)+(2)+(3)-(4)]
DOCKED: USER
DOCKED: USER    (1) Final Intermolecular Energy     =  -9.66 kcal/mol
DOCKED: USER        vdW + Hbond + desolv Energy     =  -9.76 kcal/mol
DOCKED: USER        Electrostatic Energy            =  +0.11 kcal/mol
DOCKED: USER        Moving Ligand-Fixed Receptor    =  -9.66 kcal/mol
DOCKED: USER        Moving Ligand-Moving Receptor   =  +0.00 kcal/mol
DOCKED: USER    (2) Final Total Internal Energy     =  -0.94 kcal/mol
DOCKED: USER    (3) Torsional Free Energy           =  +3.28 kcal/mol
DOCKED: USER    (4) Unbound System's Energy         =  -0.94 kcal/mol
DOCKED: USER
DOCKED: USER
DOCKED: REMARK SMILES O/C(=C\CCOc1ccc(Cl)cc1Cl)[N-]/N=C/c1cccc(C(F)(F)F)c1
DOCKED: REMARK SMILES IDX 2 1 1 2 15 4 16 5 17 6 18 7 19 8 27 9 20 10 22 11 21 12
DOCKED: REMARK SMILES IDX 23 13 24 14 25 15 26 16 3 17 4 18 5 19 6 20 7 21 8 22 13 23
DOCKED: REMARK SMILES IDX 9 24 12 25 10 26 14 27 11 28
DOCKED: REMARK H PARENT 1 3
DOCKED: USER                              x       y       z     vdW  Elec       q    Type
DOCKED: USER                           _______ _______ _______ _____ _____    ______ ____
DOCKED: ROOT
DOCKED: ATOM      1  C   UNL     1     139.573  75.320 221.852 -0.30 -0.00    +0.023 C  
DOCKED: ENDROOT
DOCKED: BRANCH   1   2
DOCKED: ATOM      2  O   UNL     1     138.299  75.450 222.400 -0.13 +0.15    -0.530 OA 
DOCKED: ATOM      3  H   UNL     1     137.921  74.738 223.012 -0.41 -0.17    +0.290 HD 
DOCKED: ENDBRANCH   1   2
DOCKED: BRANCH   1   4
DOCKED: ATOM      4  N   UNL     1     140.349  74.161 222.183 -0.61 -0.01    -0.546 NA 
DOCKED: BRANCH   4   5
DOCKED: ATOM      5  N   UNL     1     139.774  72.990 222.695 -0.51 +0.06    -0.372 NA 
DOCKED: BRANCH   5   6
DOCKED: ATOM      6  C   UNL     1     140.506  71.965 222.990 -0.28 -0.01    +0.094 C  
DOCKED: BRANCH   6   7
DOCKED: ATOM      7  C   UNL     1     140.304  71.222 224.251 -0.45 +0.00    -0.009 A  
DOCKED: ATOM      8  C   UNL     1     139.629  69.993 224.224 -0.34 -0.00    +0.009 A  
DOCKED: ATOM      9  C   UNL     1     140.770  71.724 225.481 -0.49 -0.00    +0.022 A  
DOCKED: ATOM     10  C   UNL     1     139.414  69.280 225.404 -0.43 -0.00    +0.001 A  
DOCKED: ATOM     11  C   UNL     1     140.580  70.997 226.670 -0.60 -0.01    +0.056 A  
DOCKED: ATOM     12  C   UNL     1     139.876  69.781 226.623 -0.52 -0.00    +0.013 A  
DOCKED: BRANCH  11  13
DOCKED: ATOM     13  C   UNL     1     141.039  71.565 227.990 -0.39 -0.09    +0.416 C  
DOCKED: ATOM     14  F   UNL     1     139.937  71.972 228.718 -0.29 +0.05    -0.166 F  
DOCKED: ATOM     15  F   UNL     1     141.733  70.615 228.719 -0.12 +0.03    -0.166 F  
DOCKED: ATOM     16  F   UNL     1     141.874  72.649 227.789 -0.29 +0.04    -0.166 F  
DOCKED: ENDBRANCH  11  13
DOCKED: ENDBRANCH   6   7
DOCKED: ENDBRANCH   5   6
DOCKED: ENDBRANCH   4   5
DOCKED: ENDBRANCH   1   4
DOCKED: BRANCH   1  17
DOCKED: ATOM     17  C   UNL     1     140.053  76.270 221.036 -0.25 +0.00    -0.001 C  
DOCKED: BRANCH  17  18
DOCKED: ATOM     18  C   UNL     1     141.527  76.477 220.812 -0.24 -0.03    +0.071 C  
DOCKED: BRANCH  18  19
DOCKED: ATOM     19  C   UNL     1     141.820  77.857 220.225 -0.20 -0.14    +0.234 C  
DOCKED: BRANCH  19  20
DOCKED: ATOM     20  O   UNL     1     141.997  78.797 221.281 -0.12 +0.31    -0.492 OA 
DOCKED: BRANCH  20  21
DOCKED: ATOM     21  C   UNL     1     140.996  79.461 222.014 -0.30 -0.04    +0.137 A  
DOCKED: ATOM     22  C   UNL     1     140.391  78.716 223.037 -0.41 -0.01    +0.049 A  
DOCKED: ATOM     23  C   UNL     1     140.563  80.799 221.796 -0.27 -0.02    +0.084 A  
DOCKED: ATOM     24  C   UNL     1     139.395  79.270 223.842 -0.35 -0.00    +0.024 A  
DOCKED: ATOM     25  C   UNL     1     139.561  81.342 222.613 -0.27 -0.01    +0.045 A  
DOCKED: ATOM     26  C   UNL     1     138.981  80.584 223.631 -0.37 -0.00    +0.042 A  
DOCKED: ATOM     27  Cl  UNL     1     141.175  81.851 220.525 -0.36 +0.02    -0.080 Cl 
DOCKED: ATOM     28  Cl  UNL     1     137.727  81.282 224.642 -0.44 +0.01    -0.084 Cl 
DOCKED: ENDBRANCH  20  21
DOCKED: ENDBRANCH  19  20
DOCKED: ENDBRANCH  18  19
DOCKED: ENDBRANCH  17  18
DOCKED: ENDBRANCH   1  17
DOCKED: TORSDOF 11
DOCKED: TER
DOCKED: ENDMDL
________________________________________________________________________________


    FINAL DOCKED STATE:
    ________________________


Run:   16 / 20
Time taken for this run:   0.109s

DOCKED: MODEL        16
DOCKED: USER    Run = 16
DOCKED: USER
DOCKED: USER    Estimated Free Energy of Binding    =  -6.74 kcal/mol  [=(1)+(2)+(3)-(4)]
DOCKED: USER
DOCKED: USER    (1) Final Intermolecular Energy     = -10.02 kcal/mol
DOCKED: USER        vdW + Hbond + desolv Energy     = -10.05 kcal/mol
DOCKED: USER        Electrostatic Energy            =  +0.03 kcal/mol
DOCKED: USER        Moving Ligand-Fixed Receptor    = -10.02 kcal/mol
DOCKED: USER        Moving Ligand-Moving Receptor   =  +0.00 kcal/mol
DOCKED: USER    (2) Final Total Internal Energy     =  -0.69 kcal/mol
DOCKED: USER    (3) Torsional Free Energy           =  +3.28 kcal/mol
DOCKED: USER    (4) Unbound System's Energy         =  -0.69 kcal/mol
DOCKED: USER
DOCKED: USER
DOCKED: REMARK SMILES O/C(=C\CCOc1ccc(Cl)cc1Cl)[N-]/N=C/c1cccc(C(F)(F)F)c1
DOCKED: REMARK SMILES IDX 2 1 1 2 15 4 16 5 17 6 18 7 19 8 27 9 20 10 22 11 21 12
DOCKED: REMARK SMILES IDX 23 13 24 14 25 15 26 16 3 17 4 18 5 19 6 20 7 21 8 22 13 23
DOCKED: REMARK SMILES IDX 9 24 12 25 10 26 14 27 11 28
DOCKED: REMARK H PARENT 1 3
DOCKED: USER                              x       y       z     vdW  Elec       q    Type
DOCKED: USER                           _______ _______ _______ _____ _____    ______ ____
DOCKED: ROOT
DOCKED: ATOM      1  C   UNL     1     140.024  74.360 221.778 -0.25 -0.00    +0.023 C  
DOCKED: ENDROOT
DOCKED: BRANCH   1   2
DOCKED: ATOM      2  O   UNL     1     139.283  75.401 222.328 -0.35 +0.10    -0.530 OA 
DOCKED: ATOM      3  H   UNL     1     138.753  75.268 223.180 -0.42 -0.11    +0.290 HD 
DOCKED: ENDBRANCH   1   2
DOCKED: BRANCH   1   4
DOCKED: ATOM      4  N   UNL     1     139.891  73.048 222.338 -0.46 +0.07    -0.546 NA 
DOCKED: BRANCH   4   5
DOCKED: ATOM      5  N   UNL     1     140.702  72.590 223.387 -0.08 -0.00    -0.372 NA 
DOCKED: BRANCH   5   6
DOCKED: ATOM      6  C   UNL     1     140.587  71.383 223.836 -0.31 -0.01    +0.094 C  
DOCKED: BRANCH   6   7
DOCKED: ATOM      7  C   UNL     1     140.695  71.095 225.282 -0.56 +0.00    -0.009 A  
DOCKED: ATOM      8  C   UNL     1     141.023  72.132 226.166 -0.41 -0.00    +0.009 A  
DOCKED: ATOM      9  C   UNL     1     140.481  69.800 225.790 -0.48 -0.00    +0.022 A  
DOCKED: ATOM     10  C   UNL     1     141.145  71.881 227.534 -0.83 -0.00    +0.001 A  
DOCKED: ATOM     11  C   UNL     1     140.575  69.546 227.170 -0.54 -0.01    +0.056 A  
DOCKED: ATOM     12  C   UNL     1     140.933  70.595 228.035 -0.64 -0.00    +0.013 A  
DOCKED: BRANCH  11  13
DOCKED: ATOM     13  C   UNL     1     140.392  68.145 227.700 -0.28 -0.10    +0.416 C  
DOCKED: ATOM     14  F   UNL     1     140.398  68.177 229.081 -0.22 +0.04    -0.166 F  
DOCKED: ATOM     15  F   UNL     1     139.192  67.609 227.267 -0.18 +0.02    -0.166 F  
DOCKED: ATOM     16  F   UNL     1     141.415  67.322 227.263 -0.14 +0.05    -0.166 F  
DOCKED: ENDBRANCH  11  13
DOCKED: ENDBRANCH   6   7
DOCKED: ENDBRANCH   5   6
DOCKED: ENDBRANCH   4   5
DOCKED: ENDBRANCH   1   4
DOCKED: BRANCH   1  17
DOCKED: ATOM     17  C   UNL     1     140.848  74.594 220.745 -0.25 +0.00    -0.001 C  
DOCKED: BRANCH  17  18
DOCKED: ATOM     18  C   UNL     1     140.490  75.522 219.616 -0.10 -0.02    +0.071 C  
DOCKED: BRANCH  18  19
DOCKED: ATOM     19  C   UNL     1     141.610  76.523 219.331 -0.14 -0.11    +0.234 C  
DOCKED: BRANCH  19  20
DOCKED: ATOM     20  O   UNL     1     141.126  77.849 219.524 -0.02 +0.23    -0.492 OA 
DOCKED: BRANCH  20  21
DOCKED: ATOM     21  C   UNL     1     141.452  78.737 220.566 -0.24 -0.07    +0.137 A  
DOCKED: ATOM     22  C   UNL     1     141.423  78.197 221.861 -0.37 -0.02    +0.049 A  
DOCKED: ATOM     23  C   UNL     1     141.797  80.108 220.405 -0.30 -0.04    +0.084 A  
DOCKED: ATOM     24  C   UNL     1     141.741  78.976 222.974 -0.55 -0.01    +0.024 A  
DOCKED: ATOM     25  C   UNL     1     142.114  80.877 221.534 -0.39 -0.01    +0.045 A  
DOCKED: ATOM     26  C   UNL     1     142.088  80.316 222.811 -0.56 -0.01    +0.042 A  
DOCKED: ATOM     27  Cl  UNL     1     141.828  80.955 218.863 -0.36 +0.04    -0.080 Cl 
DOCKED: ATOM     28  Cl  UNL     1     142.486  81.296 224.211 -0.63 +0.01    -0.084 Cl 
DOCKED: ENDBRANCH  20  21
DOCKED: ENDBRANCH  19  20
DOCKED: ENDBRANCH  18  19
DOCKED: ENDBRANCH  17  18
DOCKED: ENDBRANCH   1  17
DOCKED: TORSDOF 11
DOCKED: TER
DOCKED: ENDMDL
________________________________________________________________________________


    FINAL DOCKED STATE:
    ________________________


Run:   17 / 20
Time taken for this run:   0.109s

DOCKED: MODEL        17
DOCKED: USER    Run = 17
DOCKED: USER
DOCKED: USER    Estimated Free Energy of Binding    =  -6.01 kcal/mol  [=(1)+(2)+(3)-(4)]
DOCKED: USER
DOCKED: USER    (1) Final Intermolecular Energy     =  -9.29 kcal/mol
DOCKED: USER        vdW + Hbond + desolv Energy     =  -9.39 kcal/mol
DOCKED: USER        Electrostatic Energy            =  +0.10 kcal/mol
DOCKED: USER        Moving Ligand-Fixed Receptor    =  -9.29 kcal/mol
DOCKED: USER        Moving Ligand-Moving Receptor   =  +0.00 kcal/mol
DOCKED: USER    (2) Final Total Internal Energy     =  -1.66 kcal/mol
DOCKED: USER    (3) Torsional Free Energy           =  +3.28 kcal/mol
DOCKED: USER    (4) Unbound System's Energy         =  -1.66 kcal/mol
DOCKED: USER
DOCKED: USER
DOCKED: REMARK SMILES O/C(=C\CCOc1ccc(Cl)cc1Cl)[N-]/N=C/c1cccc(C(F)(F)F)c1
DOCKED: REMARK SMILES IDX 2 1 1 2 15 4 16 5 17 6 18 7 19 8 27 9 20 10 22 11 21 12
DOCKED: REMARK SMILES IDX 23 13 24 14 25 15 26 16 3 17 4 18 5 19 6 20 7 21 8 22 13 23
DOCKED: REMARK SMILES IDX 9 24 12 25 10 26 14 27 11 28
DOCKED: REMARK H PARENT 1 3
DOCKED: USER                              x       y       z     vdW  Elec       q    Type
DOCKED: USER                           _______ _______ _______ _____ _____    ______ ____
DOCKED: ROOT
DOCKED: ATOM      1  C   UNL     1     140.175  75.204 221.619 -0.32 -0.00    +0.023 C  
DOCKED: ENDROOT
DOCKED: BRANCH   1   2
DOCKED: ATOM      2  O   UNL     1     141.402  75.814 221.864 -0.18 +0.19    -0.530 OA 
DOCKED: ATOM      3  H   UNL     1     142.187  75.280 222.216 -0.37 -0.11    +0.290 HD 
DOCKED: ENDBRANCH   1   2
DOCKED: BRANCH   1   4
DOCKED: ATOM      4  N   UNL     1     139.841  74.013 222.342 -0.64 +0.04    -0.546 NA 
DOCKED: BRANCH   4   5
DOCKED: ATOM      5  N   UNL     1     140.796  73.040 222.674 -0.37 -0.02    -0.372 NA 
DOCKED: BRANCH   5   6
DOCKED: ATOM      6  C   UNL     1     140.474  71.789 222.736 -0.28 -0.01    +0.094 C  
DOCKED: BRANCH   6   7
DOCKED: ATOM      7  C   UNL     1     140.218  71.132 224.035 -0.42 +0.00    -0.009 A  
DOCKED: ATOM      8  C   UNL     1     139.441  69.965 224.073 -0.32 -0.00    +0.009 A  
DOCKED: ATOM      9  C   UNL     1     140.732  71.656 225.236 -0.49 -0.00    +0.022 A  
DOCKED: ATOM     10  C   UNL     1     139.174  69.336 225.290 -0.42 -0.00    +0.001 A  
DOCKED: ATOM     11  C   UNL     1     140.489  71.011 226.462 -0.58 -0.01    +0.056 A  
DOCKED: ATOM     12  C   UNL     1     139.685  69.858 226.480 -0.48 -0.00    +0.013 A  
DOCKED: BRANCH  11  13
DOCKED: ATOM     13  C   UNL     1     141.003  71.606 227.750 -0.40 -0.08    +0.416 C  
DOCKED: ATOM     14  F   UNL     1     141.928  72.590 227.458 -0.32 +0.03    -0.166 F  
DOCKED: ATOM     15  F   UNL     1     139.968  72.163 228.481 -0.29 +0.05    -0.166 F  
DOCKED: ATOM     16  F   UNL     1     141.607  70.635 228.528 -0.13 +0.03    -0.166 F  
DOCKED: ENDBRANCH  11  13
DOCKED: ENDBRANCH   6   7
DOCKED: ENDBRANCH   5   6
DOCKED: ENDBRANCH   4   5
DOCKED: ENDBRANCH   1   4
DOCKED: BRANCH   1  17
DOCKED: ATOM     17  C   UNL     1     139.332  75.729 220.718 -0.17 +0.00    -0.001 C  
DOCKED: BRANCH  17  18
DOCKED: ATOM     18  C   UNL     1     139.309  75.294 219.278 -0.04 -0.02    +0.071 C  
DOCKED: BRANCH  18  19
DOCKED: ATOM     19  C   UNL     1     139.880  73.887 219.104 -0.02 -0.05    +0.234 C  
DOCKED: BRANCH  19  20
DOCKED: ATOM     20  O   UNL     1     141.201  73.970 218.576 +0.02 +0.12    -0.492 OA 
DOCKED: BRANCH  20  21
DOCKED: ATOM     21  C   UNL     1     142.413  73.933 219.291 -0.12 -0.04    +0.137 A  
DOCKED: ATOM     22  C   UNL     1     142.785  72.681 219.801 -0.18 -0.01    +0.049 A  
DOCKED: ATOM     23  C   UNL     1     143.265  75.049 219.529 -0.30 -0.04    +0.084 A  
DOCKED: ATOM     24  C   UNL     1     143.973  72.516 220.514 -0.35 -0.00    +0.024 A  
DOCKED: ATOM     25  C   UNL     1     144.455  74.867 220.247 -0.39 -0.02    +0.045 A  
DOCKED: ATOM     26  C   UNL     1     144.809  73.608 220.737 -0.51 -0.01    +0.042 A  
DOCKED: ATOM     27  Cl  UNL     1     142.923  76.695 219.009 -0.45 +0.05    -0.080 Cl 
DOCKED: ATOM     28  Cl  UNL     1     146.302  73.403 221.636 -0.88 +0.01    -0.084 Cl 
DOCKED: ENDBRANCH  20  21
DOCKED: ENDBRANCH  19  20
DOCKED: ENDBRANCH  18  19
DOCKED: ENDBRANCH  17  18
DOCKED: ENDBRANCH   1  17
DOCKED: TORSDOF 11
DOCKED: TER
DOCKED: ENDMDL
________________________________________________________________________________


    FINAL DOCKED STATE:
    ________________________


Run:   18 / 20
Time taken for this run:   0.109s

DOCKED: MODEL        18
DOCKED: USER    Run = 18
DOCKED: USER
DOCKED: USER    Estimated Free Energy of Binding    =  -7.06 kcal/mol  [=(1)+(2)+(3)-(4)]
DOCKED: USER
DOCKED: USER    (1) Final Intermolecular Energy     = -10.35 kcal/mol
DOCKED: USER        vdW + Hbond + desolv Energy     = -10.44 kcal/mol
DOCKED: USER        Electrostatic Energy            =  +0.09 kcal/mol
DOCKED: USER        Moving Ligand-Fixed Receptor    = -10.35 kcal/mol
DOCKED: USER        Moving Ligand-Moving Receptor   =  +0.00 kcal/mol
DOCKED: USER    (2) Final Total Internal Energy     =  -0.84 kcal/mol
DOCKED: USER    (3) Torsional Free Energy           =  +3.28 kcal/mol
DOCKED: USER    (4) Unbound System's Energy         =  -0.84 kcal/mol
DOCKED: USER
DOCKED: USER
DOCKED: REMARK SMILES O/C(=C\CCOc1ccc(Cl)cc1Cl)[N-]/N=C/c1cccc(C(F)(F)F)c1
DOCKED: REMARK SMILES IDX 2 1 1 2 15 4 16 5 17 6 18 7 19 8 27 9 20 10 22 11 21 12
DOCKED: REMARK SMILES IDX 23 13 24 14 25 15 26 16 3 17 4 18 5 19 6 20 7 21 8 22 13 23
DOCKED: REMARK SMILES IDX 9 24 12 25 10 26 14 27 11 28
DOCKED: REMARK H PARENT 1 3
DOCKED: USER                              x       y       z     vdW  Elec       q    Type
DOCKED: USER                           _______ _______ _______ _____ _____    ______ ____
DOCKED: ROOT
DOCKED: ATOM      1  C   UNL     1     140.484  74.665 221.614 -0.30 -0.00    +0.023 C  
DOCKED: ENDROOT
DOCKED: BRANCH   1   2
DOCKED: ATOM      2  O   UNL     1     139.536  75.395 222.326 -0.44 +0.09    -0.530 OA 
DOCKED: ATOM      3  H   UNL     1     139.015  74.970 223.082 -0.45 -0.10    +0.290 HD 
DOCKED: ENDBRANCH   1   2
DOCKED: BRANCH   1   4
DOCKED: ATOM      4  N   UNL     1     140.716  73.299 221.976 -0.45 +0.03    -0.546 NA 
DOCKED: BRANCH   4   5
DOCKED: ATOM      5  N   UNL     1     139.973  72.646 222.970 -0.42 +0.05    -0.372 NA 
DOCKED: BRANCH   5   6
DOCKED: ATOM      6  C   UNL     1     140.038  71.362 223.112 -0.30 -0.02    +0.094 C  
DOCKED: BRANCH   6   7
DOCKED: ATOM      7  C   UNL     1     140.111  70.745 224.453 -0.43 +0.00    -0.009 A  
DOCKED: ATOM      8  C   UNL     1     139.731  69.405 224.614 -0.33 -0.00    +0.009 A  
DOCKED: ATOM      9  C   UNL     1     140.547  71.476 225.573 -0.56 -0.00    +0.022 A  
DOCKED: ATOM     10  C   UNL     1     139.778  68.805 225.873 -0.51 -0.00    +0.001 A  
DOCKED: ATOM     11  C   UNL     1     140.622  70.870 226.840 -0.60 -0.01    +0.056 A  
DOCKED: ATOM     12  C   UNL     1     140.210  69.533 226.984 -0.56 -0.00    +0.013 A  
DOCKED: BRANCH  11  13
DOCKED: ATOM     13  C   UNL     1     141.045  71.674 228.044 -0.38 -0.09    +0.416 C  
DOCKED: ATOM     14  F   UNL     1     141.818  70.882 228.872 -0.09 +0.03    -0.166 F  
DOCKED: ATOM     15  F   UNL     1     141.783  72.781 227.662 -0.30 +0.04    -0.166 F  
DOCKED: ATOM     16  F   UNL     1     139.938  72.116 228.747 -0.28 +0.05    -0.166 F  
DOCKED: ENDBRANCH  11  13
DOCKED: ENDBRANCH   6   7
DOCKED: ENDBRANCH   5   6
DOCKED: ENDBRANCH   4   5
DOCKED: ENDBRANCH   1   4
DOCKED: BRANCH   1  17
DOCKED: ATOM     17  C   UNL     1     141.163  75.244 220.612 -0.26 +0.00    -0.001 C  
DOCKED: BRANCH  17  18
DOCKED: ATOM     18  C   UNL     1     140.888  76.650 220.151 -0.19 -0.03    +0.071 C  
DOCKED: BRANCH  18  19
DOCKED: ATOM     19  C   UNL     1     141.804  77.660 220.842 -0.17 -0.15    +0.234 C  
DOCKED: BRANCH  19  20
DOCKED: ATOM     20  O   UNL     1     141.413  77.805 222.204 -0.14 +0.25    -0.492 OA 
DOCKED: BRANCH  20  21
DOCKED: ATOM     21  C   UNL     1     140.528  78.757 222.744 -0.35 -0.04    +0.137 A  
DOCKED: ATOM     22  C   UNL     1     139.168  78.419 222.705 -0.30 -0.01    +0.049 A  
DOCKED: ATOM     23  C   UNL     1     140.906  80.008 223.310 -0.44 -0.02    +0.084 A  
DOCKED: ATOM     24  C   UNL     1     138.196  79.276 223.223 -0.27 -0.00    +0.024 A  
DOCKED: ATOM     25  C   UNL     1     139.918  80.858 223.827 -0.34 -0.00    +0.045 A  
DOCKED: ATOM     26  C   UNL     1     138.570  80.495 223.785 -0.38 -0.00    +0.042 A  
DOCKED: ATOM     27  Cl  UNL     1     142.558  80.610 223.389 -0.81 +0.02    -0.080 Cl 
DOCKED: ATOM     28  Cl  UNL     1     137.349  81.575 224.435 -0.39 +0.01    -0.084 Cl 
DOCKED: ENDBRANCH  20  21
DOCKED: ENDBRANCH  19  20
DOCKED: ENDBRANCH  18  19
DOCKED: ENDBRANCH  17  18
DOCKED: ENDBRANCH   1  17
DOCKED: TORSDOF 11
DOCKED: TER
DOCKED: ENDMDL
________________________________________________________________________________


    FINAL DOCKED STATE:
    ________________________


Run:   19 / 20
Time taken for this run:   0.109s

DOCKED: MODEL        19
DOCKED: USER    Run = 19
DOCKED: USER
DOCKED: USER    Estimated Free Energy of Binding    =  -7.35 kcal/mol  [=(1)+(2)+(3)-(4)]
DOCKED: USER
DOCKED: USER    (1) Final Intermolecular Energy     = -10.63 kcal/mol
DOCKED: USER        vdW + Hbond + desolv Energy     = -10.56 kcal/mol
DOCKED: USER        Electrostatic Energy            =  -0.07 kcal/mol
DOCKED: USER        Moving Ligand-Fixed Receptor    = -10.63 kcal/mol
DOCKED: USER        Moving Ligand-Moving Receptor   =  +0.00 kcal/mol
DOCKED: USER    (2) Final Total Internal Energy     =  -0.91 kcal/mol
DOCKED: USER    (3) Torsional Free Energy           =  +3.28 kcal/mol
DOCKED: USER    (4) Unbound System's Energy         =  -0.91 kcal/mol
DOCKED: USER
DOCKED: USER
DOCKED: REMARK SMILES O/C(=C\CCOc1ccc(Cl)cc1Cl)[N-]/N=C/c1cccc(C(F)(F)F)c1
DOCKED: REMARK SMILES IDX 2 1 1 2 15 4 16 5 17 6 18 7 19 8 27 9 20 10 22 11 21 12
DOCKED: REMARK SMILES IDX 23 13 24 14 25 15 26 16 3 17 4 18 5 19 6 20 7 21 8 22 13 23
DOCKED: REMARK SMILES IDX 9 24 12 25 10 26 14 27 11 28
DOCKED: REMARK H PARENT 1 3
DOCKED: USER                              x       y       z     vdW  Elec       q    Type
DOCKED: USER                           _______ _______ _______ _____ _____    ______ ____
DOCKED: ROOT
DOCKED: ATOM      1  C   UNL     1     140.549  74.208 221.686 -0.25 -0.00    +0.023 C  
DOCKED: ENDROOT
DOCKED: BRANCH   1   2
DOCKED: ATOM      2  O   UNL     1     139.631  75.028 222.337 -0.56 +0.07    -0.530 OA 
DOCKED: ATOM      3  H   UNL     1     139.147  74.709 223.167 -0.46 -0.10    +0.290 HD 
DOCKED: ENDBRANCH   1   2
DOCKED: BRANCH   1   4
DOCKED: ATOM      4  N   UNL     1     140.995  73.015 222.344 -0.34 -0.01    -0.546 NA 
DOCKED: BRANCH   4   5
DOCKED: ATOM      5  N   UNL     1     140.321  72.464 223.443 -0.24 +0.03    -0.372 NA 
DOCKED: BRANCH   5   6
DOCKED: ATOM      6  C   UNL     1     140.640  71.296 223.900 -0.30 -0.01    +0.094 C  
DOCKED: BRANCH   6   7
DOCKED: ATOM      7  C   UNL     1     140.726  71.044 225.353 -0.56 +0.00    -0.009 A  
DOCKED: ATOM      8  C   UNL     1     141.069  72.097 226.214 -0.48 -0.00    +0.009 A  
DOCKED: ATOM      9  C   UNL     1     140.477  69.768 225.892 -0.49 -0.00    +0.022 A  
DOCKED: ATOM     10  C   UNL     1     141.169  71.880 227.589 -0.83 -0.00    +0.001 A  
DOCKED: ATOM     11  C   UNL     1     140.551  69.549 227.280 -0.55 -0.01    +0.056 A  
DOCKED: ATOM     12  C   UNL     1     140.923  70.612 228.121 -0.63 -0.00    +0.013 A  
DOCKED: BRANCH  11  13
DOCKED: ATOM     13  C   UNL     1     140.330  68.168 227.844 -0.26 -0.10    +0.416 C  
DOCKED: ATOM     14  F   UNL     1     141.448  67.393 227.600 -0.13 +0.05    -0.166 F  
DOCKED: ATOM     15  F   UNL     1     140.111  68.224 229.210 -0.14 +0.03    -0.166 F  
DOCKED: ATOM     16  F   UNL     1     139.229  67.572 227.255 -0.19 +0.03    -0.166 F  
DOCKED: ENDBRANCH  11  13
DOCKED: ENDBRANCH   6   7
DOCKED: ENDBRANCH   5   6
DOCKED: ENDBRANCH   4   5
DOCKED: ENDBRANCH   1   4
DOCKED: BRANCH   1  17
DOCKED: ATOM     17  C   UNL     1     141.001  74.541 220.468 -0.23 +0.00    -0.001 C  
DOCKED: BRANCH  17  18
DOCKED: ATOM     18  C   UNL     1     142.236  75.376 220.262 -0.27 -0.03    +0.071 C  
DOCKED: BRANCH  18  19
DOCKED: ATOM     19  C   UNL     1     141.982  76.529 219.292 -0.17 -0.12    +0.234 C  
DOCKED: BRANCH  19  20
DOCKED: ATOM     20  O   UNL     1     141.123  77.488 219.904 -0.03 +0.22    -0.492 OA 
DOCKED: BRANCH  20  21
DOCKED: ATOM     21  C   UNL     1     141.471  78.466 220.854 -0.26 -0.07    +0.137 A  
DOCKED: ATOM     22  C   UNL     1     141.407  78.066 222.197 -0.38 -0.02    +0.049 A  
DOCKED: ATOM     23  C   UNL     1     141.871  79.800 220.557 -0.27 -0.04    +0.084 A  
DOCKED: ATOM     24  C   UNL     1     141.743  78.944 223.229 -0.57 -0.01    +0.024 A  
DOCKED: ATOM     25  C   UNL     1     142.204  80.670 221.605 -0.41 -0.02    +0.045 A  
DOCKED: ATOM     26  C   UNL     1     142.142  80.246 222.933 -0.58 -0.01    +0.042 A  
DOCKED: ATOM     27  Cl  UNL     1     141.951  80.480 218.936 -0.37 +0.05    -0.080 Cl 
DOCKED: ATOM     28  Cl  UNL     1     142.563  81.351 224.230 -0.60 +0.01    -0.084 Cl 
DOCKED: ENDBRANCH  20  21
DOCKED: ENDBRANCH  19  20
DOCKED: ENDBRANCH  18  19
DOCKED: ENDBRANCH  17  18
DOCKED: ENDBRANCH   1  17
DOCKED: TORSDOF 11
DOCKED: TER
DOCKED: ENDMDL
________________________________________________________________________________


    FINAL DOCKED STATE:
    ________________________


Run:   20 / 20
Time taken for this run:   0.109s

DOCKED: MODEL        20
DOCKED: USER    Run = 20
DOCKED: USER
DOCKED: USER    Estimated Free Energy of Binding    =  -7.08 kcal/mol  [=(1)+(2)+(3)-(4)]
DOCKED: USER
DOCKED: USER    (1) Final Intermolecular Energy     = -10.36 kcal/mol
DOCKED: USER        vdW + Hbond + desolv Energy     = -10.39 kcal/mol
DOCKED: USER        Electrostatic Energy            =  +0.03 kcal/mol
DOCKED: USER        Moving Ligand-Fixed Receptor    = -10.36 kcal/mol
DOCKED: USER        Moving Ligand-Moving Receptor   =  +0.00 kcal/mol
DOCKED: USER    (2) Final Total Internal Energy     =  -0.83 kcal/mol
DOCKED: USER    (3) Torsional Free Energy           =  +3.28 kcal/mol
DOCKED: USER    (4) Unbound System's Energy         =  -0.83 kcal/mol
DOCKED: USER
DOCKED: USER
DOCKED: REMARK SMILES O/C(=C\CCOc1ccc(Cl)cc1Cl)[N-]/N=C/c1cccc(C(F)(F)F)c1
DOCKED: REMARK SMILES IDX 2 1 1 2 15 4 16 5 17 6 18 7 19 8 27 9 20 10 22 11 21 12
DOCKED: REMARK SMILES IDX 23 13 24 14 25 15 26 16 3 17 4 18 5 19 6 20 7 21 8 22 13 23
DOCKED: REMARK SMILES IDX 9 24 12 25 10 26 14 27 11 28
DOCKED: REMARK H PARENT 1 3
DOCKED: USER                              x       y       z     vdW  Elec       q    Type
DOCKED: USER                           _______ _______ _______ _____ _____    ______ ____
DOCKED: ROOT
DOCKED: ATOM      1  C   UNL     1     140.503  73.399 221.828 -0.28 -0.00    +0.023 C  
DOCKED: ENDROOT
DOCKED: BRANCH   1   2
DOCKED: ATOM      2  O   UNL     1     139.617  74.334 222.357 -0.67 +0.06    -0.530 OA 
DOCKED: ATOM      3  H   UNL     1     138.890  74.053 223.002 -0.50 -0.16    +0.290 HD 
DOCKED: ENDBRANCH   1   2
DOCKED: BRANCH   1   4
DOCKED: ATOM      4  N   UNL     1     140.267  72.008 222.077 -0.08 +0.07    -0.546 NA 
DOCKED: BRANCH   4   5
DOCKED: ATOM      5  N   UNL     1     139.438  71.558 223.114 -0.15 +0.08    -0.372 NA 
DOCKED: BRANCH   5   6
DOCKED: ATOM      6  C   UNL     1     139.507  70.338 223.536 -0.27 -0.02    +0.094 C  
DOCKED: BRANCH   6   7
DOCKED: ATOM      7  C   UNL     1     139.905  70.034 224.927 -0.41 +0.00    -0.009 A  
DOCKED: ATOM      8  C   UNL     1     139.926  68.700 225.359 -0.43 -0.00    +0.009 A  
DOCKED: ATOM      9  C   UNL     1     140.256  71.056 225.829 -0.55 -0.00    +0.022 A  
DOCKED: ATOM     10  C   UNL     1     140.285  68.391 226.672 -0.64 -0.00    +0.001 A  
DOCKED: ATOM     11  C   UNL     1     140.645  70.748 227.145 -0.61 -0.01    +0.056 A  
DOCKED: ATOM     12  C   UNL     1     140.633  69.406 227.565 -0.61 -0.00    +0.013 A  
DOCKED: BRANCH  11  13
DOCKED: ATOM     13  C   UNL     1     140.973  71.852 228.119 -0.36 -0.10    +0.416 C  
DOCKED: ATOM     14  F   UNL     1     141.906  71.394 229.029 -0.15 +0.04    -0.166 F  
DOCKED: ATOM     15  F   UNL     1     141.491  72.952 227.458 -0.31 +0.04    -0.166 F  
DOCKED: ATOM     16  F   UNL     1     139.837  72.254 228.800 -0.27 +0.06    -0.166 F  
DOCKED: ENDBRANCH  11  13
DOCKED: ENDBRANCH   6   7
DOCKED: ENDBRANCH   5   6
DOCKED: ENDBRANCH   4   5
DOCKED: ENDBRANCH   1   4
DOCKED: BRANCH   1  17
DOCKED: ATOM     17  C   UNL     1     141.557  73.808 221.105 -0.26 +0.00    -0.001 C  
DOCKED: BRANCH  17  18
DOCKED: ATOM     18  C   UNL     1     141.428  74.296 219.688 -0.14 -0.02    +0.071 C  
DOCKED: BRANCH  18  19
DOCKED: ATOM     19  C   UNL     1     141.720  75.792 219.577 -0.14 -0.09    +0.234 C  
DOCKED: BRANCH  19  20
DOCKED: ATOM     20  O   UNL     1     140.901  76.507 220.498 -0.04 +0.19    -0.492 OA 
DOCKED: BRANCH  20  21
DOCKED: ATOM     21  C   UNL     1     141.232  77.675 221.211 -0.26 -0.07    +0.137 A  
DOCKED: ATOM     22  C   UNL     1     141.096  77.600 222.605 -0.42 -0.02    +0.049 A  
DOCKED: ATOM     23  C   UNL     1     141.683  78.895 220.633 -0.27 -0.05    +0.084 A  
DOCKED: ATOM     24  C   UNL     1     141.408  78.688 223.420 -0.57 -0.01    +0.024 A  
DOCKED: ATOM     25  C   UNL     1     141.993  79.980 221.466 -0.39 -0.02    +0.045 A  
DOCKED: ATOM     26  C   UNL     1     141.857  79.878 222.851 -0.54 -0.01    +0.042 A  
DOCKED: ATOM     27  Cl  UNL     1     141.857  79.177 218.905 -0.35 +0.05    -0.080 Cl 
DOCKED: ATOM     28  Cl  UNL     1     142.248  81.249 223.876 -0.73 +0.01    -0.084 Cl 
DOCKED: ENDBRANCH  20  21
DOCKED: ENDBRANCH  19  20
DOCKED: ENDBRANCH  18  19
DOCKED: ENDBRANCH  17  18
DOCKED: ENDBRANCH   1  17
DOCKED: TORSDOF 11
DOCKED: TER
DOCKED: ENDMDL
________________________________________________________________________________


    CLUSTERING HISTOGRAM
    ____________________


________________________________________________________________________________
     |           |     |           |     |
Clus | Lowest    | Run | Mean      | Num | Histogram
-ter | Binding   |     | Binding   | in  |
Rank | Energy    |     | Energy    | Clus|    5    10   15   20   25   30   35
_____|___________|_____|___________|_____|____:____|____:____|____:____|____:___
   1 |     -7.35 |  19 |     -6.86 |   6 |######
   2 |     -7.06 |  18 |     -6.60 |   9 |#########
   3 |     -6.35 |   3 |     -6.17 |   3 |###
   4 |     -6.24 |  13 |     -6.24 |   1 |#
   5 |     -5.19 |  11 |     -5.19 |   1 |#
_____|___________|_____|___________|_____|______________________________________


    RMSD TABLE
    __________


_______________________________________________________________________
     |      |      |           |         |                 |
Rank | Sub- | Run  | Binding   | Cluster | Reference       | Grep
     | Rank |      | Energy    | RMSD    | RMSD            | Pattern
_____|______|______|___________|_________|_________________|___________
   1      1     19       -7.35      0.00    272.93           RANKING
   1      2      5       -7.28      1.87    272.91           RANKING
   1      3     20       -7.08      1.83    272.75           RANKING
   1      4     10       -6.82      1.71    272.74           RANKING
   1      5     16       -6.74      0.46    272.79           RANKING
   1      6     12       -5.91      1.99    272.47           RANKING
   2      1     18       -7.06      0.00    273.01           RANKING
   2      2      6       -6.91      1.00    272.94           RANKING
   2      3     14       -6.89      0.51    273.00           RANKING
   2      4      4       -6.69      1.79    272.80           RANKING
   2      5      2       -6.64      0.96    272.88           RANKING
   2      6      8       -6.61      2.00    272.59           RANKING
   2      7     15       -6.37      1.09    272.84           RANKING
   2      8      1       -6.12      1.91    272.52           RANKING
   2      9      9       -6.12      1.38    272.97           RANKING
   3      1      3       -6.35      0.00    272.27           RANKING
   3      2      7       -6.15      1.01    272.06           RANKING
   3      3     17       -6.01      1.48    271.98           RANKING
   4      1     13       -6.24      0.00    272.42           RANKING
   5      1     11       -5.19      0.00    271.83           RANKING

Run time 2.139 sec
Idle time 0.000 sec
