AutoDock-GPU version: v1.6

**********************************************************
**    AutoDock-GPU AUTODOCKTOOLS-COMPATIBLE DLG FILE    **
**********************************************************


    DOCKING PARAMETERS
    ________________________


Ligand file:                               /home/a/REINVENT4/ReinventStudies/scoringData/graph-dock-h4r84i/graph-DockGPU/node-autodockgpu/inputs/JFIDHXWBANSMLJ-PEDPIEKMNA-N.pdbqt
Grid fld file:                             /home/a/REINVENT4/ReinventStudies/mols/Rad51/maps/rad51_receptor.maps.fld

Random seed:                               42
Number of runs:                            20
Number of energy evaluations:              3119281
Number of generations:                     42000
Size of population:                        150
Rate of crossover:                         80.000000%
Tournament selection probability limit:    60.000000%
Rate of mutation:                          2.000000%
Maximal allowed delta movement:            +/- 6.000000A
Maximal allowed delta angle:               +/- 90.000000

Rate of local search:                      100.000000%
Maximal number of local search iterations: 300
Rho lower bound:                           0.010000
Spread of local search delta movement:     2.000000A
Spread of local search delta angle:        74.999999
Limit of consecutive successes/failures:   4

Handle symmetry during clustering:         YES
RMSD tolerance:                            2.000000A

Program call in command line was:          /home/a/REINVENT4/ReinventStudies/adgpu-v1.6_linux_x64_cuda12_128wi --filelist batch.txt --heuristics 1 --nrun 20 --psize 150 --lsit 300 --seed 42 --heurmax 12000000 


    GRID PARAMETERS
    ________________________


Receptor name:                             rad51_receptor
Number of grid points (x, y, z):           53, 53, 53
Grid center (x, y, z):                     139.950000, 75.640000, 221.970000A
Grid size (x, y, z):                       19.500000, 19.500000, 19.500000A
Grid spacing:                              0.375000A


    LIGAND PARAMETERS
    ________________________


Ligand name:                               /home/a/REINVENT4/ReinventStudies/scoringData/graph-dock-h4r84i/graph-DockGPU/node-autodockgpu/inputs/JFIDHXWBANSMLJ-PEDPIEKMNA-N
Number of atoms:                           40
Number of rotatable bonds:                 11
Number of atom types:                      8


    DUMMY DATA (only for ADT-compatibility)
    ________________________


DPF> outlev 1
DPF> ga_run 20
DPF> fld /home/a/REINVENT4/ReinventStudies/mols/Rad51/maps/rad51_receptor.maps.fld
DPF> move /home/a/REINVENT4/ReinventStudies/scoringData/graph-dock-h4r84i/graph-DockGPU/node-autodockgpu/inputs/JFIDHXWBANSMLJ-PEDPIEKMNA-N.pdbqt


    COUNTER STATES
    ________________________


Number of energy evaluations performed:    1193702
Number of generations used:                80


    INPUT LIGAND PDBQT FILE:
    ________________________


INPUT-LIGAND-PDBQT: REMARK SMILES COc1ccc([C@H](C)NC(=O)[C@@H]2C[C@@H](O)C/[N+]2=C(\O)C[N-]C(=O)c2ccc3cc(F)ccc3n2)c(Cl)c1
INPUT-LIGAND-PDBQT: REMARK SMILES IDX 17 1 16 2 14 3 13 4 12 5 18 6 19 7 20 9 21 10 22 11 23 12
INPUT-LIGAND-PDBQT: REMARK SMILES IDX 24 13 34 14 25 15 33 16 26 17 32 18 27 19 31 20 28 21 29 22
INPUT-LIGAND-PDBQT: REMARK SMILES IDX 30 23 10 24 9 25 11 26 7 28 8 29 6 30 5 31 35 32 4 33 37 34
INPUT-LIGAND-PDBQT: REMARK SMILES IDX 3 35 36 36 2 37 1 38 15 39
INPUT-LIGAND-PDBQT: REMARK H PARENT 19 8 9 27 15 40
INPUT-LIGAND-PDBQT: ROOT
INPUT-LIGAND-PDBQT: ATOM      1  N   UNL     1      -3.011  -1.048  -0.164  1.00  0.00    -0.189 N 
INPUT-LIGAND-PDBQT: ATOM      2  C   UNL     1      -3.545  -2.180   0.586  1.00  0.00     0.386 C 
INPUT-LIGAND-PDBQT: ATOM      3  C   UNL     1      -4.256  -1.595   1.805  1.00  0.00     0.186 C 
INPUT-LIGAND-PDBQT: ATOM      4  C   UNL     1      -3.720  -0.172   1.959  1.00  0.00     0.125 C 
INPUT-LIGAND-PDBQT: ATOM      5  C   UNL     1      -3.128   0.205   0.595  1.00  0.00     0.355 C 
INPUT-LIGAND-PDBQT: ENDROOT
INPUT-LIGAND-PDBQT: BRANCH   1   6
INPUT-LIGAND-PDBQT: ATOM      6  C   UNL     1      -2.595  -1.153  -1.410  1.00  0.00     0.316 C 
INPUT-LIGAND-PDBQT: BRANCH   6   7
INPUT-LIGAND-PDBQT: ATOM      7  O   UNL     1      -2.517  -2.397  -2.045  1.00  0.00    -0.465 OA
INPUT-LIGAND-PDBQT: ATOM      8  H   UNL     1      -2.697  -3.279  -1.583  1.00  0.00     0.299 HD
INPUT-LIGAND-PDBQT: ENDBRANCH   6   7
INPUT-LIGAND-PDBQT: BRANCH   6   9
INPUT-LIGAND-PDBQT: ATOM      9  C   UNL     1      -2.121   0.029  -2.215  1.00  0.00     0.039 C 
INPUT-LIGAND-PDBQT: BRANCH   9  10
INPUT-LIGAND-PDBQT: ATOM     10  N   UNL     1      -0.670   0.096  -2.142  1.00  0.00    -0.637 NA
INPUT-LIGAND-PDBQT: BRANCH  10  11
INPUT-LIGAND-PDBQT: ATOM     11  C   UNL     1       0.161  -0.734  -2.955  1.00  0.00     0.101 C 
INPUT-LIGAND-PDBQT: ATOM     12  O   UNL     1       0.124  -0.617  -4.210  1.00  0.00    -0.313 OA
INPUT-LIGAND-PDBQT: BRANCH  11  13
INPUT-LIGAND-PDBQT: ATOM     13  C   UNL     1       1.022  -1.744  -2.323  1.00  0.00     0.088 A 
INPUT-LIGAND-PDBQT: ATOM     14  N   UNL     1       0.715  -2.190  -1.074  1.00  0.00    -0.246 NA
INPUT-LIGAND-PDBQT: ATOM     15  C   UNL     1       2.142  -2.265  -2.990  1.00  0.00     0.031 A 
INPUT-LIGAND-PDBQT: ATOM     16  C   UNL     1       1.470  -3.121  -0.433  1.00  0.00     0.071 A 
INPUT-LIGAND-PDBQT: ATOM     17  C   UNL     1       2.942  -3.217  -2.354  1.00  0.00     0.013 A 
INPUT-LIGAND-PDBQT: ATOM     18  C   UNL     1       1.117  -3.552   0.849  1.00  0.00     0.032 A 
INPUT-LIGAND-PDBQT: ATOM     19  C   UNL     1       2.615  -3.655  -1.065  1.00  0.00     0.003 A 
INPUT-LIGAND-PDBQT: ATOM     20  C   UNL     1       1.902  -4.502   1.509  1.00  0.00     0.041 A 
INPUT-LIGAND-PDBQT: ATOM     21  C   UNL     1       3.398  -4.610  -0.398  1.00  0.00     0.049 A 
INPUT-LIGAND-PDBQT: ATOM     22  C   UNL     1       3.040  -5.030   0.887  1.00  0.00     0.123 A 
INPUT-LIGAND-PDBQT: ATOM     23  F   UNL     1       3.794  -5.954   1.532  1.00  0.00    -0.207 F 
INPUT-LIGAND-PDBQT: ENDBRANCH  11  13
INPUT-LIGAND-PDBQT: ENDBRANCH  10  11
INPUT-LIGAND-PDBQT: ENDBRANCH   9  10
INPUT-LIGAND-PDBQT: ENDBRANCH   6   9
INPUT-LIGAND-PDBQT: ENDBRANCH   1   6
INPUT-LIGAND-PDBQT: BRANCH   5  24
INPUT-LIGAND-PDBQT: ATOM     24  C   UNL     1      -1.800   0.901   0.781  1.00  0.00     0.289 C 
INPUT-LIGAND-PDBQT: ATOM     25  N   UNL     1      -0.654   0.185   1.266  1.00  0.00    -0.344 N 
INPUT-LIGAND-PDBQT: ATOM     26  O   UNL     1      -1.726   2.142   0.571  1.00  0.00    -0.267 OA
INPUT-LIGAND-PDBQT: ATOM     27  H   UNL     1      -0.691  -0.859   1.270  1.00  0.00     0.164 HD
INPUT-LIGAND-PDBQT: BRANCH  25  28
INPUT-LIGAND-PDBQT: ATOM     28  C   UNL     1       0.438   0.874   1.964  1.00  0.00     0.111 C 
INPUT-LIGAND-PDBQT: ATOM     29  C   UNL     1       1.320  -0.131   2.716  1.00  0.00     0.036 C 
INPUT-LIGAND-PDBQT: BRANCH  28  30
INPUT-LIGAND-PDBQT: ATOM     30  C   UNL     1       1.266   1.694   0.986  1.00  0.00    -0.007 A 
INPUT-LIGAND-PDBQT: ATOM     31  C   UNL     1       1.912   1.045  -0.081  1.00  0.00     0.011 A 
INPUT-LIGAND-PDBQT: ATOM     32  C   UNL     1       1.405   3.098   1.108  1.00  0.00     0.049 A 
INPUT-LIGAND-PDBQT: ATOM     33  C   UNL     1       2.665   1.763  -1.009  1.00  0.00     0.047 A 
INPUT-LIGAND-PDBQT: ATOM     34  C   UNL     1       2.166   3.811   0.172  1.00  0.00     0.067 A 
INPUT-LIGAND-PDBQT: ATOM     35  C   UNL     1       2.798   3.148  -0.894  1.00  0.00     0.120 A 
INPUT-LIGAND-PDBQT: ATOM     36  Cl  UNL     1       0.650   4.016   2.409  1.00  0.00    -0.084 Cl
INPUT-LIGAND-PDBQT: BRANCH  35  37
INPUT-LIGAND-PDBQT: ATOM     37  O   UNL     1       3.563   3.825  -1.854  1.00  0.00    -0.497 OA
INPUT-LIGAND-PDBQT: ATOM     38  C   UNL     1       3.778   5.234  -1.863  1.00  0.00     0.278 C 
INPUT-LIGAND-PDBQT: ENDBRANCH  35  37
INPUT-LIGAND-PDBQT: ENDBRANCH  28  30
INPUT-LIGAND-PDBQT: ENDBRANCH  25  28
INPUT-LIGAND-PDBQT: ENDBRANCH   5  24
INPUT-LIGAND-PDBQT: BRANCH   3  39
INPUT-LIGAND-PDBQT: ATOM     39  O   UNL     1      -5.652  -1.591   1.625  1.00  0.00    -0.386 OA
INPUT-LIGAND-PDBQT: ATOM     40  H   UNL     1      -5.856  -1.039   0.826  1.00  0.00     0.211 HD
INPUT-LIGAND-PDBQT: ENDBRANCH   3  39
INPUT-LIGAND-PDBQT: TORSDOF 11


    FINAL DOCKED STATE:
    ________________________


Run:   1 / 20
Time taken for this run:   0.077s

DOCKED: MODEL        1
DOCKED: USER    Run = 1
DOCKED: USER
DOCKED: USER    Estimated Free Energy of Binding    =  -5.29 kcal/mol  [=(1)+(2)+(3)-(4)]
DOCKED: USER
DOCKED: USER    (1) Final Intermolecular Energy     =  -8.57 kcal/mol
DOCKED: USER        vdW + Hbond + desolv Energy     =  -7.75 kcal/mol
DOCKED: USER        Electrostatic Energy            =  -0.82 kcal/mol
DOCKED: USER        Moving Ligand-Fixed Receptor    =  -8.57 kcal/mol
DOCKED: USER        Moving Ligand-Moving Receptor   =  +0.00 kcal/mol
DOCKED: USER    (2) Final Total Internal Energy     =  -5.74 kcal/mol
DOCKED: USER    (3) Torsional Free Energy           =  +3.28 kcal/mol
DOCKED: USER    (4) Unbound System's Energy         =  -5.74 kcal/mol
DOCKED: USER
DOCKED: USER
DOCKED: REMARK SMILES COc1ccc([C@H](C)NC(=O)[C@@H]2C[C@@H](O)C/[N+]2=C(\O)C[N-]C(=O)c2ccc3cc(F)ccc3n2)c(Cl)c1
DOCKED: REMARK SMILES IDX 17 1 16 2 14 3 13 4 12 5 18 6 19 7 20 9 21 10 22 11 23 12
DOCKED: REMARK SMILES IDX 24 13 34 14 25 15 33 16 26 17 32 18 27 19 31 20 28 21 29 22
DOCKED: REMARK SMILES IDX 30 23 10 24 9 25 11 26 7 28 8 29 6 30 5 31 35 32 4 33 37 34
DOCKED: REMARK SMILES IDX 3 35 36 36 2 37 1 38 15 39
DOCKED: REMARK H PARENT 19 8 9 27 15 40
DOCKED: USER                              x       y       z     vdW  Elec       q    Type
DOCKED: USER                           _______ _______ _______ _____ _____    ______ ____
DOCKED: ROOT
DOCKED: ATOM      1  N   UNL     1     140.687  78.263 217.676 -0.04 +0.08    -0.189 N  
DOCKED: ATOM      2  C   UNL     1     140.625  79.687 217.991 -0.03 -0.18    +0.386 C  
DOCKED: ATOM      3  C   UNL     1     142.005  80.261 217.674 -0.21 -0.15    +0.186 C  
DOCKED: ATOM      4  C   UNL     1     142.953  79.063 217.614 -0.06 -0.15    +0.125 C  
DOCKED: ATOM      5  C   UNL     1     142.064  77.833 217.395 -0.12 -0.24    +0.355 C  
DOCKED: ENDROOT
DOCKED: BRANCH   1   6
DOCKED: ATOM      6  C   UNL     1     139.610  77.515 217.550 -0.00 -0.10    +0.316 C  
DOCKED: BRANCH   6   7
DOCKED: ATOM      7  O   UNL     1     139.706  76.149 217.266 +0.01 +0.13    -0.465 OA 
DOCKED: ATOM      8  H   UNL     1     139.219  75.429 217.784 +0.02 -0.07    +0.299 HD 
DOCKED: ENDBRANCH   6   7
DOCKED: BRANCH   6   9
DOCKED: ATOM      9  C   UNL     1     138.213  78.073 217.640 -0.00 -0.01    +0.039 C  
DOCKED: BRANCH   9  10
DOCKED: ATOM     10  N   UNL     1     137.548  77.492 218.796 +0.01 +0.13    -0.637 NA 
DOCKED: BRANCH  10  11
DOCKED: ATOM     11  C   UNL     1     138.276  76.796 219.809 -0.04 -0.02    +0.101 C  
DOCKED: ATOM     12  O   UNL     1     138.319  75.536 219.793 -0.01 +0.07    -0.313 OA 
DOCKED: BRANCH  11  13
DOCKED: ATOM     13  C   UNL     1     138.935  77.554 220.882 -0.11 -0.02    +0.088 A  
DOCKED: ATOM     14  N   UNL     1     140.184  78.054 220.672 -0.07 +0.08    -0.246 NA 
DOCKED: ATOM     15  C   UNL     1     138.294  77.782 222.110 -0.22 -0.01    +0.031 A  
DOCKED: ATOM     16  C   UNL     1     140.849  78.762 221.623 -0.29 -0.03    +0.071 A  
DOCKED: ATOM     17  C   UNL     1     138.955  78.499 223.110 -0.30 -0.00    +0.013 A  
DOCKED: ATOM     18  C   UNL     1     142.129  79.259 221.363 -0.29 -0.02    +0.032 A  
DOCKED: ATOM     19  C   UNL     1     140.243  78.997 222.877 -0.41 -0.00    +0.003 A  
DOCKED: ATOM     20  C   UNL     1     142.814  79.978 222.347 -0.49 -0.02    +0.041 A  
DOCKED: ATOM     21  C   UNL     1     140.935  79.720 223.861 -0.48 -0.01    +0.049 A  
DOCKED: ATOM     22  C   UNL     1     142.218  80.208 223.594 -0.55 -0.03    +0.123 A  
DOCKED: ATOM     23  F   UNL     1     142.887  80.909 224.542 -0.16 +0.03    -0.207 F  
DOCKED: ENDBRANCH  11  13
DOCKED: ENDBRANCH  10  11
DOCKED: ENDBRANCH   9  10
DOCKED: ENDBRANCH   6   9
DOCKED: ENDBRANCH   1   6
DOCKED: BRANCH   5  24
DOCKED: ATOM     24  C   UNL     1     142.516  76.701 218.287 -0.17 -0.16    +0.289 C  
DOCKED: ATOM     25  N   UNL     1     141.645  76.165 219.296 -0.06 +0.15    -0.344 N  
DOCKED: ATOM     26  O   UNL     1     143.698  76.276 218.184 -0.23 +0.17    -0.267 OA 
DOCKED: ATOM     27  H   UNL     1     140.631  76.409 219.251 +0.05 -0.06    +0.164 HD 
DOCKED: BRANCH  25  28
DOCKED: ATOM     28  C   UNL     1     142.179  75.501 220.491 -0.23 -0.05    +0.111 C  
DOCKED: ATOM     29  C   UNL     1     141.043  74.910 221.336 -0.31 -0.01    +0.036 C  
DOCKED: BRANCH  28  30
DOCKED: ATOM     30  C   UNL     1     143.181  74.424 220.104 -0.34 +0.00    -0.007 A  
DOCKED: ATOM     31  C   UNL     1     144.497  74.501 220.595 -0.41 -0.00    +0.011 A  
DOCKED: ATOM     32  C   UNL     1     142.833  73.336 219.268 -0.15 -0.01    +0.049 A  
DOCKED: ATOM     33  C   UNL     1     145.440  73.525 220.278 -0.54 -0.00    +0.047 A  
DOCKED: ATOM     34  C   UNL     1     143.789  72.361 218.953 -0.15 -0.00    +0.067 A  
DOCKED: ATOM     35  C   UNL     1     145.097  72.447 219.459 -0.29 +0.02    +0.120 A  
DOCKED: ATOM     36  Cl  UNL     1     141.220  73.142 218.587 -0.05 +0.02    -0.084 Cl 
DOCKED: BRANCH  35  37
DOCKED: ATOM     37  O   UNL     1     146.080  71.490 219.172 -0.32 -0.53    -0.497 OA 
DOCKED: ATOM     38  C   UNL     1     145.812  70.114 218.915 -0.19 +0.16    +0.278 C  
DOCKED: ENDBRANCH  35  37
DOCKED: ENDBRANCH  28  30
DOCKED: ENDBRANCH  25  28
DOCKED: ENDBRANCH   5  24
DOCKED: BRANCH   3  39
DOCKED: ATOM     39  O   UNL     1     141.995  80.957 216.450 -0.08 +0.34    -0.386 OA 
DOCKED: ATOM     40  H   UNL     1     142.896  80.871 216.042 -0.44 -0.34    +0.211 HD 
DOCKED: ENDBRANCH   3  39
DOCKED: TORSDOF 11
DOCKED: TER
DOCKED: ENDMDL
________________________________________________________________________________


    FINAL DOCKED STATE:
    ________________________


Run:   2 / 20
Time taken for this run:   0.077s

DOCKED: MODEL        2
DOCKED: USER    Run = 2
DOCKED: USER
DOCKED: USER    Estimated Free Energy of Binding    =  -8.63 kcal/mol  [=(1)+(2)+(3)-(4)]
DOCKED: USER
DOCKED: USER    (1) Final Intermolecular Energy     = -11.91 kcal/mol
DOCKED: USER        vdW + Hbond + desolv Energy     = -11.52 kcal/mol
DOCKED: USER        Electrostatic Energy            =  -0.39 kcal/mol
DOCKED: USER        Moving Ligand-Fixed Receptor    = -11.91 kcal/mol
DOCKED: USER        Moving Ligand-Moving Receptor   =  +0.00 kcal/mol
DOCKED: USER    (2) Final Total Internal Energy     =  -3.83 kcal/mol
DOCKED: USER    (3) Torsional Free Energy           =  +3.28 kcal/mol
DOCKED: USER    (4) Unbound System's Energy         =  -3.83 kcal/mol
DOCKED: USER
DOCKED: USER
DOCKED: REMARK SMILES COc1ccc([C@H](C)NC(=O)[C@@H]2C[C@@H](O)C/[N+]2=C(\O)C[N-]C(=O)c2ccc3cc(F)ccc3n2)c(Cl)c1
DOCKED: REMARK SMILES IDX 17 1 16 2 14 3 13 4 12 5 18 6 19 7 20 9 21 10 22 11 23 12
DOCKED: REMARK SMILES IDX 24 13 34 14 25 15 33 16 26 17 32 18 27 19 31 20 28 21 29 22
DOCKED: REMARK SMILES IDX 30 23 10 24 9 25 11 26 7 28 8 29 6 30 5 31 35 32 4 33 37 34
DOCKED: REMARK SMILES IDX 3 35 36 36 2 37 1 38 15 39
DOCKED: REMARK H PARENT 19 8 9 27 15 40
DOCKED: USER                              x       y       z     vdW  Elec       q    Type
DOCKED: USER                           _______ _______ _______ _____ _____    ______ ____
DOCKED: ROOT
DOCKED: ATOM      1  N   UNL     1     140.434  76.685 221.764 -0.24 +0.06    -0.189 N  
DOCKED: ATOM      2  C   UNL     1     141.274  77.416 220.821 -0.13 -0.19    +0.386 C  
DOCKED: ATOM      3  C   UNL     1     141.346  78.855 221.331 -0.27 -0.09    +0.186 C  
DOCKED: ATOM      4  C   UNL     1     140.176  79.014 222.301 -0.28 -0.03    +0.125 C  
DOCKED: ATOM      5  C   UNL     1     139.776  77.592 222.715 -0.11 -0.07    +0.355 C  
DOCKED: ENDROOT
DOCKED: BRANCH   1   6
DOCKED: ATOM      6  C   UNL     1     140.390  75.369 221.805 -0.17 -0.06    +0.316 C  
DOCKED: BRANCH   6   7
DOCKED: ATOM      7  O   UNL     1     139.566  74.700 222.716 -0.48 +0.04    -0.465 OA 
DOCKED: ATOM      8  H   UNL     1     139.754  73.771 223.071 -0.35 -0.01    +0.299 HD 
DOCKED: ENDBRANCH   6   7
DOCKED: BRANCH   6   9
DOCKED: ATOM      9  C   UNL     1     141.252  74.496 220.931 -0.27 -0.01    +0.039 C  
DOCKED: BRANCH   9  10
DOCKED: ATOM     10  N   UNL     1     141.419  73.203 221.577 -0.05 +0.05    -0.637 NA 
DOCKED: BRANCH  10  11
DOCKED: ATOM     11  C   UNL     1     140.358  72.249 221.631 -0.23 -0.01    +0.101 C  
DOCKED: ATOM     12  O   UNL     1     139.638  72.056 220.614 -0.04 +0.06    -0.313 OA 
DOCKED: BRANCH  11  13
DOCKED: ATOM     13  C   UNL     1     140.090  71.528 222.884 -0.30 -0.01    +0.088 A  
DOCKED: ATOM     14  N   UNL     1     140.640  71.985 224.043 -0.21 +0.02    -0.246 NA 
DOCKED: ATOM     15  C   UNL     1     139.268  70.391 222.907 -0.23 -0.01    +0.031 A  
DOCKED: ATOM     16  C   UNL     1     140.434  71.364 225.234 -0.49 -0.01    +0.071 A  
DOCKED: ATOM     17  C   UNL     1     139.043  69.727 224.116 -0.31 -0.00    +0.013 A  
DOCKED: ATOM     18  C   UNL     1     141.017  71.869 226.400 -0.67 -0.00    +0.032 A  
DOCKED: ATOM     19  C   UNL     1     139.626  70.207 225.295 -0.44 -0.00    +0.003 A  
DOCKED: ATOM     20  C   UNL     1     140.810  71.222 227.623 -0.71 -0.01    +0.041 A  
DOCKED: ATOM     21  C   UNL     1     139.421  69.563 226.525 -0.45 -0.01    +0.049 A  
DOCKED: ATOM     22  C   UNL     1     140.014  70.072 227.685 -0.51 -0.02    +0.123 A  
DOCKED: ATOM     23  F   UNL     1     139.815  69.452 228.874 -0.11 +0.03    -0.207 F  
DOCKED: ENDBRANCH  11  13
DOCKED: ENDBRANCH  10  11
DOCKED: ENDBRANCH   9  10
DOCKED: ENDBRANCH   6   9
DOCKED: ENDBRANCH   1   6
DOCKED: BRANCH   5  24
DOCKED: ATOM     24  C   UNL     1     138.271  77.454 222.707 -0.17 -0.05    +0.289 C  
DOCKED: ATOM     25  N   UNL     1     137.637  76.266 223.205 -0.11 +0.08    -0.344 N  
DOCKED: ATOM     26  O   UNL     1     137.577  78.371 222.191 -0.11 +0.04    -0.267 OA 
DOCKED: ATOM     27  H   UNL     1     138.210  75.604 223.775 -0.31 -0.08    +0.164 HD 
DOCKED: BRANCH  25  28
DOCKED: ATOM     28  C   UNL     1     136.308  75.856 222.736 -0.20 -0.02    +0.111 C  
DOCKED: ATOM     29  C   UNL     1     136.423  74.738 221.691 -0.12 -0.01    +0.036 C  
DOCKED: BRANCH  28  30
DOCKED: ATOM     30  C   UNL     1     135.440  75.416 223.905 -0.29 +0.00    -0.007 A  
DOCKED: ATOM     31  C   UNL     1     135.451  74.067 224.301 -0.28 -0.00    +0.011 A  
DOCKED: ATOM     32  C   UNL     1     134.619  76.324 224.618 -0.24 -0.01    +0.049 A  
DOCKED: ATOM     33  C   UNL     1     134.684  73.628 225.379 -0.26 -0.00    +0.047 A  
DOCKED: ATOM     34  C   UNL     1     133.849  75.873 225.698 -0.30 -0.00    +0.067 A  
DOCKED: ATOM     35  C   UNL     1     133.879  74.523 226.087 -0.31 +0.01    +0.120 A  
DOCKED: ATOM     36  Cl  UNL     1     134.517  78.034 224.205 -0.14 +0.01    -0.084 Cl 
DOCKED: BRANCH  35  37
DOCKED: ATOM     37  O   UNL     1     133.128  74.033 227.164 -0.69 -0.05    -0.497 OA 
DOCKED: ATOM     38  C   UNL     1     132.331  72.852 227.118 -0.26 -0.04    +0.278 C  
DOCKED: ENDBRANCH  35  37
DOCKED: ENDBRANCH  28  30
DOCKED: ENDBRANCH  25  28
DOCKED: ENDBRANCH   5  24
DOCKED: BRANCH   3  39
DOCKED: ATOM     39  O   UNL     1     142.573  79.105 221.975 -0.24 +0.26    -0.386 OA 
DOCKED: ATOM     40  H   UNL     1     143.243  78.468 221.614 -0.46 -0.26    +0.211 HD 
DOCKED: ENDBRANCH   3  39
DOCKED: TORSDOF 11
DOCKED: TER
DOCKED: ENDMDL
________________________________________________________________________________


    FINAL DOCKED STATE:
    ________________________


Run:   3 / 20
Time taken for this run:   0.077s

DOCKED: MODEL        3
DOCKED: USER    Run = 3
DOCKED: USER
DOCKED: USER    Estimated Free Energy of Binding    =  -7.32 kcal/mol  [=(1)+(2)+(3)-(4)]
DOCKED: USER
DOCKED: USER    (1) Final Intermolecular Energy     = -10.60 kcal/mol
DOCKED: USER        vdW + Hbond + desolv Energy     = -10.36 kcal/mol
DOCKED: USER        Electrostatic Energy            =  -0.24 kcal/mol
DOCKED: USER        Moving Ligand-Fixed Receptor    = -10.60 kcal/mol
DOCKED: USER        Moving Ligand-Moving Receptor   =  +0.00 kcal/mol
DOCKED: USER    (2) Final Total Internal Energy     =  -4.89 kcal/mol
DOCKED: USER    (3) Torsional Free Energy           =  +3.28 kcal/mol
DOCKED: USER    (4) Unbound System's Energy         =  -4.89 kcal/mol
DOCKED: USER
DOCKED: USER
DOCKED: REMARK SMILES COc1ccc([C@H](C)NC(=O)[C@@H]2C[C@@H](O)C/[N+]2=C(\O)C[N-]C(=O)c2ccc3cc(F)ccc3n2)c(Cl)c1
DOCKED: REMARK SMILES IDX 17 1 16 2 14 3 13 4 12 5 18 6 19 7 20 9 21 10 22 11 23 12
DOCKED: REMARK SMILES IDX 24 13 34 14 25 15 33 16 26 17 32 18 27 19 31 20 28 21 29 22
DOCKED: REMARK SMILES IDX 30 23 10 24 9 25 11 26 7 28 8 29 6 30 5 31 35 32 4 33 37 34
DOCKED: REMARK SMILES IDX 3 35 36 36 2 37 1 38 15 39
DOCKED: REMARK H PARENT 19 8 9 27 15 40
DOCKED: USER                              x       y       z     vdW  Elec       q    Type
DOCKED: USER                           _______ _______ _______ _____ _____    ______ ____
DOCKED: ROOT
DOCKED: ATOM      1  N   UNL     1     140.451  74.915 220.526 -0.11 +0.05    -0.189 N  
DOCKED: ATOM      2  C   UNL     1     141.225  75.377 219.378 -0.04 -0.13    +0.386 C  
DOCKED: ATOM      3  C   UNL     1     141.937  76.653 219.822 -0.21 -0.10    +0.186 C  
DOCKED: ATOM      4  C   UNL     1     141.194  77.136 221.067 -0.25 -0.06    +0.125 C  
DOCKED: ATOM      5  C   UNL     1     140.432  75.917 221.601 -0.20 -0.09    +0.355 C  
DOCKED: ENDROOT
DOCKED: BRANCH   1   6
DOCKED: ATOM      6  C   UNL     1     139.950  73.699 220.603 -0.08 -0.06    +0.316 C  
DOCKED: BRANCH   6   7
DOCKED: ATOM      7  O   UNL     1     138.579  73.469 220.442 -0.01 +0.10    -0.465 OA 
DOCKED: ATOM      8  H   UNL     1     138.105  72.634 220.761 +0.05 -0.06    +0.299 HD 
DOCKED: ENDBRANCH   6   7
DOCKED: BRANCH   6   9
DOCKED: ATOM      9  C   UNL     1     140.787  72.488 220.925 -0.20 -0.01    +0.039 C  
DOCKED: BRANCH   9  10
DOCKED: ATOM     10  N   UNL     1     139.921  71.442 221.446 +0.02 +0.10    -0.637 NA 
DOCKED: BRANCH  10  11
DOCKED: ATOM     11  C   UNL     1     139.168  71.621 222.646 -0.23 -0.02    +0.101 C  
DOCKED: ATOM     12  O   UNL     1     138.067  72.236 222.607 -0.12 +0.10    -0.313 OA 
DOCKED: BRANCH  11  13
DOCKED: ATOM     13  C   UNL     1     139.701  71.122 223.922 -0.35 -0.02    +0.088 A  
DOCKED: ATOM     14  N   UNL     1     139.301  69.903 224.377 -0.18 +0.04    -0.246 NA 
DOCKED: ATOM     15  C   UNL     1     140.625  71.872 224.667 -0.35 -0.00    +0.031 A  
DOCKED: ATOM     16  C   UNL     1     139.754  69.385 225.549 -0.40 -0.01    +0.071 A  
DOCKED: ATOM     17  C   UNL     1     141.103  71.369 225.879 -0.63 -0.00    +0.013 A  
DOCKED: ATOM     18  C   UNL     1     139.318  68.128 225.978 -0.53 -0.00    +0.032 A  
DOCKED: ATOM     19  C   UNL     1     140.670  70.118 226.335 -0.56 -0.00    +0.003 A  
DOCKED: ATOM     20  C   UNL     1     139.779  67.603 227.188 -0.46 -0.01    +0.041 A  
DOCKED: ATOM     21  C   UNL     1     141.131  69.584 227.549 -0.50 -0.01    +0.049 A  
DOCKED: ATOM     22  C   UNL     1     140.683  68.329 227.972 -0.56 -0.03    +0.123 A  
DOCKED: ATOM     23  F   UNL     1     141.129  67.811 229.143 -0.19 +0.06    -0.207 F  
DOCKED: ENDBRANCH  11  13
DOCKED: ENDBRANCH  10  11
DOCKED: ENDBRANCH   9  10
DOCKED: ENDBRANCH   6   9
DOCKED: ENDBRANCH   1   6
DOCKED: BRANCH   5  24
DOCKED: ATOM     24  C   UNL     1     139.030  76.316 222.001 -0.20 -0.06    +0.289 C  
DOCKED: ATOM     25  N   UNL     1     138.030  75.323 222.275 -0.12 +0.10    -0.344 N  
DOCKED: ATOM     26  O   UNL     1     138.727  77.540 222.024 -0.15 +0.05    -0.267 OA 
DOCKED: ATOM     27  H   UNL     1     138.342  74.336 222.415 -0.30 -0.06    +0.164 HD 
DOCKED: BRANCH  25  28
DOCKED: ATOM     28  C   UNL     1     136.600  75.617 222.121 -0.16 -0.02    +0.111 C  
DOCKED: ATOM     29  C   UNL     1     136.043  74.952 220.856 -0.05 -0.01    +0.036 C  
DOCKED: BRANCH  28  30
DOCKED: ATOM     30  C   UNL     1     135.826  75.171 223.353 -0.25 +0.00    -0.007 A  
DOCKED: ATOM     31  C   UNL     1     135.806  73.807 223.695 -0.19 -0.00    +0.011 A  
DOCKED: ATOM     32  C   UNL     1     135.127  76.086 224.176 -0.25 -0.01    +0.049 A  
DOCKED: ATOM     33  C   UNL     1     135.123  73.360 224.825 -0.22 -0.01    +0.047 A  
DOCKED: ATOM     34  C   UNL     1     134.442  75.627 225.309 -0.32 -0.01    +0.067 A  
DOCKED: ATOM     35  C   UNL     1     134.439  74.262 225.642 -0.28 +0.00    +0.120 A  
DOCKED: ATOM     36  Cl  UNL     1     135.075  77.815 223.841 -0.14 +0.01    -0.084 Cl 
DOCKED: BRANCH  35  37
DOCKED: ATOM     37  O   UNL     1     133.770  73.763 226.769 -0.67 -0.10    -0.497 OA 
DOCKED: ATOM     38  C   UNL     1     133.119  72.497 226.823 -0.26 -0.02    +0.278 C  
DOCKED: ENDBRANCH  35  37
DOCKED: ENDBRANCH  28  30
DOCKED: ENDBRANCH  25  28
DOCKED: ENDBRANCH   5  24
DOCKED: BRANCH   3  39
DOCKED: ATOM     39  O   UNL     1     143.293  76.405 220.107 -0.20 +0.30    -0.386 OA 
DOCKED: ATOM     40  H   UNL     1     143.758  77.280 220.168 -0.49 -0.24    +0.211 HD 
DOCKED: ENDBRANCH   3  39
DOCKED: TORSDOF 11
DOCKED: TER
DOCKED: ENDMDL
________________________________________________________________________________


    FINAL DOCKED STATE:
    ________________________


Run:   4 / 20
Time taken for this run:   0.077s

DOCKED: MODEL        4
DOCKED: USER    Run = 4
DOCKED: USER
DOCKED: USER    Estimated Free Energy of Binding    =  -6.73 kcal/mol  [=(1)+(2)+(3)-(4)]
DOCKED: USER
DOCKED: USER    (1) Final Intermolecular Energy     = -10.01 kcal/mol
DOCKED: USER        vdW + Hbond + desolv Energy     =  -9.78 kcal/mol
DOCKED: USER        Electrostatic Energy            =  -0.23 kcal/mol
DOCKED: USER        Moving Ligand-Fixed Receptor    = -10.01 kcal/mol
DOCKED: USER        Moving Ligand-Moving Receptor   =  +0.00 kcal/mol
DOCKED: USER    (2) Final Total Internal Energy     =  -4.71 kcal/mol
DOCKED: USER    (3) Torsional Free Energy           =  +3.28 kcal/mol
DOCKED: USER    (4) Unbound System's Energy         =  -4.71 kcal/mol
DOCKED: USER
DOCKED: USER
DOCKED: REMARK SMILES COc1ccc([C@H](C)NC(=O)[C@@H]2C[C@@H](O)C/[N+]2=C(\O)C[N-]C(=O)c2ccc3cc(F)ccc3n2)c(Cl)c1
DOCKED: REMARK SMILES IDX 17 1 16 2 14 3 13 4 12 5 18 6 19 7 20 9 21 10 22 11 23 12
DOCKED: REMARK SMILES IDX 24 13 34 14 25 15 33 16 26 17 32 18 27 19 31 20 28 21 29 22
DOCKED: REMARK SMILES IDX 30 23 10 24 9 25 11 26 7 28 8 29 6 30 5 31 35 32 4 33 37 34
DOCKED: REMARK SMILES IDX 3 35 36 36 2 37 1 38 15 39
DOCKED: REMARK H PARENT 19 8 9 27 15 40
DOCKED: USER                              x       y       z     vdW  Elec       q    Type
DOCKED: USER                           _______ _______ _______ _____ _____    ______ ____
DOCKED: ROOT
DOCKED: ATOM      1  N   UNL     1     137.976  75.335 220.173 -0.03 +0.04    -0.189 N  
DOCKED: ATOM      2  C   UNL     1     137.019  76.431 220.073 -0.00 -0.07    +0.386 C  
DOCKED: ATOM      3  C   UNL     1     136.830  76.706 218.582 -0.00 -0.04    +0.186 C  
DOCKED: ATOM      4  C   UNL     1     138.028  76.064 217.883 -0.00 -0.03    +0.125 C  
DOCKED: ATOM      5  C   UNL     1     138.589  75.034 218.871 +0.00 -0.08    +0.355 C  
DOCKED: ENDROOT
DOCKED: BRANCH   1   6
DOCKED: ATOM      6  C   UNL     1     138.154  74.645 221.281 -0.09 -0.07    +0.316 C  
DOCKED: BRANCH   6   7
DOCKED: ATOM      7  O   UNL     1     138.783  75.212 222.394 -0.24 +0.12    -0.465 OA 
DOCKED: ATOM      8  H   UNL     1     139.235  74.674 223.123 -0.47 -0.09    +0.299 HD 
DOCKED: ENDBRANCH   6   7
DOCKED: BRANCH   6   9
DOCKED: ATOM      9  C   UNL     1     137.757  73.197 221.415 -0.12 -0.01    +0.039 C  
DOCKED: BRANCH   9  10
DOCKED: ATOM     10  N   UNL     1     138.959  72.379 221.424 +0.01 +0.13    -0.637 NA 
DOCKED: BRANCH  10  11
DOCKED: ATOM     11  C   UNL     1     139.934  72.489 222.462 -0.27 -0.02    +0.101 C  
DOCKED: ATOM     12  O   UNL     1     140.815  73.390 222.398 -0.63 -0.02    -0.313 OA 
DOCKED: BRANCH  11  13
DOCKED: ATOM     13  C   UNL     1     139.926  71.528 223.574 -0.35 -0.02    +0.088 A  
DOCKED: ATOM     14  N   UNL     1     140.460  71.894 224.771 -0.26 +0.04    -0.246 NA 
DOCKED: ATOM     15  C   UNL     1     139.365  70.250 223.426 -0.27 -0.01    +0.031 A  
DOCKED: ATOM     16  C   UNL     1     140.485  71.053 225.839 -0.54 -0.01    +0.071 A  
DOCKED: ATOM     17  C   UNL     1     139.384  69.360 224.502 -0.34 -0.00    +0.013 A  
DOCKED: ATOM     18  C   UNL     1     141.042  71.471 227.051 -0.72 -0.01    +0.032 A  
DOCKED: ATOM     19  C   UNL     1     139.947  69.752 225.723 -0.47 -0.00    +0.003 A  
DOCKED: ATOM     20  C   UNL     1     141.075  70.599 228.143 -0.59 -0.01    +0.041 A  
DOCKED: ATOM     21  C   UNL     1     139.981  68.882 226.823 -0.55 -0.01    +0.049 A  
DOCKED: ATOM     22  C   UNL     1     140.546  69.307 228.030 -0.52 -0.02    +0.123 A  
DOCKED: ATOM     23  F   UNL     1     140.579  68.469 229.095 -0.16 +0.05    -0.207 F  
DOCKED: ENDBRANCH  11  13
DOCKED: ENDBRANCH  10  11
DOCKED: ENDBRANCH   9  10
DOCKED: ENDBRANCH   6   9
DOCKED: ENDBRANCH   1   6
DOCKED: BRANCH   5  24
DOCKED: ATOM     24  C   UNL     1     140.098  75.116 218.904 -0.01 -0.08    +0.289 C  
DOCKED: ATOM     25  N   UNL     1     140.818  74.968 220.137 -0.05 +0.09    -0.344 N  
DOCKED: ATOM     26  O   UNL     1     140.718  75.388 217.840 -0.01 +0.08    -0.267 OA 
DOCKED: ATOM     27  H   UNL     1     140.307  74.580 220.961 +0.05 -0.03    +0.164 HD 
DOCKED: BRANCH  25  28
DOCKED: ATOM     28  C   UNL     1     142.147  75.563 220.321 -0.24 -0.05    +0.111 C  
DOCKED: ATOM     29  C   UNL     1     143.205  74.779 219.534 -0.31 -0.01    +0.036 C  
DOCKED: BRANCH  28  30
DOCKED: ATOM     30  C   UNL     1     142.141  77.027 219.909 -0.32 +0.00    -0.007 A  
DOCKED: ATOM     31  C   UNL     1     142.712  77.398 218.679 -0.33 -0.01    +0.011 A  
DOCKED: ATOM     32  C   UNL     1     141.570  78.037 220.722 -0.30 -0.03    +0.049 A  
DOCKED: ATOM     33  C   UNL     1     142.710  78.726 218.257 -0.29 -0.04    +0.047 A  
DOCKED: ATOM     34  C   UNL     1     141.575  79.370 220.291 -0.27 -0.03    +0.067 A  
DOCKED: ATOM     35  C   UNL     1     142.143  79.722 219.054 -0.25 -0.08    +0.120 A  
DOCKED: ATOM     36  Cl  UNL     1     140.835  77.692 222.286 -0.52 +0.03    -0.084 Cl 
DOCKED: BRANCH  35  37
DOCKED: ATOM     37  O   UNL     1     142.163  81.043 218.584 -0.13 +0.30    -0.497 OA 
DOCKED: ATOM     38  C   UNL     1     142.897  81.479 217.443 -0.20 -0.28    +0.278 C  
DOCKED: ENDBRANCH  35  37
DOCKED: ENDBRANCH  28  30
DOCKED: ENDBRANCH  25  28
DOCKED: ENDBRANCH   5  24
DOCKED: BRANCH   3  39
DOCKED: ATOM     39  O   UNL     1     135.620  76.160 218.114 +0.00 +0.06    -0.386 OA 
DOCKED: ATOM     40  H   UNL     1     135.794  75.745 217.229 +0.00 -0.04    +0.211 HD 
DOCKED: ENDBRANCH   3  39
DOCKED: TORSDOF 11
DOCKED: TER
DOCKED: ENDMDL
________________________________________________________________________________


    FINAL DOCKED STATE:
    ________________________


Run:   5 / 20
Time taken for this run:   0.077s

DOCKED: MODEL        5
DOCKED: USER    Run = 5
DOCKED: USER
DOCKED: USER    Estimated Free Energy of Binding    =  -7.35 kcal/mol  [=(1)+(2)+(3)-(4)]
DOCKED: USER
DOCKED: USER    (1) Final Intermolecular Energy     = -10.63 kcal/mol
DOCKED: USER        vdW + Hbond + desolv Energy     = -10.56 kcal/mol
DOCKED: USER        Electrostatic Energy            =  -0.07 kcal/mol
DOCKED: USER        Moving Ligand-Fixed Receptor    = -10.63 kcal/mol
DOCKED: USER        Moving Ligand-Moving Receptor   =  +0.00 kcal/mol
DOCKED: USER    (2) Final Total Internal Energy     =  -4.88 kcal/mol
DOCKED: USER    (3) Torsional Free Energy           =  +3.28 kcal/mol
DOCKED: USER    (4) Unbound System's Energy         =  -4.88 kcal/mol
DOCKED: USER
DOCKED: USER
DOCKED: REMARK SMILES COc1ccc([C@H](C)NC(=O)[C@@H]2C[C@@H](O)C/[N+]2=C(\O)C[N-]C(=O)c2ccc3cc(F)ccc3n2)c(Cl)c1
DOCKED: REMARK SMILES IDX 17 1 16 2 14 3 13 4 12 5 18 6 19 7 20 9 21 10 22 11 23 12
DOCKED: REMARK SMILES IDX 24 13 34 14 25 15 33 16 26 17 32 18 27 19 31 20 28 21 29 22
DOCKED: REMARK SMILES IDX 30 23 10 24 9 25 11 26 7 28 8 29 6 30 5 31 35 32 4 33 37 34
DOCKED: REMARK SMILES IDX 3 35 36 36 2 37 1 38 15 39
DOCKED: REMARK H PARENT 19 8 9 27 15 40
DOCKED: USER                              x       y       z     vdW  Elec       q    Type
DOCKED: USER                           _______ _______ _______ _____ _____    ______ ____
DOCKED: ROOT
DOCKED: ATOM      1  N   UNL     1     139.884  75.795 221.271 -0.17 +0.04    -0.189 N  
DOCKED: ATOM      2  C   UNL     1     140.553  76.555 220.220 -0.06 -0.13    +0.386 C  
DOCKED: ATOM      3  C   UNL     1     140.851  77.934 220.806 -0.19 -0.08    +0.186 C  
DOCKED: ATOM      4  C   UNL     1     139.940  78.077 222.024 -0.27 -0.03    +0.125 C  
DOCKED: ATOM      5  C   UNL     1     139.527  76.651 222.411 -0.16 -0.07    +0.355 C  
DOCKED: ENDROOT
DOCKED: BRANCH   1   6
DOCKED: ATOM      6  C   UNL     1     139.744  74.486 221.222 -0.15 -0.06    +0.316 C  
DOCKED: BRANCH   6   7
DOCKED: ATOM      7  O   UNL     1     138.589  73.901 220.692 -0.02 +0.10    -0.465 OA 
DOCKED: ATOM      8  H   UNL     1     138.350  72.923 220.801 +0.05 -0.06    +0.299 HD 
DOCKED: ENDBRANCH   6   7
DOCKED: BRANCH   6   9
DOCKED: ATOM      9  C   UNL     1     140.770  73.533 221.778 -0.25 -0.00    +0.039 C  
DOCKED: BRANCH   9  10
DOCKED: ATOM     10  N   UNL     1     140.178  72.208 221.874 -0.05 +0.09    -0.637 NA 
DOCKED: BRANCH  10  11
DOCKED: ATOM     11  C   UNL     1     139.132  71.920 222.804 -0.22 -0.03    +0.101 C  
DOCKED: ATOM     12  O   UNL     1     138.023  72.512 222.700 -0.09 +0.11    -0.313 OA 
DOCKED: BRANCH  11  13
DOCKED: ATOM     13  C   UNL     1     139.371  70.966 223.896 -0.32 -0.02    +0.088 A  
DOCKED: ATOM     14  N   UNL     1     139.944  71.407 225.049 -0.29 +0.05    -0.246 NA 
DOCKED: ATOM     15  C   UNL     1     139.005  69.616 223.775 -0.27 -0.01    +0.031 A  
DOCKED: ATOM     16  C   UNL     1     140.194  70.577 226.096 -0.50 -0.01    +0.071 A  
DOCKED: ATOM     17  C   UNL     1     139.256  68.736 224.831 -0.39 -0.00    +0.013 A  
DOCKED: ATOM     18  C   UNL     1     140.783  71.073 227.263 -0.68 -0.01    +0.032 A  
DOCKED: ATOM     19  C   UNL     1     139.856  69.208 226.005 -0.49 -0.00    +0.003 A  
DOCKED: ATOM     20  C   UNL     1     141.048  70.213 228.333 -0.52 -0.01    +0.041 A  
DOCKED: ATOM     21  C   UNL     1     140.123  68.351 227.084 -0.61 -0.01    +0.049 A  
DOCKED: ATOM     22  C   UNL     1     140.718  68.855 228.244 -0.54 -0.03    +0.123 A  
DOCKED: ATOM     23  F   UNL     1     140.974  68.029 229.288 -0.14 +0.05    -0.207 F  
DOCKED: ENDBRANCH  11  13
DOCKED: ENDBRANCH  10  11
DOCKED: ENDBRANCH   9  10
DOCKED: ENDBRANCH   6   9
DOCKED: ENDBRANCH   1   6
DOCKED: BRANCH   5  24
DOCKED: ATOM     24  C   UNL     1     138.051  76.608 222.733 -0.18 -0.06    +0.289 C  
DOCKED: ATOM     25  N   UNL     1     137.331  75.366 222.727 -0.10 +0.11    -0.344 N  
DOCKED: ATOM     26  O   UNL     1     137.440  77.691 222.940 -0.16 +0.04    -0.267 OA 
DOCKED: ATOM     27  H   UNL     1     137.881  74.478 222.722 -0.49 -0.08    +0.164 HD 
DOCKED: BRANCH  25  28
DOCKED: ATOM     28  C   UNL     1     135.884  75.323 222.486 -0.15 -0.02    +0.111 C  
DOCKED: ATOM     29  C   UNL     1     135.559  74.405 221.300 -0.06 -0.01    +0.036 C  
DOCKED: BRANCH  28  30
DOCKED: ATOM     30  C   UNL     1     135.145  74.873 223.737 -0.24 +0.00    -0.007 A  
DOCKED: ATOM     31  C   UNL     1     135.171  73.514 224.099 -0.23 -0.00    +0.011 A  
DOCKED: ATOM     32  C   UNL     1     134.434  75.779 224.560 -0.24 -0.01    +0.049 A  
DOCKED: ATOM     33  C   UNL     1     134.523  73.064 225.248 -0.25 -0.00    +0.047 A  
DOCKED: ATOM     34  C   UNL     1     133.782  75.317 225.712 -0.30 -0.00    +0.067 A  
DOCKED: ATOM     35  C   UNL     1     133.826  73.957 226.064 -0.29 +0.01    +0.120 A  
DOCKED: ATOM     36  Cl  UNL     1     134.324  77.500 224.201 -0.20 +0.01    -0.084 Cl 
DOCKED: BRANCH  35  37
DOCKED: ATOM     37  O   UNL     1     133.192  73.456 227.210 -0.67 -0.02    -0.497 OA 
DOCKED: ATOM     38  C   UNL     1     131.789  73.231 227.320 -0.26 -0.04    +0.278 C  
DOCKED: ENDBRANCH  35  37
DOCKED: ENDBRANCH  28  30
DOCKED: ENDBRANCH  25  28
DOCKED: ENDBRANCH   5  24
DOCKED: BRANCH   3  39
DOCKED: ATOM     39  O   UNL     1     142.205  78.048 221.173 -0.12 +0.30    -0.386 OA 
DOCKED: ATOM     40  H   UNL     1     142.604  78.789 220.647 -0.31 -0.19    +0.211 HD 
DOCKED: ENDBRANCH   3  39
DOCKED: TORSDOF 11
DOCKED: TER
DOCKED: ENDMDL
________________________________________________________________________________


    FINAL DOCKED STATE:
    ________________________


Run:   6 / 20
Time taken for this run:   0.077s

DOCKED: MODEL        6
DOCKED: USER    Run = 6
DOCKED: USER
DOCKED: USER    Estimated Free Energy of Binding    =  -8.14 kcal/mol  [=(1)+(2)+(3)-(4)]
DOCKED: USER
DOCKED: USER    (1) Final Intermolecular Energy     = -11.42 kcal/mol
DOCKED: USER        vdW + Hbond + desolv Energy     = -11.07 kcal/mol
DOCKED: USER        Electrostatic Energy            =  -0.35 kcal/mol
DOCKED: USER        Moving Ligand-Fixed Receptor    = -11.42 kcal/mol
DOCKED: USER        Moving Ligand-Moving Receptor   =  +0.00 kcal/mol
DOCKED: USER    (2) Final Total Internal Energy     =  -4.18 kcal/mol
DOCKED: USER    (3) Torsional Free Energy           =  +3.28 kcal/mol
DOCKED: USER    (4) Unbound System's Energy         =  -4.18 kcal/mol
DOCKED: USER
DOCKED: USER
DOCKED: REMARK SMILES COc1ccc([C@H](C)NC(=O)[C@@H]2C[C@@H](O)C/[N+]2=C(\O)C[N-]C(=O)c2ccc3cc(F)ccc3n2)c(Cl)c1
DOCKED: REMARK SMILES IDX 17 1 16 2 14 3 13 4 12 5 18 6 19 7 20 9 21 10 22 11 23 12
DOCKED: REMARK SMILES IDX 24 13 34 14 25 15 33 16 26 17 32 18 27 19 31 20 28 21 29 22
DOCKED: REMARK SMILES IDX 30 23 10 24 9 25 11 26 7 28 8 29 6 30 5 31 35 32 4 33 37 34
DOCKED: REMARK SMILES IDX 3 35 36 36 2 37 1 38 15 39
DOCKED: REMARK H PARENT 19 8 9 27 15 40
DOCKED: USER                              x       y       z     vdW  Elec       q    Type
DOCKED: USER                           _______ _______ _______ _____ _____    ______ ____
DOCKED: ROOT
DOCKED: ATOM      1  N   UNL     1     140.358  75.269 221.019 -0.17 +0.04    -0.189 N  
DOCKED: ATOM      2  C   UNL     1     141.017  75.533 219.744 -0.05 -0.12    +0.386 C  
DOCKED: ATOM      3  C   UNL     1     141.697  76.894 219.882 -0.20 -0.09    +0.186 C  
DOCKED: ATOM      4  C   UNL     1     141.030  77.576 221.076 -0.26 -0.06    +0.125 C  
DOCKED: ATOM      5  C   UNL     1     140.372  76.453 221.889 -0.21 -0.10    +0.355 C  
DOCKED: ENDROOT
DOCKED: BRANCH   1   6
DOCKED: ATOM      6  C   UNL     1     139.924  74.072 221.361 -0.16 -0.05    +0.316 C  
DOCKED: BRANCH   6   7
DOCKED: ATOM      7  O   UNL     1     139.922  73.657 222.697 -0.64 +0.01    -0.465 OA 
DOCKED: ATOM      8  H   UNL     1     139.392  72.868 223.042 -0.24 -0.09    +0.299 HD 
DOCKED: ENDBRANCH   6   7
DOCKED: BRANCH   6   9
DOCKED: ATOM      9  C   UNL     1     139.462  73.053 220.353 -0.10 -0.01    +0.039 C  
DOCKED: BRANCH   9  10
DOCKED: ATOM     10  N   UNL     1     138.901  71.913 221.061 +0.03 +0.12    -0.637 NA 
DOCKED: BRANCH  10  11
DOCKED: ATOM     11  C   UNL     1     139.710  70.807 221.463 -0.14 -0.02    +0.101 C  
DOCKED: ATOM     12  O   UNL     1     140.480  70.260 220.627 -0.07 +0.05    -0.313 OA 
DOCKED: BRANCH  11  13
DOCKED: ATOM     13  C   UNL     1     139.610  70.291 222.836 -0.19 -0.02    +0.088 A  
DOCKED: ATOM     14  N   UNL     1     140.134  71.020 223.858 -0.24 +0.04    -0.246 NA 
DOCKED: ATOM     15  C   UNL     1     138.971  69.071 223.109 -0.22 -0.01    +0.031 A  
DOCKED: ATOM     16  C   UNL     1     140.076  70.600 225.150 -0.44 -0.01    +0.071 A  
DOCKED: ATOM     17  C   UNL     1     138.903  68.609 224.426 -0.36 -0.00    +0.013 A  
DOCKED: ATOM     18  C   UNL     1     140.627  71.382 226.170 -0.61 -0.01    +0.032 A  
DOCKED: ATOM     19  C   UNL     1     139.457  69.369 225.462 -0.43 -0.00    +0.003 A  
DOCKED: ATOM     20  C   UNL     1     140.574  70.941 227.495 -0.66 -0.01    +0.041 A  
DOCKED: ATOM     21  C   UNL     1     139.406  68.933 226.795 -0.49 -0.01    +0.049 A  
DOCKED: ATOM     22  C   UNL     1     139.965  69.719 227.808 -0.51 -0.02    +0.123 A  
DOCKED: ATOM     23  F   UNL     1     139.915  69.301 229.096 -0.07 +0.03    -0.207 F  
DOCKED: ENDBRANCH  11  13
DOCKED: ENDBRANCH  10  11
DOCKED: ENDBRANCH   9  10
DOCKED: ENDBRANCH   6   9
DOCKED: ENDBRANCH   1   6
DOCKED: BRANCH   5  24
DOCKED: ATOM     24  C   UNL     1     138.988  76.873 222.326 -0.20 -0.06    +0.289 C  
DOCKED: ATOM     25  N   UNL     1     137.998  75.895 222.679 -0.15 +0.09    -0.344 N  
DOCKED: ATOM     26  O   UNL     1     138.687  78.098 222.309 -0.16 +0.05    -0.267 OA 
DOCKED: ATOM     27  H   UNL     1     138.314  74.914 222.849 -0.46 -0.07    +0.164 HD 
DOCKED: BRANCH  25  28
DOCKED: ATOM     28  C   UNL     1     136.564  76.186 222.570 -0.20 -0.02    +0.111 C  
DOCKED: ATOM     29  C   UNL     1     136.027  75.757 221.198 -0.07 -0.01    +0.036 C  
DOCKED: BRANCH  28  30
DOCKED: ATOM     30  C   UNL     1     135.792  75.504 223.690 -0.29 +0.00    -0.007 A  
DOCKED: ATOM     31  C   UNL     1     135.096  76.292 224.624 -0.21 -0.00    +0.011 A  
DOCKED: ATOM     32  C   UNL     1     135.742  74.095 223.822 -0.19 -0.01    +0.049 A  
DOCKED: ATOM     33  C   UNL     1     134.362  75.706 225.654 -0.35 -0.00    +0.047 A  
DOCKED: ATOM     34  C   UNL     1     135.003  73.515 224.862 -0.24 -0.01    +0.067 A  
DOCKED: ATOM     35  C   UNL     1     134.307  74.317 225.782 -0.30 +0.00    +0.120 A  
DOCKED: ATOM     36  Cl  UNL     1     136.581  73.009 222.717 -0.16 +0.03    -0.084 Cl 
DOCKED: BRANCH  35  37
DOCKED: ATOM     37  O   UNL     1     133.553  73.775 226.833 -0.74 -0.08    -0.497 OA 
DOCKED: ATOM     38  C   UNL     1     132.212  74.151 227.137 -0.26 -0.02    +0.278 C  
DOCKED: ENDBRANCH  35  37
DOCKED: ENDBRANCH  28  30
DOCKED: ENDBRANCH  25  28
DOCKED: ENDBRANCH   5  24
DOCKED: BRANCH   3  39
DOCKED: ATOM     39  O   UNL     1     143.081  76.750 220.092 -0.21 +0.31    -0.386 OA 
DOCKED: ATOM     40  H   UNL     1     143.520  77.602 219.834 -0.45 -0.24    +0.211 HD 
DOCKED: ENDBRANCH   3  39
DOCKED: TORSDOF 11
DOCKED: TER
DOCKED: ENDMDL
________________________________________________________________________________


    FINAL DOCKED STATE:
    ________________________


Run:   7 / 20
Time taken for this run:   0.077s

DOCKED: MODEL        7
DOCKED: USER    Run = 7
DOCKED: USER
DOCKED: USER    Estimated Free Energy of Binding    =  -7.17 kcal/mol  [=(1)+(2)+(3)-(4)]
DOCKED: USER
DOCKED: USER    (1) Final Intermolecular Energy     = -10.45 kcal/mol
DOCKED: USER        vdW + Hbond + desolv Energy     = -10.16 kcal/mol
DOCKED: USER        Electrostatic Energy            =  -0.28 kcal/mol
DOCKED: USER        Moving Ligand-Fixed Receptor    = -10.45 kcal/mol
DOCKED: USER        Moving Ligand-Moving Receptor   =  +0.00 kcal/mol
DOCKED: USER    (2) Final Total Internal Energy     =  -4.78 kcal/mol
DOCKED: USER    (3) Torsional Free Energy           =  +3.28 kcal/mol
DOCKED: USER    (4) Unbound System's Energy         =  -4.78 kcal/mol
DOCKED: USER
DOCKED: USER
DOCKED: REMARK SMILES COc1ccc([C@H](C)NC(=O)[C@@H]2C[C@@H](O)C/[N+]2=C(\O)C[N-]C(=O)c2ccc3cc(F)ccc3n2)c(Cl)c1
DOCKED: REMARK SMILES IDX 17 1 16 2 14 3 13 4 12 5 18 6 19 7 20 9 21 10 22 11 23 12
DOCKED: REMARK SMILES IDX 24 13 34 14 25 15 33 16 26 17 32 18 27 19 31 20 28 21 29 22
DOCKED: REMARK SMILES IDX 30 23 10 24 9 25 11 26 7 28 8 29 6 30 5 31 35 32 4 33 37 34
DOCKED: REMARK SMILES IDX 3 35 36 36 2 37 1 38 15 39
DOCKED: REMARK H PARENT 19 8 9 27 15 40
DOCKED: USER                              x       y       z     vdW  Elec       q    Type
DOCKED: USER                           _______ _______ _______ _____ _____    ______ ____
DOCKED: ROOT
DOCKED: ATOM      1  N   UNL     1     140.253  76.667 221.578 -0.21 +0.05    -0.189 N  
DOCKED: ATOM      2  C   UNL     1     140.999  77.384 220.550 -0.10 -0.17    +0.386 C  
DOCKED: ATOM      3  C   UNL     1     140.989  78.857 220.955 -0.21 -0.08    +0.186 C  
DOCKED: ATOM      4  C   UNL     1     139.851  79.005 221.964 -0.22 -0.03    +0.125 C  
DOCKED: ATOM      5  C   UNL     1     139.571  77.593 222.493 -0.15 -0.07    +0.355 C  
DOCKED: ENDROOT
DOCKED: BRANCH   1   6
DOCKED: ATOM      6  C   UNL     1     140.304  75.357 221.712 -0.19 -0.06    +0.316 C  
DOCKED: BRANCH   6   7
DOCKED: ATOM      7  O   UNL     1     139.571  74.701 222.706 -0.48 +0.04    -0.465 OA 
DOCKED: ATOM      8  H   UNL     1     139.768  73.761 223.026 -0.32 -0.01    +0.299 HD 
DOCKED: ENDBRANCH   6   7
DOCKED: BRANCH   6   9
DOCKED: ATOM      9  C   UNL     1     141.188  74.483 220.859 -0.27 -0.01    +0.039 C  
DOCKED: BRANCH   9  10
DOCKED: ATOM     10  N   UNL     1     141.377  73.208 221.532 -0.05 +0.05    -0.637 NA 
DOCKED: BRANCH  10  11
DOCKED: ATOM     11  C   UNL     1     140.345  72.222 221.576 -0.22 -0.01    +0.101 C  
DOCKED: ATOM     12  O   UNL     1     139.634  72.016 220.556 -0.04 +0.06    -0.313 OA 
DOCKED: BRANCH  11  13
DOCKED: ATOM     13  C   UNL     1     140.094  71.486 222.824 -0.29 -0.01    +0.088 A  
DOCKED: ATOM     14  N   UNL     1     140.581  71.980 223.995 -0.23 +0.03    -0.246 NA 
DOCKED: ATOM     15  C   UNL     1     139.351  70.295 222.828 -0.22 -0.01    +0.031 A  
DOCKED: ATOM     16  C   UNL     1     140.386  71.348 225.183 -0.48 -0.01    +0.071 A  
DOCKED: ATOM     17  C   UNL     1     139.141  69.618 224.032 -0.31 -0.00    +0.013 A  
DOCKED: ATOM     18  C   UNL     1     140.902  71.891 226.362 -0.64 -0.01    +0.032 A  
DOCKED: ATOM     19  C   UNL     1     139.659  70.137 225.224 -0.44 -0.00    +0.003 A  
DOCKED: ATOM     20  C   UNL     1     140.709  71.233 227.580 -0.71 -0.01    +0.041 A  
DOCKED: ATOM     21  C   UNL     1     139.467  69.481 226.450 -0.46 -0.01    +0.049 A  
DOCKED: ATOM     22  C   UNL     1     139.992  70.030 227.624 -0.50 -0.02    +0.123 A  
DOCKED: ATOM     23  F   UNL     1     139.806  69.400 228.810 -0.14 +0.03    -0.207 F  
DOCKED: ENDBRANCH  11  13
DOCKED: ENDBRANCH  10  11
DOCKED: ENDBRANCH   9  10
DOCKED: ENDBRANCH   6   9
DOCKED: ENDBRANCH   1   6
DOCKED: BRANCH   5  24
DOCKED: ATOM     24  C   UNL     1     138.081  77.352 222.564 -0.17 -0.05    +0.289 C  
DOCKED: ATOM     25  N   UNL     1     137.557  76.116 223.072 -0.15 +0.09    -0.344 N  
DOCKED: ATOM     26  O   UNL     1     137.298  78.227 222.103 -0.09 +0.04    -0.267 OA 
DOCKED: ATOM     27  H   UNL     1     138.204  75.486 223.598 -0.35 -0.08    +0.164 HD 
DOCKED: BRANCH  25  28
DOCKED: ATOM     28  C   UNL     1     136.235  75.622 222.667 -0.19 -0.02    +0.111 C  
DOCKED: ATOM     29  C   UNL     1     136.043  75.768 221.152 -0.07 -0.01    +0.036 C  
DOCKED: BRANCH  28  30
DOCKED: ATOM     30  C   UNL     1     136.047  74.176 223.100 -0.18 +0.00    -0.007 A  
DOCKED: ATOM     31  C   UNL     1     136.573  73.146 222.300 -0.14 -0.00    +0.011 A  
DOCKED: ATOM     32  C   UNL     1     135.364  73.827 224.290 -0.25 -0.01    +0.049 A  
DOCKED: ATOM     33  C   UNL     1     136.438  71.808 222.671 -0.13 -0.01    +0.047 A  
DOCKED: ATOM     34  C   UNL     1     135.231  72.481 224.653 -0.17 -0.01    +0.067 A  
DOCKED: ATOM     35  C   UNL     1     135.770  71.463 223.847 -0.15 -0.02    +0.120 A  
DOCKED: ATOM     36  Cl  UNL     1     134.655  75.032 225.364 -0.48 +0.00    -0.084 Cl 
DOCKED: BRANCH  35  37
DOCKED: ATOM     37  O   UNL     1     135.664  70.105 224.178 -0.05 +0.05    -0.497 OA 
DOCKED: ATOM     38  C   UNL     1     135.116  69.616 225.400 -0.14 -0.02    +0.278 C  
DOCKED: ENDBRANCH  35  37
DOCKED: ENDBRANCH  28  30
DOCKED: ENDBRANCH  25  28
DOCKED: ENDBRANCH   5  24
DOCKED: BRANCH   3  39
DOCKED: ATOM     39  O   UNL     1     142.220  79.236 221.523 -0.20 +0.23    -0.386 OA 
DOCKED: ATOM     40  H   UNL     1     142.932  78.686 221.105 -0.39 -0.23    +0.211 HD 
DOCKED: ENDBRANCH   3  39
DOCKED: TORSDOF 11
DOCKED: TER
DOCKED: ENDMDL
________________________________________________________________________________


    FINAL DOCKED STATE:
    ________________________


Run:   8 / 20
Time taken for this run:   0.077s

DOCKED: MODEL        8
DOCKED: USER    Run = 8
DOCKED: USER
DOCKED: USER    Estimated Free Energy of Binding    =  -7.48 kcal/mol  [=(1)+(2)+(3)-(4)]
DOCKED: USER
DOCKED: USER    (1) Final Intermolecular Energy     = -10.76 kcal/mol
DOCKED: USER        vdW + Hbond + desolv Energy     = -10.57 kcal/mol
DOCKED: USER        Electrostatic Energy            =  -0.19 kcal/mol
DOCKED: USER        Moving Ligand-Fixed Receptor    = -10.76 kcal/mol
DOCKED: USER        Moving Ligand-Moving Receptor   =  +0.00 kcal/mol
DOCKED: USER    (2) Final Total Internal Energy     =  -4.64 kcal/mol
DOCKED: USER    (3) Torsional Free Energy           =  +3.28 kcal/mol
DOCKED: USER    (4) Unbound System's Energy         =  -4.64 kcal/mol
DOCKED: USER
DOCKED: USER
DOCKED: REMARK SMILES COc1ccc([C@H](C)NC(=O)[C@@H]2C[C@@H](O)C/[N+]2=C(\O)C[N-]C(=O)c2ccc3cc(F)ccc3n2)c(Cl)c1
DOCKED: REMARK SMILES IDX 17 1 16 2 14 3 13 4 12 5 18 6 19 7 20 9 21 10 22 11 23 12
DOCKED: REMARK SMILES IDX 24 13 34 14 25 15 33 16 26 17 32 18 27 19 31 20 28 21 29 22
DOCKED: REMARK SMILES IDX 30 23 10 24 9 25 11 26 7 28 8 29 6 30 5 31 35 32 4 33 37 34
DOCKED: REMARK SMILES IDX 3 35 36 36 2 37 1 38 15 39
DOCKED: REMARK H PARENT 19 8 9 27 15 40
DOCKED: USER                              x       y       z     vdW  Elec       q    Type
DOCKED: USER                           _______ _______ _______ _____ _____    ______ ____
DOCKED: ROOT
DOCKED: ATOM      1  N   UNL     1     140.340  76.411 221.429 -0.21 +0.06    -0.189 N  
DOCKED: ATOM      2  C   UNL     1     141.044  77.366 220.579 -0.11 -0.17    +0.386 C  
DOCKED: ATOM      3  C   UNL     1     141.234  78.631 221.414 -0.26 -0.08    +0.186 C  
DOCKED: ATOM      4  C   UNL     1     140.235  78.527 222.565 -0.33 -0.03    +0.125 C  
DOCKED: ATOM      5  C   UNL     1     139.864  77.042 222.668 -0.05 -0.07    +0.355 C  
DOCKED: ENDROOT
DOCKED: BRANCH   1   6
DOCKED: ATOM      6  C   UNL     1     140.266  75.126 221.145 -0.17 -0.07    +0.316 C  
DOCKED: BRANCH   6   7
DOCKED: ATOM      7  O   UNL     1     139.158  74.595 220.477 -0.02 +0.10    -0.465 OA 
DOCKED: ATOM      8  H   UNL     1     138.913  73.613 220.482 +0.06 -0.06    +0.299 HD 
DOCKED: ENDBRANCH   6   7
DOCKED: BRANCH   6   9
DOCKED: ATOM      9  C   UNL     1     141.321  74.136 221.564 -0.17 -0.00    +0.039 C  
DOCKED: BRANCH   9  10
DOCKED: ATOM     10  N   UNL     1     140.740  72.802 221.566 -0.07 +0.07    -0.637 NA 
DOCKED: BRANCH  10  11
DOCKED: ATOM     11  C   UNL     1     139.630  72.469 222.401 -0.25 -0.02    +0.101 C  
DOCKED: ATOM     12  O   UNL     1     138.518  73.037 222.219 -0.14 +0.10    -0.313 OA 
DOCKED: BRANCH  11  13
DOCKED: ATOM     13  C   UNL     1     139.804  71.497 223.489 -0.34 -0.02    +0.088 A  
DOCKED: ATOM     14  N   UNL     1     140.337  71.912 224.671 -0.24 +0.04    -0.246 NA 
DOCKED: ATOM     15  C   UNL     1     139.416  70.156 223.336 -0.26 -0.01    +0.031 A  
DOCKED: ATOM     16  C   UNL     1     140.526  71.064 225.716 -0.53 -0.01    +0.071 A  
DOCKED: ATOM     17  C   UNL     1     139.606  69.259 224.389 -0.30 -0.00    +0.013 A  
DOCKED: ATOM     18  C   UNL     1     141.075  71.534 226.913 -0.72 -0.01    +0.032 A  
DOCKED: ATOM     19  C   UNL     1     140.165  69.704 225.593 -0.46 -0.00    +0.003 A  
DOCKED: ATOM     20  C   UNL     1     141.277  70.656 227.982 -0.49 -0.01    +0.041 A  
DOCKED: ATOM     21  C   UNL     1     140.369  68.828 226.671 -0.56 -0.01    +0.049 A  
DOCKED: ATOM     22  C   UNL     1     140.925  69.306 227.862 -0.50 -0.03    +0.123 A  
DOCKED: ATOM     23  F   UNL     1     141.120  68.462 228.905 -0.17 +0.05    -0.207 F  
DOCKED: ENDBRANCH  11  13
DOCKED: ENDBRANCH  10  11
DOCKED: ENDBRANCH   9  10
DOCKED: ENDBRANCH   6   9
DOCKED: ENDBRANCH   1   6
DOCKED: BRANCH   5  24
DOCKED: ATOM     24  C   UNL     1     138.373  76.892 222.864 -0.08 -0.05    +0.289 C  
DOCKED: ATOM     25  N   UNL     1     137.737  75.612 222.725 -0.12 +0.11    -0.344 N  
DOCKED: ATOM     26  O   UNL     1     137.679  77.921 223.082 -0.16 +0.04    -0.267 OA 
DOCKED: ATOM     27  H   UNL     1     138.341  74.760 222.714 -0.48 -0.07    +0.164 HD 
DOCKED: BRANCH  25  28
DOCKED: ATOM     28  C   UNL     1     136.319  75.500 222.363 -0.16 -0.02    +0.111 C  
DOCKED: ATOM     29  C   UNL     1     136.130  74.498 221.217 -0.07 -0.01    +0.036 C  
DOCKED: BRANCH  28  30
DOCKED: ATOM     30  C   UNL     1     135.487  75.101 223.572 -0.25 +0.00    -0.007 A  
DOCKED: ATOM     31  C   UNL     1     135.470  73.756 223.982 -0.24 -0.00    +0.011 A  
DOCKED: ATOM     32  C   UNL     1     134.729  76.043 224.310 -0.24 -0.01    +0.049 A  
DOCKED: ATOM     33  C   UNL     1     134.735  73.353 225.096 -0.25 -0.00    +0.047 A  
DOCKED: ATOM     34  C   UNL     1     133.991  75.628 225.427 -0.29 -0.00    +0.067 A  
DOCKED: ATOM     35  C   UNL     1     133.992  74.281 225.828 -0.29 +0.00    +0.120 A  
DOCKED: ATOM     36  Cl  UNL     1     134.666  77.752 223.885 -0.18 +0.01    -0.084 Cl 
DOCKED: BRANCH  35  37
DOCKED: ATOM     37  O   UNL     1     133.272  73.827 226.942 -0.71 -0.05    -0.497 OA 
DOCKED: ATOM     38  C   UNL     1     132.578  72.583 226.998 -0.26 -0.03    +0.278 C  
DOCKED: ENDBRANCH  35  37
DOCKED: ENDBRANCH  28  30
DOCKED: ENDBRANCH  25  28
DOCKED: ENDBRANCH   5  24
DOCKED: BRANCH   3  39
DOCKED: ATOM     39  O   UNL     1     142.552  78.726 221.898 -0.13 +0.29    -0.386 OA 
DOCKED: ATOM     40  H   UNL     1     143.060  79.321 221.288 -0.35 -0.21    +0.211 HD 
DOCKED: ENDBRANCH   3  39
DOCKED: TORSDOF 11
DOCKED: TER
DOCKED: ENDMDL
________________________________________________________________________________


    FINAL DOCKED STATE:
    ________________________


Run:   9 / 20
Time taken for this run:   0.077s

DOCKED: MODEL        9
DOCKED: USER    Run = 9
DOCKED: USER
DOCKED: USER    Estimated Free Energy of Binding    =  -7.39 kcal/mol  [=(1)+(2)+(3)-(4)]
DOCKED: USER
DOCKED: USER    (1) Final Intermolecular Energy     = -10.67 kcal/mol
DOCKED: USER        vdW + Hbond + desolv Energy     = -10.42 kcal/mol
DOCKED: USER        Electrostatic Energy            =  -0.24 kcal/mol
DOCKED: USER        Moving Ligand-Fixed Receptor    = -10.67 kcal/mol
DOCKED: USER        Moving Ligand-Moving Receptor   =  +0.00 kcal/mol
DOCKED: USER    (2) Final Total Internal Energy     =  -4.93 kcal/mol
DOCKED: USER    (3) Torsional Free Energy           =  +3.28 kcal/mol
DOCKED: USER    (4) Unbound System's Energy         =  -4.93 kcal/mol
DOCKED: USER
DOCKED: USER
DOCKED: REMARK SMILES COc1ccc([C@H](C)NC(=O)[C@@H]2C[C@@H](O)C/[N+]2=C(\O)C[N-]C(=O)c2ccc3cc(F)ccc3n2)c(Cl)c1
DOCKED: REMARK SMILES IDX 17 1 16 2 14 3 13 4 12 5 18 6 19 7 20 9 21 10 22 11 23 12
DOCKED: REMARK SMILES IDX 24 13 34 14 25 15 33 16 26 17 32 18 27 19 31 20 28 21 29 22
DOCKED: REMARK SMILES IDX 30 23 10 24 9 25 11 26 7 28 8 29 6 30 5 31 35 32 4 33 37 34
DOCKED: REMARK SMILES IDX 3 35 36 36 2 37 1 38 15 39
DOCKED: REMARK H PARENT 19 8 9 27 15 40
DOCKED: USER                              x       y       z     vdW  Elec       q    Type
DOCKED: USER                           _______ _______ _______ _____ _____    ______ ____
DOCKED: ROOT
DOCKED: ATOM      1  N   UNL     1     140.455  75.040 220.682 -0.13 +0.05    -0.189 N  
DOCKED: ATOM      2  C   UNL     1     141.166  75.495 219.491 -0.04 -0.13    +0.386 C  
DOCKED: ATOM      3  C   UNL     1     141.734  76.873 219.827 -0.20 -0.10    +0.186 C  
DOCKED: ATOM      4  C   UNL     1     140.950  77.364 221.043 -0.25 -0.05    +0.125 C  
DOCKED: ATOM      5  C   UNL     1     140.331  76.113 221.679 -0.20 -0.09    +0.355 C  
DOCKED: ENDROOT
DOCKED: BRANCH   1   6
DOCKED: ATOM      6  C   UNL     1     140.092  73.786 220.857 -0.12 -0.06    +0.316 C  
DOCKED: BRANCH   6   7
DOCKED: ATOM      7  O   UNL     1     138.828  73.336 220.462 -0.01 +0.09    -0.465 OA 
DOCKED: ATOM      8  H   UNL     1     138.447  72.432 220.710 +0.05 -0.06    +0.299 HD 
DOCKED: ENDBRANCH   6   7
DOCKED: BRANCH   6   9
DOCKED: ATOM      9  C   UNL     1     140.970  72.769 221.540 -0.27 -0.00    +0.039 C  
DOCKED: BRANCH   9  10
DOCKED: ATOM     10  N   UNL     1     140.194  71.562 221.777 -0.00 +0.09    -0.637 NA 
DOCKED: BRANCH  10  11
DOCKED: ATOM     11  C   UNL     1     139.197  71.500 222.798 -0.24 -0.02    +0.101 C  
DOCKED: ATOM     12  O   UNL     1     138.186  72.250 222.730 -0.12 +0.10    -0.313 OA 
DOCKED: BRANCH  11  13
DOCKED: ATOM     13  C   UNL     1     139.379  70.592 223.940 -0.31 -0.02    +0.088 A  
DOCKED: ATOM     14  N   UNL     1     140.038  71.038 225.044 -0.30 +0.04    -0.246 NA 
DOCKED: ATOM     15  C   UNL     1     138.874  69.282 223.915 -0.29 -0.00    +0.031 A  
DOCKED: ATOM     16  C   UNL     1     140.241  70.249 226.132 -0.48 -0.01    +0.071 A  
DOCKED: ATOM     17  C   UNL     1     139.074  68.445 225.015 -0.41 -0.00    +0.013 A  
DOCKED: ATOM     18  C   UNL     1     140.921  70.749 227.247 -0.63 -0.01    +0.032 A  
DOCKED: ATOM     19  C   UNL     1     139.763  68.920 226.137 -0.52 -0.00    +0.003 A  
DOCKED: ATOM     20  C   UNL     1     141.138  69.931 228.360 -0.49 -0.01    +0.041 A  
DOCKED: ATOM     21  C   UNL     1     139.981  68.104 227.258 -0.62 -0.01    +0.049 A  
DOCKED: ATOM     22  C   UNL     1     140.669  68.611 228.366 -0.55 -0.03    +0.123 A  
DOCKED: ATOM     23  F   UNL     1     140.879  67.826 229.450 -0.14 +0.06    -0.207 F  
DOCKED: ENDBRANCH  11  13
DOCKED: ENDBRANCH  10  11
DOCKED: ENDBRANCH   9  10
DOCKED: ENDBRANCH   6   9
DOCKED: ENDBRANCH   1   6
DOCKED: BRANCH   5  24
DOCKED: ATOM     24  C   UNL     1     138.896  76.385 222.067 -0.20 -0.06    +0.289 C  
DOCKED: ATOM     25  N   UNL     1     137.961  75.309 222.236 -0.12 +0.10    -0.344 N  
DOCKED: ATOM     26  O   UNL     1     138.509  77.580 222.174 -0.16 +0.05    -0.267 OA 
DOCKED: ATOM     27  H   UNL     1     138.337  74.337 222.310 -0.23 -0.06    +0.164 HD 
DOCKED: BRANCH  25  28
DOCKED: ATOM     28  C   UNL     1     136.519  75.516 222.064 -0.15 -0.02    +0.111 C  
DOCKED: ATOM     29  C   UNL     1     136.005  74.759 220.833 -0.05 -0.01    +0.036 C  
DOCKED: BRANCH  28  30
DOCKED: ATOM     30  C   UNL     1     135.764  75.091 223.315 -0.24 +0.00    -0.007 A  
DOCKED: ATOM     31  C   UNL     1     135.736  73.732 223.673 -0.20 -0.00    +0.011 A  
DOCKED: ATOM     32  C   UNL     1     135.088  76.022 224.141 -0.25 -0.01    +0.049 A  
DOCKED: ATOM     33  C   UNL     1     135.071  73.304 224.821 -0.23 -0.01    +0.047 A  
DOCKED: ATOM     34  C   UNL     1     134.420  75.582 225.291 -0.32 -0.01    +0.067 A  
DOCKED: ATOM     35  C   UNL     1     134.410  74.221 225.640 -0.28 +0.00    +0.120 A  
DOCKED: ATOM     36  Cl  UNL     1     135.046  77.748 223.787 -0.15 +0.01    -0.084 Cl 
DOCKED: BRANCH  35  37
DOCKED: ATOM     37  O   UNL     1     133.758  73.742 226.785 -0.67 -0.10    -0.497 OA 
DOCKED: ATOM     38  C   UNL     1     133.170  72.448 226.892 -0.26 -0.02    +0.278 C  
DOCKED: ENDBRANCH  35  37
DOCKED: ENDBRANCH  28  30
DOCKED: ENDBRANCH  25  28
DOCKED: ENDBRANCH   5  24
DOCKED: BRANCH   3  39
DOCKED: ATOM     39  O   UNL     1     143.111  76.799 220.111 -0.18 +0.32    -0.386 OA 
DOCKED: ATOM     40  H   UNL     1     143.339  77.548 220.721 -0.45 -0.27    +0.211 HD 
DOCKED: ENDBRANCH   3  39
DOCKED: TORSDOF 11
DOCKED: TER
DOCKED: ENDMDL
________________________________________________________________________________


    FINAL DOCKED STATE:
    ________________________


Run:   10 / 20
Time taken for this run:   0.077s

DOCKED: MODEL        10
DOCKED: USER    Run = 10
DOCKED: USER
DOCKED: USER    Estimated Free Energy of Binding    =  -8.16 kcal/mol  [=(1)+(2)+(3)-(4)]
DOCKED: USER
DOCKED: USER    (1) Final Intermolecular Energy     = -11.44 kcal/mol
DOCKED: USER        vdW + Hbond + desolv Energy     = -11.09 kcal/mol
DOCKED: USER        Electrostatic Energy            =  -0.35 kcal/mol
DOCKED: USER        Moving Ligand-Fixed Receptor    = -11.44 kcal/mol
DOCKED: USER        Moving Ligand-Moving Receptor   =  +0.00 kcal/mol
DOCKED: USER    (2) Final Total Internal Energy     =  -4.18 kcal/mol
DOCKED: USER    (3) Torsional Free Energy           =  +3.28 kcal/mol
DOCKED: USER    (4) Unbound System's Energy         =  -4.18 kcal/mol
DOCKED: USER
DOCKED: USER
DOCKED: REMARK SMILES COc1ccc([C@H](C)NC(=O)[C@@H]2C[C@@H](O)C/[N+]2=C(\O)C[N-]C(=O)c2ccc3cc(F)ccc3n2)c(Cl)c1
DOCKED: REMARK SMILES IDX 17 1 16 2 14 3 13 4 12 5 18 6 19 7 20 9 21 10 22 11 23 12
DOCKED: REMARK SMILES IDX 24 13 34 14 25 15 33 16 26 17 32 18 27 19 31 20 28 21 29 22
DOCKED: REMARK SMILES IDX 30 23 10 24 9 25 11 26 7 28 8 29 6 30 5 31 35 32 4 33 37 34
DOCKED: REMARK SMILES IDX 3 35 36 36 2 37 1 38 15 39
DOCKED: REMARK H PARENT 19 8 9 27 15 40
DOCKED: USER                              x       y       z     vdW  Elec       q    Type
DOCKED: USER                           _______ _______ _______ _____ _____    ______ ____
DOCKED: ROOT
DOCKED: ATOM      1  N   UNL     1     140.226  75.450 221.068 -0.17 +0.05    -0.189 N  
DOCKED: ATOM      2  C   UNL     1     140.832  75.773 219.780 -0.05 -0.13    +0.386 C  
DOCKED: ATOM      3  C   UNL     1     141.536  77.117 219.957 -0.19 -0.09    +0.186 C  
DOCKED: ATOM      4  C   UNL     1     140.931  77.744 221.213 -0.26 -0.05    +0.125 C  
DOCKED: ATOM      5  C   UNL     1     140.294  76.588 221.995 -0.22 -0.10    +0.355 C  
DOCKED: ENDROOT
DOCKED: BRANCH   1   6
DOCKED: ATOM      6  C   UNL     1     139.792  74.243 221.367 -0.16 -0.06    +0.316 C  
DOCKED: BRANCH   6   7
DOCKED: ATOM      7  O   UNL     1     139.784  73.783 222.688 -0.59 +0.03    -0.465 OA 
DOCKED: ATOM      8  H   UNL     1     139.355  72.914 222.981 -0.24 -0.09    +0.299 HD 
DOCKED: ENDBRANCH   6   7
DOCKED: BRANCH   6   9
DOCKED: ATOM      9  C   UNL     1     139.335  73.257 220.323 -0.09 -0.01    +0.039 C  
DOCKED: BRANCH   9  10
DOCKED: ATOM     10  N   UNL     1     139.077  71.978 220.965 +0.03 +0.12    -0.637 NA 
DOCKED: BRANCH  10  11
DOCKED: ATOM     11  C   UNL     1     140.124  71.219 221.572 -0.16 -0.02    +0.101 C  
DOCKED: ATOM     12  O   UNL     1     141.200  71.024 220.943 -0.08 +0.04    -0.313 OA 
DOCKED: BRANCH  11  13
DOCKED: ATOM     13  C   UNL     1     139.923  70.639 222.908 -0.20 -0.01    +0.088 A  
DOCKED: ATOM     14  N   UNL     1     140.408  71.296 223.997 -0.26 +0.03    -0.246 NA 
DOCKED: ATOM     15  C   UNL     1     139.228  69.431 223.079 -0.21 -0.01    +0.031 A  
DOCKED: ATOM     16  C   UNL     1     140.257  70.814 225.258 -0.47 -0.01    +0.071 A  
DOCKED: ATOM     17  C   UNL     1     139.064  68.906 224.362 -0.34 -0.00    +0.013 A  
DOCKED: ATOM     18  C   UNL     1     140.770  71.522 226.349 -0.65 -0.01    +0.032 A  
DOCKED: ATOM     19  C   UNL     1     139.579  69.592 225.469 -0.43 -0.00    +0.003 A  
DOCKED: ATOM     20  C   UNL     1     140.622  71.018 227.644 -0.68 -0.01    +0.041 A  
DOCKED: ATOM     21  C   UNL     1     139.432  69.092 226.771 -0.49 -0.01    +0.049 A  
DOCKED: ATOM     22  C   UNL     1     139.954  69.805 227.855 -0.52 -0.02    +0.123 A  
DOCKED: ATOM     23  F   UNL     1     139.811  69.324 229.115 -0.06 +0.03    -0.207 F  
DOCKED: ENDBRANCH  11  13
DOCKED: ENDBRANCH  10  11
DOCKED: ENDBRANCH   9  10
DOCKED: ENDBRANCH   6   9
DOCKED: ENDBRANCH   1   6
DOCKED: BRANCH   5  24
DOCKED: ATOM     24  C   UNL     1     138.936  77.000 222.513 -0.17 -0.06    +0.289 C  
DOCKED: ATOM     25  N   UNL     1     137.955  76.016 222.874 -0.15 +0.09    -0.344 N  
DOCKED: ATOM     26  O   UNL     1     138.645  78.226 222.559 -0.17 +0.05    -0.267 OA 
DOCKED: ATOM     27  H   UNL     1     138.269  75.026 222.990 -0.45 -0.08    +0.164 HD 
DOCKED: BRANCH  25  28
DOCKED: ATOM     28  C   UNL     1     136.519  76.321 222.844 -0.21 -0.02    +0.111 C  
DOCKED: ATOM     29  C   UNL     1     135.946  76.094 221.440 -0.08 -0.01    +0.036 C  
DOCKED: BRANCH  28  30
DOCKED: ATOM     30  C   UNL     1     135.773  75.486 223.874 -0.30 +0.00    -0.007 A  
DOCKED: ATOM     31  C   UNL     1     135.078  76.134 224.911 -0.22 -0.00    +0.011 A  
DOCKED: ATOM     32  C   UNL     1     135.745  74.072 223.821 -0.19 -0.01    +0.049 A  
DOCKED: ATOM     33  C   UNL     1     134.367  75.406 225.864 -0.39 -0.00    +0.047 A  
DOCKED: ATOM     34  C   UNL     1     135.029  73.348 224.784 -0.23 -0.01    +0.067 A  
DOCKED: ATOM     35  C   UNL     1     134.333  74.011 225.810 -0.27 +0.00    +0.120 A  
DOCKED: ATOM     36  Cl  UNL     1     136.586  73.153 222.574 -0.15 +0.02    -0.084 Cl 
DOCKED: BRANCH  35  37
DOCKED: ATOM     37  O   UNL     1     133.601  73.324 226.788 -0.67 -0.05    -0.497 OA 
DOCKED: ATOM     38  C   UNL     1     133.562  71.905 226.915 -0.28 -0.02    +0.278 C  
DOCKED: ENDBRANCH  35  37
DOCKED: ENDBRANCH  28  30
DOCKED: ENDBRANCH  25  28
DOCKED: ENDBRANCH   5  24
DOCKED: BRANCH   3  39
DOCKED: ATOM     39  O   UNL     1     142.926  76.947 220.098 -0.20 +0.31    -0.386 OA 
DOCKED: ATOM     40  H   UNL     1     143.230  77.524 220.847 -0.44 -0.26    +0.211 HD 
DOCKED: ENDBRANCH   3  39
DOCKED: TORSDOF 11
DOCKED: TER
DOCKED: ENDMDL
________________________________________________________________________________


    FINAL DOCKED STATE:
    ________________________


Run:   11 / 20
Time taken for this run:   0.077s

DOCKED: MODEL        11
DOCKED: USER    Run = 11
DOCKED: USER
DOCKED: USER    Estimated Free Energy of Binding    =  -7.79 kcal/mol  [=(1)+(2)+(3)-(4)]
DOCKED: USER
DOCKED: USER    (1) Final Intermolecular Energy     = -11.07 kcal/mol
DOCKED: USER        vdW + Hbond + desolv Energy     = -10.74 kcal/mol
DOCKED: USER        Electrostatic Energy            =  -0.33 kcal/mol
DOCKED: USER        Moving Ligand-Fixed Receptor    = -11.07 kcal/mol
DOCKED: USER        Moving Ligand-Moving Receptor   =  +0.00 kcal/mol
DOCKED: USER    (2) Final Total Internal Energy     =  -4.72 kcal/mol
DOCKED: USER    (3) Torsional Free Energy           =  +3.28 kcal/mol
DOCKED: USER    (4) Unbound System's Energy         =  -4.72 kcal/mol
DOCKED: USER
DOCKED: USER
DOCKED: REMARK SMILES COc1ccc([C@H](C)NC(=O)[C@@H]2C[C@@H](O)C/[N+]2=C(\O)C[N-]C(=O)c2ccc3cc(F)ccc3n2)c(Cl)c1
DOCKED: REMARK SMILES IDX 17 1 16 2 14 3 13 4 12 5 18 6 19 7 20 9 21 10 22 11 23 12
DOCKED: REMARK SMILES IDX 24 13 34 14 25 15 33 16 26 17 32 18 27 19 31 20 28 21 29 22
DOCKED: REMARK SMILES IDX 30 23 10 24 9 25 11 26 7 28 8 29 6 30 5 31 35 32 4 33 37 34
DOCKED: REMARK SMILES IDX 3 35 36 36 2 37 1 38 15 39
DOCKED: REMARK H PARENT 19 8 9 27 15 40
DOCKED: USER                              x       y       z     vdW  Elec       q    Type
DOCKED: USER                           _______ _______ _______ _____ _____    ______ ____
DOCKED: ROOT
DOCKED: ATOM      1  N   UNL     1     140.793  74.908 220.917 -0.18 +0.04    -0.189 N  
DOCKED: ATOM      2  C   UNL     1     141.541  75.157 219.689 -0.07 -0.13    +0.386 C  
DOCKED: ATOM      3  C   UNL     1     141.950  76.629 219.722 -0.21 -0.10    +0.186 C  
DOCKED: ATOM      4  C   UNL     1     141.037  77.294 220.752 -0.23 -0.05    +0.125 C  
DOCKED: ATOM      5  C   UNL     1     140.495  76.159 221.630 -0.20 -0.10    +0.355 C  
DOCKED: ENDROOT
DOCKED: BRANCH   1   6
DOCKED: ATOM      6  C   UNL     1     140.539  73.694 221.361 -0.17 -0.04    +0.316 C  
DOCKED: BRANCH   6   7
DOCKED: ATOM      7  O   UNL     1     140.650  73.382 222.721 -0.49 -0.06    -0.465 OA 
DOCKED: ATOM      8  H   UNL     1     140.556  72.447 223.095 +0.10 -0.01    +0.299 HD 
DOCKED: ENDBRANCH   6   7
DOCKED: BRANCH   6   9
DOCKED: ATOM      9  C   UNL     1     140.174  72.551 220.450 -0.12 -0.01    +0.039 C  
DOCKED: BRANCH   9  10
DOCKED: ATOM     10  N   UNL     1     139.853  71.387 221.262 +0.02 +0.10    -0.637 NA 
DOCKED: BRANCH  10  11
DOCKED: ATOM     11  C   UNL     1     138.937  71.465 222.355 -0.19 -0.02    +0.101 C  
DOCKED: ATOM     12  O   UNL     1     137.976  72.281 222.309 -0.10 +0.09    -0.313 OA 
DOCKED: BRANCH  11  13
DOCKED: ATOM     13  C   UNL     1     139.145  70.622 223.541 -0.27 -0.02    +0.088 A  
DOCKED: ATOM     14  N   UNL     1     139.827  71.130 224.605 -0.27 +0.05    -0.246 NA 
DOCKED: ATOM     15  C   UNL     1     138.642  69.313 223.601 -0.26 -0.00    +0.031 A  
DOCKED: ATOM     16  C   UNL     1     140.055  70.403 225.731 -0.46 -0.01    +0.071 A  
DOCKED: ATOM     17  C   UNL     1     138.868  68.539 224.741 -0.39 -0.00    +0.013 A  
DOCKED: ATOM     18  C   UNL     1     140.759  70.965 226.800 -0.64 -0.01    +0.032 A  
DOCKED: ATOM     19  C   UNL     1     139.580  69.076 225.820 -0.48 -0.00    +0.003 A  
DOCKED: ATOM     20  C   UNL     1     141.000  70.211 227.952 -0.59 -0.01    +0.041 A  
DOCKED: ATOM     21  C   UNL     1     139.824  68.325 226.980 -0.59 -0.01    +0.049 A  
DOCKED: ATOM     22  C   UNL     1     140.534  68.894 228.042 -0.54 -0.03    +0.123 A  
DOCKED: ATOM     23  F   UNL     1     140.770  68.170 229.164 -0.16 +0.05    -0.207 F  
DOCKED: ENDBRANCH  11  13
DOCKED: ENDBRANCH  10  11
DOCKED: ENDBRANCH   9  10
DOCKED: ENDBRANCH   6   9
DOCKED: ENDBRANCH   1   6
DOCKED: BRANCH   5  24
DOCKED: ATOM     24  C   UNL     1     139.016  76.353 221.874 -0.19 -0.06    +0.289 C  
DOCKED: ATOM     25  N   UNL     1     138.178  75.246 222.238 -0.12 +0.10    -0.344 N  
DOCKED: ATOM     26  O   UNL     1     138.511  77.493 221.685 -0.11 +0.06    -0.267 OA 
DOCKED: ATOM     27  H   UNL     1     138.637  74.362 222.551 -0.41 -0.06    +0.164 HD 
DOCKED: BRANCH  25  28
DOCKED: ATOM     28  C   UNL     1     136.738  75.253 221.952 -0.14 -0.03    +0.111 C  
DOCKED: ATOM     29  C   UNL     1     136.395  74.222 220.869 -0.06 -0.01    +0.036 C  
DOCKED: BRANCH  28  30
DOCKED: ATOM     30  C   UNL     1     135.939  74.991 223.220 -0.23 +0.00    -0.007 A  
DOCKED: ATOM     31  C   UNL     1     135.790  73.670 223.679 -0.19 -0.00    +0.011 A  
DOCKED: ATOM     32  C   UNL     1     135.341  76.037 223.964 -0.25 -0.01    +0.049 A  
DOCKED: ATOM     33  C   UNL     1     135.081  73.389 224.846 -0.23 -0.01    +0.047 A  
DOCKED: ATOM     34  C   UNL     1     134.628  75.745 225.135 -0.32 -0.01    +0.067 A  
DOCKED: ATOM     35  C   UNL     1     134.496  74.420 225.584 -0.29 -0.00    +0.120 A  
DOCKED: ATOM     36  Cl  UNL     1     135.452  77.728 223.481 -0.17 +0.01    -0.084 Cl 
DOCKED: BRANCH  35  37
DOCKED: ATOM     37  O   UNL     1     133.796  74.087 226.752 -0.64 -0.11    -0.497 OA 
DOCKED: ATOM     38  C   UNL     1     132.415  74.366 226.969 -0.25 -0.01    +0.278 C  
DOCKED: ENDBRANCH  35  37
DOCKED: ENDBRANCH  28  30
DOCKED: ENDBRANCH  25  28
DOCKED: ENDBRANCH   5  24
DOCKED: BRANCH   3  39
DOCKED: ATOM     39  O   UNL     1     143.303  76.771 220.082 -0.20 +0.33    -0.386 OA 
DOCKED: ATOM     40  H   UNL     1     143.611  77.661 219.768 -0.45 -0.25    +0.211 HD 
DOCKED: ENDBRANCH   3  39
DOCKED: TORSDOF 11
DOCKED: TER
DOCKED: ENDMDL
________________________________________________________________________________


    FINAL DOCKED STATE:
    ________________________


Run:   12 / 20
Time taken for this run:   0.077s

DOCKED: MODEL        12
DOCKED: USER    Run = 12
DOCKED: USER
DOCKED: USER    Estimated Free Energy of Binding    =  -8.59 kcal/mol  [=(1)+(2)+(3)-(4)]
DOCKED: USER
DOCKED: USER    (1) Final Intermolecular Energy     = -11.88 kcal/mol
DOCKED: USER        vdW + Hbond + desolv Energy     = -11.50 kcal/mol
DOCKED: USER        Electrostatic Energy            =  -0.38 kcal/mol
DOCKED: USER        Moving Ligand-Fixed Receptor    = -11.88 kcal/mol
DOCKED: USER        Moving Ligand-Moving Receptor   =  +0.00 kcal/mol
DOCKED: USER    (2) Final Total Internal Energy     =  -3.84 kcal/mol
DOCKED: USER    (3) Torsional Free Energy           =  +3.28 kcal/mol
DOCKED: USER    (4) Unbound System's Energy         =  -3.84 kcal/mol
DOCKED: USER
DOCKED: USER
DOCKED: REMARK SMILES COc1ccc([C@H](C)NC(=O)[C@@H]2C[C@@H](O)C/[N+]2=C(\O)C[N-]C(=O)c2ccc3cc(F)ccc3n2)c(Cl)c1
DOCKED: REMARK SMILES IDX 17 1 16 2 14 3 13 4 12 5 18 6 19 7 20 9 21 10 22 11 23 12
DOCKED: REMARK SMILES IDX 24 13 34 14 25 15 33 16 26 17 32 18 27 19 31 20 28 21 29 22
DOCKED: REMARK SMILES IDX 30 23 10 24 9 25 11 26 7 28 8 29 6 30 5 31 35 32 4 33 37 34
DOCKED: REMARK SMILES IDX 3 35 36 36 2 37 1 38 15 39
DOCKED: REMARK H PARENT 19 8 9 27 15 40
DOCKED: USER                              x       y       z     vdW  Elec       q    Type
DOCKED: USER                           _______ _______ _______ _____ _____    ______ ____
DOCKED: ROOT
DOCKED: ATOM      1  N   UNL     1     140.433  76.660 221.745 -0.24 +0.06    -0.189 N  
DOCKED: ATOM      2  C   UNL     1     141.258  77.385 220.785 -0.13 -0.19    +0.386 C  
DOCKED: ATOM      3  C   UNL     1     141.344  78.825 221.288 -0.26 -0.09    +0.186 C  
DOCKED: ATOM      4  C   UNL     1     140.192  78.991 222.278 -0.28 -0.03    +0.125 C  
DOCKED: ATOM      5  C   UNL     1     139.794  77.572 222.704 -0.11 -0.07    +0.355 C  
DOCKED: ENDROOT
DOCKED: BRANCH   1   6
DOCKED: ATOM      6  C   UNL     1     140.385  75.344 221.791 -0.17 -0.06    +0.316 C  
DOCKED: BRANCH   6   7
DOCKED: ATOM      7  O   UNL     1     139.575  74.681 222.719 -0.48 +0.04    -0.465 OA 
DOCKED: ATOM      8  H   UNL     1     139.762  73.750 223.068 -0.34 -0.01    +0.299 HD 
DOCKED: ENDBRANCH   6   7
DOCKED: BRANCH   6   9
DOCKED: ATOM      9  C   UNL     1     141.229  74.465 220.906 -0.27 -0.01    +0.039 C  
DOCKED: BRANCH   9  10
DOCKED: ATOM     10  N   UNL     1     141.383  73.166 221.543 -0.05 +0.05    -0.637 NA 
DOCKED: BRANCH  10  11
DOCKED: ATOM     11  C   UNL     1     140.302  72.237 221.623 -0.22 -0.01    +0.101 C  
DOCKED: ATOM     12  O   UNL     1     139.535  72.083 220.634 -0.04 +0.06    -0.313 OA 
DOCKED: BRANCH  11  13
DOCKED: ATOM     13  C   UNL     1     140.069  71.496 222.871 -0.29 -0.01    +0.088 A  
DOCKED: ATOM     14  N   UNL     1     140.607  71.965 224.031 -0.23 +0.03    -0.246 NA 
DOCKED: ATOM     15  C   UNL     1     139.290  70.328 222.890 -0.22 -0.01    +0.031 A  
DOCKED: ATOM     16  C   UNL     1     140.432  71.328 225.218 -0.49 -0.01    +0.071 A  
DOCKED: ATOM     17  C   UNL     1     139.098  69.647 224.094 -0.31 -0.00    +0.013 A  
DOCKED: ATOM     18  C   UNL     1     141.002  71.844 226.385 -0.66 -0.00    +0.032 A  
DOCKED: ATOM     19  C   UNL     1     139.670  70.139 225.274 -0.44 -0.00    +0.003 A  
DOCKED: ATOM     20  C   UNL     1     140.827  71.181 227.603 -0.71 -0.01    +0.041 A  
DOCKED: ATOM     21  C   UNL     1     139.496  69.478 226.500 -0.46 -0.01    +0.049 A  
DOCKED: ATOM     22  C   UNL     1     140.076  70.000 227.660 -0.51 -0.02    +0.123 A  
DOCKED: ATOM     23  F   UNL     1     139.908  69.364 228.846 -0.12 +0.03    -0.207 F  
DOCKED: ENDBRANCH  11  13
DOCKED: ENDBRANCH  10  11
DOCKED: ENDBRANCH   9  10
DOCKED: ENDBRANCH   6   9
DOCKED: ENDBRANCH   1   6
DOCKED: BRANCH   5  24
DOCKED: ATOM     24  C   UNL     1     138.289  77.440 222.724 -0.16 -0.05    +0.289 C  
DOCKED: ATOM     25  N   UNL     1     137.662  76.230 223.175 -0.12 +0.09    -0.344 N  
DOCKED: ATOM     26  O   UNL     1     137.587  78.383 222.270 -0.11 +0.04    -0.267 OA 
DOCKED: ATOM     27  H   UNL     1     138.244  75.538 223.698 -0.33 -0.08    +0.164 HD 
DOCKED: BRANCH  25  28
DOCKED: ATOM     28  C   UNL     1     136.321  75.848 222.716 -0.20 -0.02    +0.111 C  
DOCKED: ATOM     29  C   UNL     1     136.406  74.741 221.657 -0.11 -0.01    +0.036 C  
DOCKED: BRANCH  28  30
DOCKED: ATOM     30  C   UNL     1     135.458  75.408 223.889 -0.28 +0.00    -0.007 A  
DOCKED: ATOM     31  C   UNL     1     135.466  74.058 224.281 -0.27 -0.00    +0.011 A  
DOCKED: ATOM     32  C   UNL     1     134.647  76.317 224.611 -0.24 -0.01    +0.049 A  
DOCKED: ATOM     33  C   UNL     1     134.703  73.618 225.362 -0.26 -0.00    +0.047 A  
DOCKED: ATOM     34  C   UNL     1     133.881  75.866 225.694 -0.30 -0.00    +0.067 A  
DOCKED: ATOM     35  C   UNL     1     133.908  74.514 226.079 -0.31 +0.01    +0.120 A  
DOCKED: ATOM     36  Cl  UNL     1     134.549  78.029 224.205 -0.14 +0.01    -0.084 Cl 
DOCKED: BRANCH  35  37
DOCKED: ATOM     37  O   UNL     1     133.162  74.024 227.160 -0.70 -0.05    -0.497 OA 
DOCKED: ATOM     38  C   UNL     1     131.746  73.859 227.150 -0.26 -0.03    +0.278 C  
DOCKED: ENDBRANCH  35  37
DOCKED: ENDBRANCH  28  30
DOCKED: ENDBRANCH  25  28
DOCKED: ENDBRANCH   5  24
DOCKED: BRANCH   3  39
DOCKED: ATOM     39  O   UNL     1     142.582  79.073 221.909 -0.20 +0.27    -0.386 OA 
DOCKED: ATOM     40  H   UNL     1     143.208  78.350 221.643 -0.46 -0.26    +0.211 HD 
DOCKED: ENDBRANCH   3  39
DOCKED: TORSDOF 11
DOCKED: TER
DOCKED: ENDMDL
________________________________________________________________________________


    FINAL DOCKED STATE:
    ________________________


Run:   13 / 20
Time taken for this run:   0.077s

DOCKED: MODEL        13
DOCKED: USER    Run = 13
DOCKED: USER
DOCKED: USER    Estimated Free Energy of Binding    =  -6.90 kcal/mol  [=(1)+(2)+(3)-(4)]
DOCKED: USER
DOCKED: USER    (1) Final Intermolecular Energy     = -10.18 kcal/mol
DOCKED: USER        vdW + Hbond + desolv Energy     = -10.02 kcal/mol
DOCKED: USER        Electrostatic Energy            =  -0.16 kcal/mol
DOCKED: USER        Moving Ligand-Fixed Receptor    = -10.18 kcal/mol
DOCKED: USER        Moving Ligand-Moving Receptor   =  +0.00 kcal/mol
DOCKED: USER    (2) Final Total Internal Energy     =  -4.14 kcal/mol
DOCKED: USER    (3) Torsional Free Energy           =  +3.28 kcal/mol
DOCKED: USER    (4) Unbound System's Energy         =  -4.14 kcal/mol
DOCKED: USER
DOCKED: USER
DOCKED: REMARK SMILES COc1ccc([C@H](C)NC(=O)[C@@H]2C[C@@H](O)C/[N+]2=C(\O)C[N-]C(=O)c2ccc3cc(F)ccc3n2)c(Cl)c1
DOCKED: REMARK SMILES IDX 17 1 16 2 14 3 13 4 12 5 18 6 19 7 20 9 21 10 22 11 23 12
DOCKED: REMARK SMILES IDX 24 13 34 14 25 15 33 16 26 17 32 18 27 19 31 20 28 21 29 22
DOCKED: REMARK SMILES IDX 30 23 10 24 9 25 11 26 7 28 8 29 6 30 5 31 35 32 4 33 37 34
DOCKED: REMARK SMILES IDX 3 35 36 36 2 37 1 38 15 39
DOCKED: REMARK H PARENT 19 8 9 27 15 40
DOCKED: USER                              x       y       z     vdW  Elec       q    Type
DOCKED: USER                           _______ _______ _______ _____ _____    ______ ____
DOCKED: ROOT
DOCKED: ATOM      1  N   UNL     1     140.525  76.549 219.721 -0.06 +0.06    -0.189 N  
DOCKED: ATOM      2  C   UNL     1     139.438  76.561 218.748 +0.01 -0.11    +0.386 C  
DOCKED: ATOM      3  C   UNL     1     139.857  77.526 217.641 -0.02 -0.06    +0.186 C  
DOCKED: ATOM      4  C   UNL     1     140.973  78.385 218.235 -0.11 -0.06    +0.125 C  
DOCKED: ATOM      5  C   UNL     1     141.512  77.601 219.439 -0.11 -0.18    +0.355 C  
DOCKED: ENDROOT
DOCKED: BRANCH   1   6
DOCKED: ATOM      6  C   UNL     1     140.639  75.621 220.649 -0.13 -0.09    +0.316 C  
DOCKED: BRANCH   6   7
DOCKED: ATOM      7  O   UNL     1     141.872  75.343 221.248 -0.14 +0.19    -0.465 OA 
DOCKED: ATOM      8  H   UNL     1     142.016  74.609 221.930 +0.04 -0.05    +0.299 HD 
DOCKED: ENDBRANCH   6   7
DOCKED: BRANCH   6   9
DOCKED: ATOM      9  C   UNL     1     139.484  74.758 221.087 -0.21 -0.01    +0.039 C  
DOCKED: BRANCH   9  10
DOCKED: ATOM     10  N   UNL     1     139.848  74.076 222.319 -0.60 +0.05    -0.637 NA 
DOCKED: BRANCH  10  11
DOCKED: ATOM     11  C   UNL     1     140.555  72.834 222.307 -0.23 -0.01    +0.101 C  
DOCKED: ATOM     12  O   UNL     1     141.379  72.593 221.384 -0.18 +0.03    -0.313 OA 
DOCKED: BRANCH  11  13
DOCKED: ATOM     13  C   UNL     1     140.285  71.833 223.350 -0.34 -0.01    +0.088 A  
DOCKED: ATOM     14  N   UNL     1     140.697  72.075 224.625 -0.09 +0.03    -0.246 NA 
DOCKED: ATOM     15  C   UNL     1     139.599  70.644 223.056 -0.26 -0.01    +0.031 A  
DOCKED: ATOM     16  C   UNL     1     140.481  71.191 225.634 -0.53 -0.01    +0.071 A  
DOCKED: ATOM     17  C   UNL     1     139.369  69.713 224.071 -0.31 -0.00    +0.013 A  
DOCKED: ATOM     18  C   UNL     1     140.920  71.481 226.929 -0.71 -0.01    +0.032 A  
DOCKED: ATOM     19  C   UNL     1     139.810  69.976 225.374 -0.44 -0.00    +0.003 A  
DOCKED: ATOM     20  C   UNL     1     140.704  70.565 227.963 -0.64 -0.01    +0.041 A  
DOCKED: ATOM     21  C   UNL     1     139.595  69.061 226.416 -0.49 -0.01    +0.049 A  
DOCKED: ATOM     22  C   UNL     1     140.044  69.357 227.707 -0.51 -0.02    +0.123 A  
DOCKED: ATOM     23  F   UNL     1     139.836  68.475 228.716 -0.14 +0.04    -0.207 F  
DOCKED: ENDBRANCH  11  13
DOCKED: ENDBRANCH  10  11
DOCKED: ENDBRANCH   9  10
DOCKED: ENDBRANCH   6   9
DOCKED: ENDBRANCH   1   6
DOCKED: BRANCH   5  24
DOCKED: ATOM     24  C   UNL     1     141.723  78.532 220.611 -0.17 -0.17    +0.289 C  
DOCKED: ATOM     25  N   UNL     1     141.746  78.030 221.956 -0.06 +0.21    -0.344 N  
DOCKED: ATOM     26  O   UNL     1     141.809  79.772 220.398 -0.22 +0.14    -0.267 OA 
DOCKED: ATOM     27  H   UNL     1     141.844  77.000 222.095 -0.48 -0.12    +0.164 HD 
DOCKED: BRANCH  25  28
DOCKED: ATOM     28  C   UNL     1     141.399  78.887 223.096 -0.49 -0.04    +0.111 C  
DOCKED: ATOM     29  C   UNL     1     142.593  79.762 223.500 -0.59 -0.01    +0.036 C  
DOCKED: BRANCH  28  30
DOCKED: ATOM     30  C   UNL     1     140.185  79.744 222.773 -0.38 +0.00    -0.007 A  
DOCKED: ATOM     31  C   UNL     1     140.338  81.136 222.652 -0.37 -0.00    +0.011 A  
DOCKED: ATOM     32  C   UNL     1     138.897  79.186 222.582 -0.26 -0.01    +0.049 A  
DOCKED: ATOM     33  C   UNL     1     139.254  81.954 222.339 -0.19 -0.01    +0.047 A  
DOCKED: ATOM     34  C   UNL     1     137.813  80.016 222.270 -0.15 -0.01    +0.067 A  
DOCKED: ATOM     35  C   UNL     1     137.985  81.405 222.143 -0.13 -0.02    +0.120 A  
DOCKED: ATOM     36  Cl  UNL     1     138.583  77.457 222.718 -0.33 +0.01    -0.084 Cl 
DOCKED: BRANCH  35  37
DOCKED: ATOM     37  O   UNL     1     136.928  82.269 221.827 -0.01 +0.07    -0.497 OA 
DOCKED: ATOM     38  C   UNL     1     135.707  81.857 221.218 -0.02 -0.04    +0.278 C  
DOCKED: ENDBRANCH  35  37
DOCKED: ENDBRANCH  28  30
DOCKED: ENDBRANCH  25  28
DOCKED: ENDBRANCH   5  24
DOCKED: BRANCH   3  39
DOCKED: ATOM     39  O   UNL     1     140.309  76.829 216.504 +0.00 +0.14    -0.386 OA 
DOCKED: ATOM     40  H   UNL     1     140.449  75.881 216.762 +0.02 -0.07    +0.211 HD 
DOCKED: ENDBRANCH   3  39
DOCKED: TORSDOF 11
DOCKED: TER
DOCKED: ENDMDL
________________________________________________________________________________


    FINAL DOCKED STATE:
    ________________________


Run:   14 / 20
Time taken for this run:   0.077s

DOCKED: MODEL        14
DOCKED: USER    Run = 14
DOCKED: USER
DOCKED: USER    Estimated Free Energy of Binding    =  -8.29 kcal/mol  [=(1)+(2)+(3)-(4)]
DOCKED: USER
DOCKED: USER    (1) Final Intermolecular Energy     = -11.57 kcal/mol
DOCKED: USER        vdW + Hbond + desolv Energy     = -11.17 kcal/mol
DOCKED: USER        Electrostatic Energy            =  -0.40 kcal/mol
DOCKED: USER        Moving Ligand-Fixed Receptor    = -11.57 kcal/mol
DOCKED: USER        Moving Ligand-Moving Receptor   =  +0.00 kcal/mol
DOCKED: USER    (2) Final Total Internal Energy     =  -4.25 kcal/mol
DOCKED: USER    (3) Torsional Free Energy           =  +3.28 kcal/mol
DOCKED: USER    (4) Unbound System's Energy         =  -4.25 kcal/mol
DOCKED: USER
DOCKED: USER
DOCKED: REMARK SMILES COc1ccc([C@H](C)NC(=O)[C@@H]2C[C@@H](O)C/[N+]2=C(\O)C[N-]C(=O)c2ccc3cc(F)ccc3n2)c(Cl)c1
DOCKED: REMARK SMILES IDX 17 1 16 2 14 3 13 4 12 5 18 6 19 7 20 9 21 10 22 11 23 12
DOCKED: REMARK SMILES IDX 24 13 34 14 25 15 33 16 26 17 32 18 27 19 31 20 28 21 29 22
DOCKED: REMARK SMILES IDX 30 23 10 24 9 25 11 26 7 28 8 29 6 30 5 31 35 32 4 33 37 34
DOCKED: REMARK SMILES IDX 3 35 36 36 2 37 1 38 15 39
DOCKED: REMARK H PARENT 19 8 9 27 15 40
DOCKED: USER                              x       y       z     vdW  Elec       q    Type
DOCKED: USER                           _______ _______ _______ _____ _____    ______ ____
DOCKED: ROOT
DOCKED: ATOM      1  N   UNL     1     141.049  74.764 220.905 -0.19 +0.04    -0.189 N  
DOCKED: ATOM      2  C   UNL     1     141.916  74.745 219.732 -0.08 -0.12    +0.386 C  
DOCKED: ATOM      3  C   UNL     1     142.458  76.165 219.571 -0.24 -0.10    +0.186 C  
DOCKED: ATOM      4  C   UNL     1     141.529  77.062 220.389 -0.24 -0.06    +0.125 C  
DOCKED: ATOM      5  C   UNL     1     140.812  76.135 221.379 -0.18 -0.12    +0.355 C  
DOCKED: ENDROOT
DOCKED: BRANCH   1   6
DOCKED: ATOM      6  C   UNL     1     140.647  73.664 221.510 -0.17 -0.04    +0.316 C  
DOCKED: BRANCH   6   7
DOCKED: ATOM      7  O   UNL     1     139.927  73.718 222.708 -0.64 +0.00    -0.465 OA 
DOCKED: ATOM      8  H   UNL     1     139.146  73.113 222.925 -0.33 -0.11    +0.299 HD 
DOCKED: ENDBRANCH   6   7
DOCKED: BRANCH   6   9
DOCKED: ATOM      9  C   UNL     1     140.976  72.285 221.000 -0.20 -0.01    +0.039 C  
DOCKED: BRANCH   9  10
DOCKED: ATOM     10  N   UNL     1     139.740  71.535 220.840 +0.03 +0.11    -0.637 NA 
DOCKED: BRANCH  10  11
DOCKED: ATOM     11  C   UNL     1     138.782  71.436 221.894 -0.14 -0.02    +0.101 C  
DOCKED: ATOM     12  O   UNL     1     137.660  71.998 221.774 -0.06 +0.07    -0.313 OA 
DOCKED: BRANCH  11  13
DOCKED: ATOM     13  C   UNL     1     139.127  70.712 223.127 -0.24 -0.02    +0.088 A  
DOCKED: ATOM     14  N   UNL     1     139.721  71.388 224.148 -0.26 +0.05    -0.246 NA 
DOCKED: ATOM     15  C   UNL     1     138.841  69.346 223.272 -0.24 -0.01    +0.031 A  
DOCKED: ATOM     16  C   UNL     1     140.067  70.778 225.313 -0.46 -0.01    +0.071 A  
DOCKED: ATOM     17  C   UNL     1     139.192  68.690 224.454 -0.35 -0.00    +0.013 A  
DOCKED: ATOM     18  C   UNL     1     140.674  71.511 226.337 -0.64 -0.01    +0.032 A  
DOCKED: ATOM     19  C   UNL     1     139.812  69.400 225.489 -0.44 -0.00    +0.003 A  
DOCKED: ATOM     20  C   UNL     1     141.038  70.878 227.530 -0.65 -0.01    +0.041 A  
DOCKED: ATOM     21  C   UNL     1     140.177  68.771 226.689 -0.56 -0.01    +0.049 A  
DOCKED: ATOM     22  C   UNL     1     140.790  69.511 227.705 -0.50 -0.02    +0.123 A  
DOCKED: ATOM     23  F   UNL     1     141.142  68.905 228.866 -0.14 +0.05    -0.207 F  
DOCKED: ENDBRANCH  11  13
DOCKED: ENDBRANCH  10  11
DOCKED: ENDBRANCH   9  10
DOCKED: ENDBRANCH   6   9
DOCKED: ENDBRANCH   1   6
DOCKED: BRANCH   5  24
DOCKED: ATOM     24  C   UNL     1     139.344  76.484 221.445 -0.16 -0.07    +0.289 C  
DOCKED: ATOM     25  N   UNL     1     138.425  75.668 222.188 -0.15 +0.09    -0.344 N  
DOCKED: ATOM     26  O   UNL     1     138.919  77.467 220.780 -0.05 +0.06    -0.267 OA 
DOCKED: ATOM     27  H   UNL     1     138.818  74.971 222.860 -0.45 -0.06    +0.164 HD 
DOCKED: BRANCH  25  28
DOCKED: ATOM     28  C   UNL     1     136.997  75.625 221.851 -0.15 -0.03    +0.111 C  
DOCKED: ATOM     29  C   UNL     1     136.739  74.633 220.710 -0.06 -0.01    +0.036 C  
DOCKED: BRANCH  28  30
DOCKED: ATOM     30  C   UNL     1     136.168  75.268 223.075 -0.24 +0.00    -0.007 A  
DOCKED: ATOM     31  C   UNL     1     136.071  73.922 223.472 -0.08 -0.00    +0.011 A  
DOCKED: ATOM     32  C   UNL     1     135.491  76.249 223.840 -0.23 -0.01    +0.049 A  
DOCKED: ATOM     33  C   UNL     1     135.337  73.556 224.598 -0.24 -0.01    +0.047 A  
DOCKED: ATOM     34  C   UNL     1     134.753  75.871 224.969 -0.30 -0.01    +0.067 A  
DOCKED: ATOM     35  C   UNL     1     134.674  74.523 225.357 -0.31 -0.01    +0.120 A  
DOCKED: ATOM     36  Cl  UNL     1     135.532  77.963 223.433 -0.15 +0.01    -0.084 Cl 
DOCKED: BRANCH  35  37
DOCKED: ATOM     37  O   UNL     1     133.951  74.104 226.483 -0.70 -0.08    -0.497 OA 
DOCKED: ATOM     38  C   UNL     1     132.534  74.199 226.609 -0.23 -0.01    +0.278 C  
DOCKED: ENDBRANCH  35  37
DOCKED: ENDBRANCH  28  30
DOCKED: ENDBRANCH  25  28
DOCKED: ENDBRANCH   5  24
DOCKED: BRANCH   3  39
DOCKED: ATOM     39  O   UNL     1     143.784  76.257 220.033 -0.25 +0.30    -0.386 OA 
DOCKED: ATOM     40  H   UNL     1     143.986  77.216 220.193 -0.49 -0.25    +0.211 HD 
DOCKED: ENDBRANCH   3  39
DOCKED: TORSDOF 11
DOCKED: TER
DOCKED: ENDMDL
________________________________________________________________________________


    FINAL DOCKED STATE:
    ________________________


Run:   15 / 20
Time taken for this run:   0.077s

DOCKED: MODEL        15
DOCKED: USER    Run = 15
DOCKED: USER
DOCKED: USER    Estimated Free Energy of Binding    =  -7.98 kcal/mol  [=(1)+(2)+(3)-(4)]
DOCKED: USER
DOCKED: USER    (1) Final Intermolecular Energy     = -11.26 kcal/mol
DOCKED: USER        vdW + Hbond + desolv Energy     = -10.98 kcal/mol
DOCKED: USER        Electrostatic Energy            =  -0.28 kcal/mol
DOCKED: USER        Moving Ligand-Fixed Receptor    = -11.26 kcal/mol
DOCKED: USER        Moving Ligand-Moving Receptor   =  +0.00 kcal/mol
DOCKED: USER    (2) Final Total Internal Energy     =  -4.22 kcal/mol
DOCKED: USER    (3) Torsional Free Energy           =  +3.28 kcal/mol
DOCKED: USER    (4) Unbound System's Energy         =  -4.22 kcal/mol
DOCKED: USER
DOCKED: USER
DOCKED: REMARK SMILES COc1ccc([C@H](C)NC(=O)[C@@H]2C[C@@H](O)C/[N+]2=C(\O)C[N-]C(=O)c2ccc3cc(F)ccc3n2)c(Cl)c1
DOCKED: REMARK SMILES IDX 17 1 16 2 14 3 13 4 12 5 18 6 19 7 20 9 21 10 22 11 23 12
DOCKED: REMARK SMILES IDX 24 13 34 14 25 15 33 16 26 17 32 18 27 19 31 20 28 21 29 22
DOCKED: REMARK SMILES IDX 30 23 10 24 9 25 11 26 7 28 8 29 6 30 5 31 35 32 4 33 37 34
DOCKED: REMARK SMILES IDX 3 35 36 36 2 37 1 38 15 39
DOCKED: REMARK H PARENT 19 8 9 27 15 40
DOCKED: USER                              x       y       z     vdW  Elec       q    Type
DOCKED: USER                           _______ _______ _______ _____ _____    ______ ____
DOCKED: ROOT
DOCKED: ATOM      1  N   UNL     1     139.949  76.071 221.121 -0.15 +0.05    -0.189 N  
DOCKED: ATOM      2  C   UNL     1     140.576  77.031 220.217 -0.06 -0.14    +0.386 C  
DOCKED: ATOM      3  C   UNL     1     140.847  78.288 221.042 -0.21 -0.08    +0.186 C  
DOCKED: ATOM      4  C   UNL     1     139.956  78.177 222.279 -0.29 -0.03    +0.125 C  
DOCKED: ATOM      5  C   UNL     1     139.591  76.693 222.403 -0.16 -0.07    +0.355 C  
DOCKED: ENDROOT
DOCKED: BRANCH   1   6
DOCKED: ATOM      6  C   UNL     1     139.844  74.789 220.835 -0.12 -0.07    +0.316 C  
DOCKED: BRANCH   6   7
DOCKED: ATOM      7  O   UNL     1     138.651  74.254 220.338 -0.01 +0.10    -0.465 OA 
DOCKED: ATOM      8  H   UNL     1     138.277  73.355 220.614 +0.05 -0.06    +0.299 HD 
DOCKED: ENDBRANCH   6   7
DOCKED: BRANCH   6   9
DOCKED: ATOM      9  C   UNL     1     140.959  73.805 221.074 -0.26 -0.01    +0.039 C  
DOCKED: BRANCH   9  10
DOCKED: ATOM     10  N   UNL     1     140.756  73.169 222.366 -0.41 -0.01    -0.637 NA 
DOCKED: BRANCH  10  11
DOCKED: ATOM     11  C   UNL     1     139.653  72.294 222.607 -0.26 -0.02    +0.101 C  
DOCKED: ATOM     12  O   UNL     1     138.605  72.405 221.915 -0.10 +0.08    -0.313 OA 
DOCKED: BRANCH  11  13
DOCKED: ATOM     13  C   UNL     1     139.736  71.297 223.684 -0.34 -0.02    +0.088 A  
DOCKED: ATOM     14  N   UNL     1     140.286  71.655 224.877 -0.28 +0.04    -0.246 NA 
DOCKED: ATOM     15  C   UNL     1     139.246  69.994 223.509 -0.26 -0.01    +0.031 A  
DOCKED: ATOM     16  C   UNL     1     140.394  70.782 225.914 -0.52 -0.01    +0.071 A  
DOCKED: ATOM     17  C   UNL     1     139.350  69.072 224.553 -0.34 -0.00    +0.013 A  
DOCKED: ATOM     18  C   UNL     1     140.964  71.191 227.122 -0.69 -0.01    +0.032 A  
DOCKED: ATOM     19  C   UNL     1     139.928  69.456 225.768 -0.47 -0.00    +0.003 A  
DOCKED: ATOM     20  C   UNL     1     141.083  70.288 228.182 -0.55 -0.01    +0.041 A  
DOCKED: ATOM     21  C   UNL     1     140.048  68.554 226.837 -0.58 -0.01    +0.049 A  
DOCKED: ATOM     22  C   UNL     1     140.626  68.972 228.040 -0.54 -0.03    +0.123 A  
DOCKED: ATOM     23  F   UNL     1     140.741  68.102 229.074 -0.18 +0.05    -0.207 F  
DOCKED: ENDBRANCH  11  13
DOCKED: ENDBRANCH  10  11
DOCKED: ENDBRANCH   9  10
DOCKED: ENDBRANCH   6   9
DOCKED: ENDBRANCH   1   6
DOCKED: BRANCH   5  24
DOCKED: ATOM     24  C   UNL     1     138.123  76.547 222.733 -0.18 -0.06    +0.289 C  
DOCKED: ATOM     25  N   UNL     1     137.461  75.280 222.600 -0.08 +0.11    -0.344 N  
DOCKED: ATOM     26  O   UNL     1     137.466  77.571 223.061 -0.17 +0.04    -0.267 OA 
DOCKED: ATOM     27  H   UNL     1     138.050  74.424 222.494 -0.34 -0.07    +0.164 HD 
DOCKED: BRANCH  25  28
DOCKED: ATOM     28  C   UNL     1     136.013  75.196 222.370 -0.14 -0.02    +0.111 C  
DOCKED: ATOM     29  C   UNL     1     135.696  74.153 221.290 -0.06 -0.01    +0.036 C  
DOCKED: BRANCH  28  30
DOCKED: ATOM     30  C   UNL     1     135.283  74.872 223.664 -0.24 +0.00    -0.007 A  
DOCKED: ATOM     31  C   UNL     1     134.550  75.883 224.312 -0.24 -0.00    +0.011 A  
DOCKED: ATOM     32  C   UNL     1     135.308  73.580 224.242 -0.24 -0.01    +0.049 A  
DOCKED: ATOM     33  C   UNL     1     133.852  75.623 225.490 -0.29 -0.00    +0.047 A  
DOCKED: ATOM     34  C   UNL     1     134.606  73.328 225.428 -0.22 -0.00    +0.067 A  
DOCKED: ATOM     35  C   UNL     1     133.871  74.347 226.057 -0.30 +0.01    +0.120 A  
DOCKED: ATOM     36  Cl  UNL     1     136.200  72.239 223.526 -0.23 +0.02    -0.084 Cl 
DOCKED: BRANCH  35  37
DOCKED: ATOM     37  O   UNL     1     133.150  74.135 227.241 -0.68 -0.06    -0.497 OA 
DOCKED: ATOM     38  C   UNL     1     131.757  73.837 227.292 -0.26 -0.03    +0.278 C  
DOCKED: ENDBRANCH  35  37
DOCKED: ENDBRANCH  28  30
DOCKED: ENDBRANCH  25  28
DOCKED: ENDBRANCH   5  24
DOCKED: BRANCH   3  39
DOCKED: ATOM     39  O   UNL     1     142.205  78.374 221.404 -0.16 +0.28    -0.386 OA 
DOCKED: ATOM     40  H   UNL     1     142.544  77.451 221.541 -0.43 -0.23    +0.211 HD 
DOCKED: ENDBRANCH   3  39
DOCKED: TORSDOF 11
DOCKED: TER
DOCKED: ENDMDL
________________________________________________________________________________


    FINAL DOCKED STATE:
    ________________________


Run:   16 / 20
Time taken for this run:   0.077s

DOCKED: MODEL        16
DOCKED: USER    Run = 16
DOCKED: USER
DOCKED: USER    Estimated Free Energy of Binding    =  -8.26 kcal/mol  [=(1)+(2)+(3)-(4)]
DOCKED: USER
DOCKED: USER    (1) Final Intermolecular Energy     = -11.54 kcal/mol
DOCKED: USER        vdW + Hbond + desolv Energy     = -11.13 kcal/mol
DOCKED: USER        Electrostatic Energy            =  -0.41 kcal/mol
DOCKED: USER        Moving Ligand-Fixed Receptor    = -11.54 kcal/mol
DOCKED: USER        Moving Ligand-Moving Receptor   =  +0.00 kcal/mol
DOCKED: USER    (2) Final Total Internal Energy     =  -4.15 kcal/mol
DOCKED: USER    (3) Torsional Free Energy           =  +3.28 kcal/mol
DOCKED: USER    (4) Unbound System's Energy         =  -4.15 kcal/mol
DOCKED: USER
DOCKED: USER
DOCKED: REMARK SMILES COc1ccc([C@H](C)NC(=O)[C@@H]2C[C@@H](O)C/[N+]2=C(\O)C[N-]C(=O)c2ccc3cc(F)ccc3n2)c(Cl)c1
DOCKED: REMARK SMILES IDX 17 1 16 2 14 3 13 4 12 5 18 6 19 7 20 9 21 10 22 11 23 12
DOCKED: REMARK SMILES IDX 24 13 34 14 25 15 33 16 26 17 32 18 27 19 31 20 28 21 29 22
DOCKED: REMARK SMILES IDX 30 23 10 24 9 25 11 26 7 28 8 29 6 30 5 31 35 32 4 33 37 34
DOCKED: REMARK SMILES IDX 3 35 36 36 2 37 1 38 15 39
DOCKED: REMARK H PARENT 19 8 9 27 15 40
DOCKED: USER                              x       y       z     vdW  Elec       q    Type
DOCKED: USER                           _______ _______ _______ _____ _____    ______ ____
DOCKED: ROOT
DOCKED: ATOM      1  N   UNL     1     140.541  75.131 220.881 -0.16 +0.05    -0.189 N  
DOCKED: ATOM      2  C   UNL     1     141.344  75.245 219.668 -0.06 -0.13    +0.386 C  
DOCKED: ATOM      3  C   UNL     1     141.972  76.637 219.693 -0.21 -0.10    +0.186 C  
DOCKED: ATOM      4  C   UNL     1     141.150  77.449 220.693 -0.24 -0.06    +0.125 C  
DOCKED: ATOM      5  C   UNL     1     140.423  76.423 221.571 -0.19 -0.11    +0.355 C  
DOCKED: ENDROOT
DOCKED: BRANCH   1   6
DOCKED: ATOM      6  C   UNL     1     140.096  73.977 221.333 -0.16 -0.05    +0.316 C  
DOCKED: BRANCH   6   7
DOCKED: ATOM      7  O   UNL     1     139.946  73.746 222.705 -0.65 -0.01    -0.465 OA 
DOCKED: ATOM      8  H   UNL     1     139.515  72.917 223.094 -0.25 -0.08    +0.299 HD 
DOCKED: ENDBRANCH   6   7
DOCKED: BRANCH   6   9
DOCKED: ATOM      9  C   UNL     1     139.775  72.814 220.430 -0.11 -0.01    +0.039 C  
DOCKED: BRANCH   9  10
DOCKED: ATOM     10  N   UNL     1     139.759  71.594 221.222 +0.02 +0.11    -0.637 NA 
DOCKED: BRANCH  10  11
DOCKED: ATOM     11  C   UNL     1     138.712  71.320 222.154 -0.16 -0.02    +0.101 C  
DOCKED: ATOM     12  O   UNL     1     137.548  71.749 221.931 -0.06 +0.07    -0.313 OA 
DOCKED: BRANCH  11  13
DOCKED: ATOM     13  C   UNL     1     139.011  70.574 223.385 -0.25 -0.02    +0.088 A  
DOCKED: ATOM     14  N   UNL     1     139.696  71.191 224.386 -0.26 +0.05    -0.246 NA 
DOCKED: ATOM     15  C   UNL     1     138.589  69.245 223.550 -0.26 -0.00    +0.031 A  
DOCKED: ATOM     16  C   UNL     1     140.006  70.558 225.548 -0.46 -0.01    +0.071 A  
DOCKED: ATOM     17  C   UNL     1     138.899  68.565 224.730 -0.38 -0.00    +0.013 A  
DOCKED: ATOM     18  C   UNL     1     140.709  71.231 226.551 -0.65 -0.01    +0.032 A  
DOCKED: ATOM     19  C   UNL     1     139.614  69.215 225.743 -0.46 -0.00    +0.003 A  
DOCKED: ATOM     20  C   UNL     1     141.035  70.573 227.740 -0.61 -0.01    +0.041 A  
DOCKED: ATOM     21  C   UNL     1     139.942  68.560 226.941 -0.58 -0.01    +0.049 A  
DOCKED: ATOM     22  C   UNL     1     140.652  69.240 227.935 -0.53 -0.02    +0.123 A  
DOCKED: ATOM     23  F   UNL     1     140.968  68.609 229.093 -0.14 +0.05    -0.207 F  
DOCKED: ENDBRANCH  11  13
DOCKED: ENDBRANCH  10  11
DOCKED: ENDBRANCH   9  10
DOCKED: ENDBRANCH   6   9
DOCKED: ENDBRANCH   1   6
DOCKED: BRANCH   5  24
DOCKED: ATOM     24  C   UNL     1     138.987  76.844 221.779 -0.17 -0.06    +0.289 C  
DOCKED: ATOM     25  N   UNL     1     138.049  75.972 222.427 -0.15 +0.08    -0.344 N  
DOCKED: ATOM     26  O   UNL     1     138.600  77.950 221.311 -0.07 +0.06    -0.267 OA 
DOCKED: ATOM     27  H   UNL     1     138.423  75.148 222.950 -0.43 -0.07    +0.164 HD 
DOCKED: BRANCH  25  28
DOCKED: ATOM     28  C   UNL     1     136.607  76.073 222.171 -0.16 -0.02    +0.111 C  
DOCKED: ATOM     29  C   UNL     1     136.221  75.271 220.921 -0.06 -0.01    +0.036 C  
DOCKED: BRANCH  28  30
DOCKED: ATOM     30  C   UNL     1     135.813  75.605 223.381 -0.26 +0.00    -0.007 A  
DOCKED: ATOM     31  C   UNL     1     135.817  74.240 223.719 -0.21 -0.00    +0.011 A  
DOCKED: ATOM     32  C   UNL     1     135.071  76.500 224.188 -0.22 -0.01    +0.049 A  
DOCKED: ATOM     33  C   UNL     1     135.117  73.773 224.831 -0.25 -0.01    +0.047 A  
DOCKED: ATOM     34  C   UNL     1     134.368  76.021 225.302 -0.29 -0.01    +0.067 A  
DOCKED: ATOM     35  C   UNL     1     134.390  74.655 225.632 -0.32 -0.00    +0.120 A  
DOCKED: ATOM     36  Cl  UNL     1     134.984  78.228 223.855 -0.14 +0.01    -0.084 Cl 
DOCKED: BRANCH  35  37
DOCKED: ATOM     37  O   UNL     1     133.705  74.137 226.740 -0.68 -0.10    -0.497 OA 
DOCKED: ATOM     38  C   UNL     1     132.285  74.077 226.852 -0.24 -0.02    +0.278 C  
DOCKED: ENDBRANCH  35  37
DOCKED: ENDBRANCH  28  30
DOCKED: ENDBRANCH  25  28
DOCKED: ENDBRANCH   5  24
DOCKED: BRANCH   3  39
DOCKED: ATOM     39  O   UNL     1     143.324  76.577 220.082 -0.21 +0.31    -0.386 OA 
DOCKED: ATOM     40  H   UNL     1     143.619  77.498 220.306 -0.48 -0.26    +0.211 HD 
DOCKED: ENDBRANCH   3  39
DOCKED: TORSDOF 11
DOCKED: TER
DOCKED: ENDMDL
________________________________________________________________________________


    FINAL DOCKED STATE:
    ________________________


Run:   17 / 20
Time taken for this run:   0.077s

DOCKED: MODEL        17
DOCKED: USER    Run = 17
DOCKED: USER
DOCKED: USER    Estimated Free Energy of Binding    =  -8.51 kcal/mol  [=(1)+(2)+(3)-(4)]
DOCKED: USER
DOCKED: USER    (1) Final Intermolecular Energy     = -11.79 kcal/mol
DOCKED: USER        vdW + Hbond + desolv Energy     = -11.41 kcal/mol
DOCKED: USER        Electrostatic Energy            =  -0.39 kcal/mol
DOCKED: USER        Moving Ligand-Fixed Receptor    = -11.79 kcal/mol
DOCKED: USER        Moving Ligand-Moving Receptor   =  +0.00 kcal/mol
DOCKED: USER    (2) Final Total Internal Energy     =  -3.87 kcal/mol
DOCKED: USER    (3) Torsional Free Energy           =  +3.28 kcal/mol
DOCKED: USER    (4) Unbound System's Energy         =  -3.87 kcal/mol
DOCKED: USER
DOCKED: USER
DOCKED: REMARK SMILES COc1ccc([C@H](C)NC(=O)[C@@H]2C[C@@H](O)C/[N+]2=C(\O)C[N-]C(=O)c2ccc3cc(F)ccc3n2)c(Cl)c1
DOCKED: REMARK SMILES IDX 17 1 16 2 14 3 13 4 12 5 18 6 19 7 20 9 21 10 22 11 23 12
DOCKED: REMARK SMILES IDX 24 13 34 14 25 15 33 16 26 17 32 18 27 19 31 20 28 21 29 22
DOCKED: REMARK SMILES IDX 30 23 10 24 9 25 11 26 7 28 8 29 6 30 5 31 35 32 4 33 37 34
DOCKED: REMARK SMILES IDX 3 35 36 36 2 37 1 38 15 39
DOCKED: REMARK H PARENT 19 8 9 27 15 40
DOCKED: USER                              x       y       z     vdW  Elec       q    Type
DOCKED: USER                           _______ _______ _______ _____ _____    ______ ____
DOCKED: ROOT
DOCKED: ATOM      1  N   UNL     1     140.420  76.659 221.721 -0.24 +0.06    -0.189 N  
DOCKED: ATOM      2  C   UNL     1     141.294  77.376 220.798 -0.13 -0.19    +0.386 C  
DOCKED: ATOM      3  C   UNL     1     141.373  78.815 221.306 -0.27 -0.09    +0.186 C  
DOCKED: ATOM      4  C   UNL     1     140.181  78.993 222.246 -0.28 -0.03    +0.125 C  
DOCKED: ATOM      5  C   UNL     1     139.751  77.578 222.653 -0.12 -0.07    +0.355 C  
DOCKED: ENDROOT
DOCKED: BRANCH   1   6
DOCKED: ATOM      6  C   UNL     1     140.357  75.344 221.764 -0.18 -0.06    +0.316 C  
DOCKED: BRANCH   6   7
DOCKED: ATOM      7  O   UNL     1     139.568  74.687 222.715 -0.48 +0.04    -0.465 OA 
DOCKED: ATOM      8  H   UNL     1     139.757  73.755 223.058 -0.34 -0.01    +0.299 HD 
DOCKED: ENDBRANCH   6   7
DOCKED: BRANCH   6   9
DOCKED: ATOM      9  C   UNL     1     141.161  74.457 220.849 -0.27 -0.01    +0.039 C  
DOCKED: BRANCH   9  10
DOCKED: ATOM     10  N   UNL     1     141.404  73.189 221.517 -0.04 +0.06    -0.637 NA 
DOCKED: BRANCH  10  11
DOCKED: ATOM     11  C   UNL     1     140.411  72.163 221.563 -0.22 -0.01    +0.101 C  
DOCKED: ATOM     12  O   UNL     1     139.765  71.871 220.520 -0.04 +0.05    -0.313 OA 
DOCKED: BRANCH  11  13
DOCKED: ATOM     13  C   UNL     1     140.123  71.485 222.836 -0.29 -0.01    +0.088 A  
DOCKED: ATOM     14  N   UNL     1     140.682  71.961 223.982 -0.22 +0.02    -0.246 NA 
DOCKED: ATOM     15  C   UNL     1     139.273  70.369 222.889 -0.23 -0.01    +0.031 A  
DOCKED: ATOM     16  C   UNL     1     140.458  71.380 225.190 -0.49 -0.01    +0.071 A  
DOCKED: ATOM     17  C   UNL     1     139.030  69.746 224.115 -0.31 -0.00    +0.013 A  
DOCKED: ATOM     18  C   UNL     1     141.051  71.902 226.343 -0.65 -0.00    +0.032 A  
DOCKED: ATOM     19  C   UNL     1     139.623  70.244 225.281 -0.44 -0.00    +0.003 A  
DOCKED: ATOM     20  C   UNL     1     140.827  71.296 227.583 -0.72 -0.01    +0.041 A  
DOCKED: ATOM     21  C   UNL     1     139.400  69.641 226.529 -0.44 -0.01    +0.049 A  
DOCKED: ATOM     22  C   UNL     1     140.003  70.167 227.675 -0.51 -0.02    +0.123 A  
DOCKED: ATOM     23  F   UNL     1     139.787  69.587 228.881 -0.10 +0.03    -0.207 F  
DOCKED: ENDBRANCH  11  13
DOCKED: ENDBRANCH  10  11
DOCKED: ENDBRANCH   9  10
DOCKED: ENDBRANCH   6   9
DOCKED: ENDBRANCH   1   6
DOCKED: BRANCH   5  24
DOCKED: ATOM     24  C   UNL     1     138.245  77.461 222.607 -0.17 -0.05    +0.289 C  
DOCKED: ATOM     25  N   UNL     1     137.574  76.340 223.203 -0.12 +0.08    -0.344 N  
DOCKED: ATOM     26  O   UNL     1     137.584  78.328 221.973 -0.09 +0.05    -0.267 OA 
DOCKED: ATOM     27  H   UNL     1     138.116  75.734 223.859 -0.27 -0.07    +0.164 HD 
DOCKED: BRANCH  25  28
DOCKED: ATOM     28  C   UNL     1     136.255  75.902 222.733 -0.20 -0.02    +0.111 C  
DOCKED: ATOM     29  C   UNL     1     136.395  74.791 221.684 -0.12 -0.01    +0.036 C  
DOCKED: BRANCH  28  30
DOCKED: ATOM     30  C   UNL     1     135.397  75.437 223.901 -0.28 +0.00    -0.007 A  
DOCKED: ATOM     31  C   UNL     1     135.447  74.088 224.296 -0.28 -0.00    +0.011 A  
DOCKED: ATOM     32  C   UNL     1     134.550  76.320 224.613 -0.23 -0.01    +0.049 A  
DOCKED: ATOM     33  C   UNL     1     134.691  73.627 225.373 -0.26 -0.00    +0.047 A  
DOCKED: ATOM     34  C   UNL     1     133.792  75.847 225.692 -0.29 -0.00    +0.067 A  
DOCKED: ATOM     35  C   UNL     1     133.860  74.498 226.080 -0.30 +0.01    +0.120 A  
DOCKED: ATOM     36  Cl  UNL     1     134.399  78.027 224.201 -0.16 +0.01    -0.084 Cl 
DOCKED: BRANCH  35  37
DOCKED: ATOM     37  O   UNL     1     133.122  73.986 227.157 -0.69 -0.04    -0.497 OA 
DOCKED: ATOM     38  C   UNL     1     132.202  72.902 227.058 -0.26 -0.04    +0.278 C  
DOCKED: ENDBRANCH  35  37
DOCKED: ENDBRANCH  28  30
DOCKED: ENDBRANCH  25  28
DOCKED: ENDBRANCH   5  24
DOCKED: BRANCH   3  39
DOCKED: ATOM     39  O   UNL     1     142.586  79.050 221.981 -0.23 +0.26    -0.386 OA 
DOCKED: ATOM     40  H   UNL     1     143.263  78.420 221.620 -0.46 -0.27    +0.211 HD 
DOCKED: ENDBRANCH   3  39
DOCKED: TORSDOF 11
DOCKED: TER
DOCKED: ENDMDL
________________________________________________________________________________


    FINAL DOCKED STATE:
    ________________________


Run:   18 / 20
Time taken for this run:   0.077s

DOCKED: MODEL        18
DOCKED: USER    Run = 18
DOCKED: USER
DOCKED: USER    Estimated Free Energy of Binding    =  -7.52 kcal/mol  [=(1)+(2)+(3)-(4)]
DOCKED: USER
DOCKED: USER    (1) Final Intermolecular Energy     = -10.80 kcal/mol
DOCKED: USER        vdW + Hbond + desolv Energy     = -10.41 kcal/mol
DOCKED: USER        Electrostatic Energy            =  -0.39 kcal/mol
DOCKED: USER        Moving Ligand-Fixed Receptor    = -10.80 kcal/mol
DOCKED: USER        Moving Ligand-Moving Receptor   =  +0.00 kcal/mol
DOCKED: USER    (2) Final Total Internal Energy     =  -4.55 kcal/mol
DOCKED: USER    (3) Torsional Free Energy           =  +3.28 kcal/mol
DOCKED: USER    (4) Unbound System's Energy         =  -4.55 kcal/mol
DOCKED: USER
DOCKED: USER
DOCKED: REMARK SMILES COc1ccc([C@H](C)NC(=O)[C@@H]2C[C@@H](O)C/[N+]2=C(\O)C[N-]C(=O)c2ccc3cc(F)ccc3n2)c(Cl)c1
DOCKED: REMARK SMILES IDX 17 1 16 2 14 3 13 4 12 5 18 6 19 7 20 9 21 10 22 11 23 12
DOCKED: REMARK SMILES IDX 24 13 34 14 25 15 33 16 26 17 32 18 27 19 31 20 28 21 29 22
DOCKED: REMARK SMILES IDX 30 23 10 24 9 25 11 26 7 28 8 29 6 30 5 31 35 32 4 33 37 34
DOCKED: REMARK SMILES IDX 3 35 36 36 2 37 1 38 15 39
DOCKED: REMARK H PARENT 19 8 9 27 15 40
DOCKED: USER                              x       y       z     vdW  Elec       q    Type
DOCKED: USER                           _______ _______ _______ _____ _____    ______ ____
DOCKED: ROOT
DOCKED: ATOM      1  N   UNL     1     140.284  76.316 221.113 -0.16 +0.06    -0.189 N  
DOCKED: ATOM      2  C   UNL     1     140.868  77.400 220.330 -0.08 -0.16    +0.386 C  
DOCKED: ATOM      3  C   UNL     1     141.018  78.588 221.279 -0.23 -0.08    +0.186 C  
DOCKED: ATOM      4  C   UNL     1     140.096  78.296 222.463 -0.32 -0.03    +0.125 C  
DOCKED: ATOM      5  C   UNL     1     139.837  76.784 222.432 -0.15 -0.08    +0.355 C  
DOCKED: ENDROOT
DOCKED: BRANCH   1   6
DOCKED: ATOM      6  C   UNL     1     140.284  75.064 220.704 -0.12 -0.07    +0.316 C  
DOCKED: BRANCH   6   7
DOCKED: ATOM      7  O   UNL     1     139.201  74.534 219.994 -0.00 +0.10    -0.465 OA 
DOCKED: ATOM      8  H   UNL     1     138.839  73.599 220.131 +0.05 -0.06    +0.299 HD 
DOCKED: ENDBRANCH   6   7
DOCKED: BRANCH   6   9
DOCKED: ATOM      9  C   UNL     1     141.402  74.103 221.015 -0.27 -0.01    +0.039 C  
DOCKED: BRANCH   9  10
DOCKED: ATOM     10  N   UNL     1     141.079  73.386 222.238 -0.25 -0.03    -0.637 NA 
DOCKED: BRANCH  10  11
DOCKED: ATOM     11  C   UNL     1     139.960  72.502 222.316 -0.27 -0.02    +0.101 C  
DOCKED: ATOM     12  O   UNL     1     139.092  72.510 221.402 -0.09 +0.06    -0.313 OA 
DOCKED: BRANCH  11  13
DOCKED: ATOM     13  C   UNL     1     139.810  71.618 223.481 -0.33 -0.02    +0.088 A  
DOCKED: ATOM     14  N   UNL     1     140.500  71.899 224.620 -0.26 +0.04    -0.246 NA 
DOCKED: ATOM     15  C   UNL     1     138.957  70.503 223.444 -0.27 -0.01    +0.031 A  
DOCKED: ATOM     16  C   UNL     1     140.407  71.122 225.732 -0.53 -0.01    +0.071 A  
DOCKED: ATOM     17  C   UNL     1     138.847  69.681 224.568 -0.35 -0.00    +0.013 A  
DOCKED: ATOM     18  C   UNL     1     141.133  71.448 226.881 -0.70 -0.00    +0.032 A  
DOCKED: ATOM     19  C   UNL     1     139.574  69.981 225.726 -0.46 -0.00    +0.003 A  
DOCKED: ATOM     20  C   UNL     1     141.043  70.641 228.019 -0.62 -0.01    +0.041 A  
DOCKED: ATOM     21  C   UNL     1     139.486  69.176 226.872 -0.49 -0.01    +0.049 A  
DOCKED: ATOM     22  C   UNL     1     140.222  69.507 228.015 -0.52 -0.02    +0.123 A  
DOCKED: ATOM     23  F   UNL     1     140.136  68.732 229.123 -0.12 +0.04    -0.207 F  
DOCKED: ENDBRANCH  11  13
DOCKED: ENDBRANCH  10  11
DOCKED: ENDBRANCH   9  10
DOCKED: ENDBRANCH   6   9
DOCKED: ENDBRANCH   1   6
DOCKED: BRANCH   5  24
DOCKED: ATOM     24  C   UNL     1     138.375  76.504 222.686 -0.18 -0.06    +0.289 C  
DOCKED: ATOM     25  N   UNL     1     137.796  75.236 222.341 -0.12 +0.10    -0.344 N  
DOCKED: ATOM     26  O   UNL     1     137.646  77.426 223.143 -0.14 +0.04    -0.267 OA 
DOCKED: ATOM     27  H   UNL     1     138.441  74.443 222.127 -0.12 -0.05    +0.164 HD 
DOCKED: BRANCH  25  28
DOCKED: ATOM     28  C   UNL     1     136.363  75.104 222.052 -0.13 -0.03    +0.111 C  
DOCKED: ATOM     29  C   UNL     1     136.123  74.035 220.978 -0.06 -0.01    +0.036 C  
DOCKED: BRANCH  28  30
DOCKED: ATOM     30  C   UNL     1     135.589  74.779 223.320 -0.22 +0.00    -0.007 A  
DOCKED: ATOM     31  C   UNL     1     135.628  73.471 223.835 -0.21 -0.00    +0.011 A  
DOCKED: ATOM     32  C   UNL     1     134.829  75.755 224.011 -0.22 -0.01    +0.049 A  
DOCKED: ATOM     33  C   UNL     1     134.947  73.138 225.004 -0.21 -0.00    +0.047 A  
DOCKED: ATOM     34  C   UNL     1     134.146  75.410 225.184 -0.28 -0.01    +0.067 A  
DOCKED: ATOM     35  C   UNL     1     134.203  74.100 225.690 -0.29 +0.00    +0.120 A  
DOCKED: ATOM     36  Cl  UNL     1     134.698  77.422 223.455 -0.18 +0.01    -0.084 Cl 
DOCKED: BRANCH  35  37
DOCKED: ATOM     37  O   UNL     1     133.538  73.716 226.863 -0.72 -0.07    -0.497 OA 
DOCKED: ATOM     38  C   UNL     1     132.817  72.496 227.016 -0.26 -0.03    +0.278 C  
DOCKED: ENDBRANCH  35  37
DOCKED: ENDBRANCH  28  30
DOCKED: ENDBRANCH  25  28
DOCKED: ENDBRANCH   5  24
DOCKED: BRANCH   3  39
DOCKED: ATOM     39  O   UNL     1     142.352  78.734 221.703 -0.16 +0.28    -0.386 OA 
DOCKED: ATOM     40  H   UNL     1     142.940  78.610 220.913 -0.37 -0.24    +0.211 HD 
DOCKED: ENDBRANCH   3  39
DOCKED: TORSDOF 11
DOCKED: TER
DOCKED: ENDMDL
________________________________________________________________________________


    FINAL DOCKED STATE:
    ________________________


Run:   19 / 20
Time taken for this run:   0.077s

DOCKED: MODEL        19
DOCKED: USER    Run = 19
DOCKED: USER
DOCKED: USER    Estimated Free Energy of Binding    =  -6.14 kcal/mol  [=(1)+(2)+(3)-(4)]
DOCKED: USER
DOCKED: USER    (1) Final Intermolecular Energy     =  -9.43 kcal/mol
DOCKED: USER        vdW + Hbond + desolv Energy     =  -9.36 kcal/mol
DOCKED: USER        Electrostatic Energy            =  -0.06 kcal/mol
DOCKED: USER        Moving Ligand-Fixed Receptor    =  -9.43 kcal/mol
DOCKED: USER        Moving Ligand-Moving Receptor   =  +0.00 kcal/mol
DOCKED: USER    (2) Final Total Internal Energy     =  -6.00 kcal/mol
DOCKED: USER    (3) Torsional Free Energy           =  +3.28 kcal/mol
DOCKED: USER    (4) Unbound System's Energy         =  -6.00 kcal/mol
DOCKED: USER
DOCKED: USER
DOCKED: REMARK SMILES COc1ccc([C@H](C)NC(=O)[C@@H]2C[C@@H](O)C/[N+]2=C(\O)C[N-]C(=O)c2ccc3cc(F)ccc3n2)c(Cl)c1
DOCKED: REMARK SMILES IDX 17 1 16 2 14 3 13 4 12 5 18 6 19 7 20 9 21 10 22 11 23 12
DOCKED: REMARK SMILES IDX 24 13 34 14 25 15 33 16 26 17 32 18 27 19 31 20 28 21 29 22
DOCKED: REMARK SMILES IDX 30 23 10 24 9 25 11 26 7 28 8 29 6 30 5 31 35 32 4 33 37 34
DOCKED: REMARK SMILES IDX 3 35 36 36 2 37 1 38 15 39
DOCKED: REMARK H PARENT 19 8 9 27 15 40
DOCKED: USER                              x       y       z     vdW  Elec       q    Type
DOCKED: USER                           _______ _______ _______ _____ _____    ______ ____
DOCKED: ROOT
DOCKED: ATOM      1  N   UNL     1     140.439  70.779 220.903 -0.09 +0.03    -0.189 N  
DOCKED: ATOM      2  C   UNL     1     141.460  70.825 219.862 -0.04 -0.06    +0.386 C  
DOCKED: ATOM      3  C   UNL     1     142.596  71.689 220.408 -0.16 -0.02    +0.186 C  
DOCKED: ATOM      4  C   UNL     1     141.996  72.485 221.567 +0.07 -0.01    +0.125 C  
DOCKED: ATOM      5  C   UNL     1     140.729  71.729 221.986 -0.13 -0.04    +0.355 C  
DOCKED: ENDROOT
DOCKED: BRANCH   1   6
DOCKED: ATOM      6  C   UNL     1     139.459  69.898 220.899 -0.06 -0.06    +0.316 C  
DOCKED: BRANCH   6   7
DOCKED: ATOM      7  O   UNL     1     138.154  70.268 220.556 +0.00 +0.08    -0.465 OA 
DOCKED: ATOM      8  H   UNL     1     137.328  69.770 220.860 +0.04 -0.05    +0.299 HD 
DOCKED: ENDBRANCH   6   7
DOCKED: BRANCH   6   9
DOCKED: ATOM      9  C   UNL     1     139.650  68.462 221.315 -0.08 -0.01    +0.039 C  
DOCKED: BRANCH   9  10
DOCKED: ATOM     10  N   UNL     1     138.509  68.050 222.117 +0.00 +0.11    -0.637 NA 
DOCKED: BRANCH  10  11
DOCKED: ATOM     11  C   UNL     1     137.908  68.925 223.072 -0.20 -0.01    +0.101 C  
DOCKED: ATOM     12  O   UNL     1     136.803  69.474 222.809 -0.06 +0.04    -0.313 OA 
DOCKED: BRANCH  11  13
DOCKED: ATOM     13  C   UNL     1     138.602  69.210 224.336 -0.29 -0.01    +0.088 A  
DOCKED: ATOM     14  N   UNL     1     139.312  70.366 224.458 -0.21 +0.04    -0.246 NA 
DOCKED: ATOM     15  C   UNL     1     138.532  68.321 225.420 -0.28 -0.00    +0.031 A  
DOCKED: ATOM     16  C   UNL     1     139.977  70.688 225.598 -0.46 -0.01    +0.071 A  
DOCKED: ATOM     17  C   UNL     1     139.213  68.621 226.603 -0.49 -0.00    +0.013 A  
DOCKED: ATOM     18  C   UNL     1     140.692  71.887 225.680 -0.47 -0.00    +0.032 A  
DOCKED: ATOM     19  C   UNL     1     139.945  69.810 226.704 -0.54 -0.00    +0.003 A  
DOCKED: ATOM     20  C   UNL     1     141.384  72.210 226.851 -0.70 -0.01    +0.041 A  
DOCKED: ATOM     21  C   UNL     1     140.640  70.141 227.878 -0.59 -0.01    +0.049 A  
DOCKED: ATOM     22  C   UNL     1     141.358  71.339 227.948 -0.53 -0.02    +0.123 A  
DOCKED: ATOM     23  F   UNL     1     142.028  71.662 229.081 -0.13 +0.05    -0.207 F  
DOCKED: ENDBRANCH  11  13
DOCKED: ENDBRANCH  10  11
DOCKED: ENDBRANCH   9  10
DOCKED: ENDBRANCH   6   9
DOCKED: ENDBRANCH   1   6
DOCKED: BRANCH   5  24
DOCKED: ATOM     24  C   UNL     1     139.600  72.703 222.226 -0.17 -0.05    +0.289 C  
DOCKED: ATOM     25  N   UNL     1     138.248  72.243 222.374 -0.08 +0.10    -0.344 N  
DOCKED: ATOM     26  O   UNL     1     139.849  73.939 222.225 -0.81 +0.02    -0.267 OA 
DOCKED: ATOM     27  H   UNL     1     138.090  71.224 222.540 +0.04 -0.04    +0.164 HD 
DOCKED: BRANCH  25  28
DOCKED: ATOM     28  C   UNL     1     137.107  73.111 222.060 -0.11 -0.03    +0.111 C  
DOCKED: ATOM     29  C   UNL     1     136.336  72.575 220.847 -0.04 -0.01    +0.036 C  
DOCKED: BRANCH  28  30
DOCKED: ATOM     30  C   UNL     1     136.190  73.247 223.266 -0.14 +0.00    -0.007 A  
DOCKED: ATOM     31  C   UNL     1     135.688  72.088 223.883 -0.20 -0.00    +0.011 A  
DOCKED: ATOM     32  C   UNL     1     135.826  74.508 223.798 -0.22 -0.01    +0.049 A  
DOCKED: ATOM     33  C   UNL     1     134.859  72.170 225.001 -0.18 -0.00    +0.047 A  
DOCKED: ATOM     34  C   UNL     1     134.991  74.581 224.921 -0.32 -0.01    +0.067 A  
DOCKED: ATOM     35  C   UNL     1     134.505  73.412 225.531 -0.20 -0.00    +0.120 A  
DOCKED: ATOM     36  Cl  UNL     1     136.386  76.028 223.102 -0.32 +0.02    -0.084 Cl 
DOCKED: BRANCH  35  37
DOCKED: ATOM     37  O   UNL     1     133.672  73.442 226.658 -0.68 -0.05    -0.497 OA 
DOCKED: ATOM     38  C   UNL     1     132.625  74.388 226.860 -0.24 -0.00    +0.278 C  
DOCKED: ENDBRANCH  35  37
DOCKED: ENDBRANCH  28  30
DOCKED: ENDBRANCH  25  28
DOCKED: ENDBRANCH   5  24
DOCKED: BRANCH   3  39
DOCKED: ATOM     39  O   UNL     1     143.672  70.895 220.846 -0.06 +0.05    -0.386 OA 
DOCKED: ATOM     40  H   UNL     1     144.350  71.495 221.252 -0.26 -0.08    +0.211 HD 
DOCKED: ENDBRANCH   3  39
DOCKED: TORSDOF 11
DOCKED: TER
DOCKED: ENDMDL
________________________________________________________________________________


    FINAL DOCKED STATE:
    ________________________


Run:   20 / 20
Time taken for this run:   0.077s

DOCKED: MODEL        20
DOCKED: USER    Run = 20
DOCKED: USER
DOCKED: USER    Estimated Free Energy of Binding    =  -5.16 kcal/mol  [=(1)+(2)+(3)-(4)]
DOCKED: USER
DOCKED: USER    (1) Final Intermolecular Energy     =  -8.44 kcal/mol
DOCKED: USER        vdW + Hbond + desolv Energy     =  -8.33 kcal/mol
DOCKED: USER        Electrostatic Energy            =  -0.11 kcal/mol
DOCKED: USER        Moving Ligand-Fixed Receptor    =  -8.44 kcal/mol
DOCKED: USER        Moving Ligand-Moving Receptor   =  +0.00 kcal/mol
DOCKED: USER    (2) Final Total Internal Energy     =  -6.57 kcal/mol
DOCKED: USER    (3) Torsional Free Energy           =  +3.28 kcal/mol
DOCKED: USER    (4) Unbound System's Energy         =  -6.57 kcal/mol
DOCKED: USER
DOCKED: USER
DOCKED: REMARK SMILES COc1ccc([C@H](C)NC(=O)[C@@H]2C[C@@H](O)C/[N+]2=C(\O)C[N-]C(=O)c2ccc3cc(F)ccc3n2)c(Cl)c1
DOCKED: REMARK SMILES IDX 17 1 16 2 14 3 13 4 12 5 18 6 19 7 20 9 21 10 22 11 23 12
DOCKED: REMARK SMILES IDX 24 13 34 14 25 15 33 16 26 17 32 18 27 19 31 20 28 21 29 22
DOCKED: REMARK SMILES IDX 30 23 10 24 9 25 11 26 7 28 8 29 6 30 5 31 35 32 4 33 37 34
DOCKED: REMARK SMILES IDX 3 35 36 36 2 37 1 38 15 39
DOCKED: REMARK H PARENT 19 8 9 27 15 40
DOCKED: USER                              x       y       z     vdW  Elec       q    Type
DOCKED: USER                           _______ _______ _______ _____ _____    ______ ____
DOCKED: ROOT
DOCKED: ATOM      1  N   UNL     1     142.194  73.885 220.076 -0.13 +0.05    -0.189 N  
DOCKED: ATOM      2  C   UNL     1     143.048  72.801 219.603 -0.06 -0.06    +0.386 C  
DOCKED: ATOM      3  C   UNL     1     144.485  73.212 219.922 -0.30 -0.02    +0.186 C  
DOCKED: ATOM      4  C   UNL     1     144.446  74.721 220.159 -0.32 -0.06    +0.125 C  
DOCKED: ATOM      5  C   UNL     1     142.983  75.061 220.470 -0.06 -0.17    +0.355 C  
DOCKED: ENDROOT
DOCKED: BRANCH   1   6
DOCKED: ATOM      6  C   UNL     1     140.892  73.749 220.232 -0.08 -0.06    +0.316 C  
DOCKED: BRANCH   6   7
DOCKED: ATOM      7  O   UNL     1     140.000  74.102 219.213 +0.01 +0.10    -0.465 OA 
DOCKED: ATOM      8  H   UNL     1     139.120  74.575 219.373 +0.04 -0.07    +0.299 HD 
DOCKED: ENDBRANCH   6   7
DOCKED: BRANCH   6   9
DOCKED: ATOM      9  C   UNL     1     140.269  73.268 221.516 -0.26 -0.01    +0.039 C  
DOCKED: BRANCH   9  10
DOCKED: ATOM     10  N   UNL     1     139.934  74.421 222.337 -0.56 +0.02    -0.637 NA 
DOCKED: BRANCH  10  11
DOCKED: ATOM     11  C   UNL     1     139.290  75.572 221.787 -0.26 -0.02    +0.101 C  
DOCKED: ATOM     12  O   UNL     1     138.482  75.436 220.829 -0.05 +0.07    -0.313 OA 
DOCKED: BRANCH  11  13
DOCKED: ATOM     13  C   UNL     1     139.606  76.906 222.317 -0.32 -0.02    +0.088 A  
DOCKED: ATOM     14  N   UNL     1     140.878  77.377 222.212 -0.25 +0.09    -0.246 NA 
DOCKED: ATOM     15  C   UNL     1     138.616  77.705 222.912 -0.23 -0.00    +0.031 A  
DOCKED: ATOM     16  C   UNL     1     141.237  78.601 222.683 -0.45 -0.03    +0.071 A  
DOCKED: ATOM     17  C   UNL     1     138.956  78.964 223.412 -0.32 -0.00    +0.013 A  
DOCKED: ATOM     18  C   UNL     1     142.555  79.047 222.553 -0.43 -0.02    +0.032 A  
DOCKED: ATOM     19  C   UNL     1     140.273  79.426 223.305 -0.45 -0.00    +0.003 A  
DOCKED: ATOM     20  C   UNL     1     142.922  80.302 223.047 -0.63 -0.01    +0.041 A  
DOCKED: ATOM     21  C   UNL     1     140.647  80.686 223.797 -0.39 -0.01    +0.049 A  
DOCKED: ATOM     22  C   UNL     1     141.970  81.120 223.668 -0.51 -0.02    +0.123 A  
DOCKED: ATOM     23  F   UNL     1     142.333  82.337 224.142 -0.01 +0.00    -0.207 F  
DOCKED: ENDBRANCH  11  13
DOCKED: ENDBRANCH  10  11
DOCKED: ENDBRANCH   9  10
DOCKED: ENDBRANCH   6   9
DOCKED: ENDBRANCH   1   6
DOCKED: BRANCH   5  24
DOCKED: ATOM     24  C   UNL     1     142.573  76.313 219.731 -0.22 -0.17    +0.289 C  
DOCKED: ATOM     25  N   UNL     1     141.195  76.710 219.659 -0.05 +0.14    -0.344 N  
DOCKED: ATOM     26  O   UNL     1     143.452  76.973 219.113 -0.29 +0.20    -0.267 OA 
DOCKED: ATOM     27  H   UNL     1     140.517  76.253 220.309 +0.05 -0.05    +0.164 HD 
DOCKED: BRANCH  25  28
DOCKED: ATOM     28  C   UNL     1     140.695  77.540 218.557 -0.08 -0.04    +0.111 C  
DOCKED: ATOM     29  C   UNL     1     139.544  76.836 217.827 -0.02 -0.01    +0.036 C  
DOCKED: BRANCH  28  30
DOCKED: ATOM     30  C   UNL     1     140.256  78.903 219.070 -0.10 +0.00    -0.007 A  
DOCKED: ATOM     31  C   UNL     1     138.993  79.037 219.673 -0.06 -0.00    +0.011 A  
DOCKED: ATOM     32  C   UNL     1     141.082  80.049 218.967 -0.18 -0.02    +0.049 A  
DOCKED: ATOM     33  C   UNL     1     138.561  80.266 220.171 -0.06 -0.01    +0.047 A  
DOCKED: ATOM     34  C   UNL     1     140.638  81.280 219.469 -0.16 -0.02    +0.067 A  
DOCKED: ATOM     35  C   UNL     1     139.376  81.395 220.077 -0.08 -0.03    +0.120 A  
DOCKED: ATOM     36  Cl  UNL     1     142.678  80.004 218.223 -0.35 +0.08    -0.084 Cl 
DOCKED: BRANCH  35  37
DOCKED: ATOM     37  O   UNL     1     138.898  82.606 220.596 -0.02 +0.09    -0.497 OA 
DOCKED: ATOM     38  C   UNL     1     139.712  83.579 221.246 -0.13 -0.04    +0.278 C  
DOCKED: ENDBRANCH  35  37
DOCKED: ENDBRANCH  28  30
DOCKED: ENDBRANCH  25  28
DOCKED: ENDBRANCH   5  24
DOCKED: BRANCH   3  39
DOCKED: ATOM     39  O   UNL     1     144.965  72.535 221.059 -0.22 +0.09    -0.386 OA 
DOCKED: ATOM     40  H   UNL     1     145.043  71.572 220.832 -0.32 -0.07    +0.211 HD 
DOCKED: ENDBRANCH   3  39
DOCKED: TORSDOF 11
DOCKED: TER
DOCKED: ENDMDL
________________________________________________________________________________


    CLUSTERING HISTOGRAM
    ____________________


________________________________________________________________________________
     |           |     |           |     |
Clus | Lowest    | Run | Mean      | Num | Histogram
-ter | Binding   |     | Binding   | in  |
Rank | Energy    |     | Energy    | Clus|    5    10   15   20   25   30   35
_____|___________|_____|___________|_____|____:____|____:____|____:____|____:___
   1 |     -8.63 |   2 |     -7.91 |  15 |###############
   2 |     -6.90 |  13 |     -6.90 |   1 |#
   3 |     -6.73 |   4 |     -6.73 |   1 |#
   4 |     -6.14 |  19 |     -6.14 |   1 |#
   5 |     -5.29 |   1 |     -5.29 |   1 |#
   6 |     -5.16 |  20 |     -5.16 |   1 |#
_____|___________|_____|___________|_____|______________________________________


    RMSD TABLE
    __________


_______________________________________________________________________
     |      |      |           |         |                 |
Rank | Sub- | Run  | Binding   | Cluster | Reference       | Grep
     | Rank |      | Energy    | RMSD    | RMSD            | Pattern
_____|______|______|___________|_________|_________________|___________
   1      1      2       -8.63      0.00    271.56           RANKING
   1      2     12       -8.59      0.19    271.55           RANKING
   1      3     17       -8.51      0.09    271.53           RANKING
   1      4     14       -8.29      1.42    271.06           RANKING
   1      5     16       -8.26      1.29    271.11           RANKING
   1      6     10       -8.16      1.44    271.16           RANKING
   1      7      6       -8.14      1.51    271.04           RANKING
   1      8     15       -7.98      1.49    271.25           RANKING
   1      9     11       -7.79      1.39    271.12           RANKING
   1     10     18       -7.52      1.02    271.26           RANKING
   1     11      8       -7.48      0.96    271.44           RANKING
   1     12      9       -7.39      1.44    271.12           RANKING
   1     13      5       -7.35      1.26    271.24           RANKING
   1     14      3       -7.32      1.58    271.07           RANKING
   1     15      7       -7.17      1.52    271.17           RANKING
   2      1     13       -6.90      0.00    271.59           RANKING
   3      1      4       -6.73      0.00    270.60           RANKING
   4      1     19       -6.14      0.00    270.71           RANKING
   5      1      1       -5.29      0.00    270.46           RANKING
   6      1     20       -5.16      0.00    271.26           RANKING

Run time 1.459 sec
Idle time 0.000 sec
