AutoDock-GPU version: v1.6

**********************************************************
**    AutoDock-GPU AUTODOCKTOOLS-COMPATIBLE DLG FILE    **
**********************************************************


    DOCKING PARAMETERS
    ________________________


Ligand file:                               /home/a/REINVENT4/ReinventStudies/scoringData/graph-dock-h4r84i/graph-DockGPU/node-autodockgpu/inputs/MCZRVQBLWAUNOI-UKKWOIQDNA-P.pdbqt
Grid fld file:                             /home/a/REINVENT4/ReinventStudies/mols/Rad51/maps/rad51_receptor.maps.fld

Random seed:                               42
Number of runs:                            20
Number of energy evaluations:              1613968
Number of generations:                     42000
Size of population:                        150
Rate of crossover:                         80.000000%
Tournament selection probability limit:    60.000000%
Rate of mutation:                          2.000000%
Maximal allowed delta movement:            +/- 6.000000A
Maximal allowed delta angle:               +/- 90.000000

Rate of local search:                      100.000000%
Maximal number of local search iterations: 300
Rho lower bound:                           0.010000
Spread of local search delta movement:     2.000000A
Spread of local search delta angle:        74.999999
Limit of consecutive successes/failures:   4

Handle symmetry during clustering:         YES
RMSD tolerance:                            2.000000A

Program call in command line was:          /home/a/REINVENT4/ReinventStudies/adgpu-v1.6_linux_x64_cuda12_128wi --filelist batch.txt --heuristics 1 --nrun 20 --psize 150 --lsit 300 --seed 42 --heurmax 12000000 


    GRID PARAMETERS
    ________________________


Receptor name:                             rad51_receptor
Number of grid points (x, y, z):           53, 53, 53
Grid center (x, y, z):                     139.950000, 75.640000, 221.970000A
Grid size (x, y, z):                       19.500000, 19.500000, 19.500000A
Grid spacing:                              0.375000A


    LIGAND PARAMETERS
    ________________________


Ligand name:                               /home/a/REINVENT4/ReinventStudies/scoringData/graph-dock-h4r84i/graph-DockGPU/node-autodockgpu/inputs/MCZRVQBLWAUNOI-UKKWOIQDNA-P
Number of atoms:                           34
Number of rotatable bonds:                 8
Number of atom types:                      5


    DUMMY DATA (only for ADT-compatibility)
    ________________________


DPF> outlev 1
DPF> ga_run 20
DPF> fld /home/a/REINVENT4/ReinventStudies/mols/Rad51/maps/rad51_receptor.maps.fld
DPF> move /home/a/REINVENT4/ReinventStudies/scoringData/graph-dock-h4r84i/graph-DockGPU/node-autodockgpu/inputs/MCZRVQBLWAUNOI-UKKWOIQDNA-P.pdbqt


    COUNTER STATES
    ________________________


Number of energy evaluations performed:    945642
Number of generations used:                45


    INPUT LIGAND PDBQT FILE:
    ________________________


INPUT-LIGAND-PDBQT: REMARK SMILES CC/C(O)=[N+](/c1ccccc1)C1CCN(C(=O)[C@@H]([NH3+])C2Cc3ccccc3C2)CC1
INPUT-LIGAND-PDBQT: REMARK SMILES IDX 12 1 13 2 14 3 15 4 16 5 17 6 29 7 30 8 5 9 3 10 4 11 2 13
INPUT-LIGAND-PDBQT: REMARK SMILES IDX 1 14 6 15 7 16 11 17 8 18 10 19 9 20 18 21 20 22 21 23 28 24
INPUT-LIGAND-PDBQT: REMARK SMILES IDX 22 25 27 26 23 27 26 28 24 29 25 30 19 31
INPUT-LIGAND-PDBQT: REMARK H PARENT 4 12 19 32 19 33 19 34
INPUT-LIGAND-PDBQT: ROOT
INPUT-LIGAND-PDBQT: ATOM      1  C   UNL     1       0.241   0.260   1.825  1.00  0.00     0.274 C 
INPUT-LIGAND-PDBQT: ATOM      2  C   UNL     1      -1.177  -0.270   2.158  1.00  0.00     0.098 C 
INPUT-LIGAND-PDBQT: ATOM      3  C   UNL     1      -1.442  -1.694   1.616  1.00  0.00     0.126 C 
INPUT-LIGAND-PDBQT: ATOM      4  N   UNL     1      -0.500  -2.089   0.553  1.00  0.00    -0.337 N 
INPUT-LIGAND-PDBQT: ATOM      5  C   UNL     1      -0.975  -2.921  -0.529  1.00  0.00     0.281 C 
INPUT-LIGAND-PDBQT: ATOM      6  O   UNL     1      -2.023  -3.605  -0.370  1.00  0.00    -0.268 OA
INPUT-LIGAND-PDBQT: ATOM      7  C   UNL     1       0.949  -1.866   0.723  1.00  0.00     0.126 C 
INPUT-LIGAND-PDBQT: ATOM      8  C   UNL     1       1.248  -0.896   1.871  1.00  0.00     0.098 C 
INPUT-LIGAND-PDBQT: ENDROOT
INPUT-LIGAND-PDBQT: BRANCH   1   9
INPUT-LIGAND-PDBQT: ATOM      9  N   UNL     1       0.677   1.385   2.700  1.00  0.00    -0.162 N 
INPUT-LIGAND-PDBQT: BRANCH   9  10
INPUT-LIGAND-PDBQT: ATOM     10  C   UNL     1       1.411   2.388   2.247  1.00  0.00     0.339 C 
INPUT-LIGAND-PDBQT: BRANCH  10  11
INPUT-LIGAND-PDBQT: ATOM     11  O   UNL     1       1.826   3.424   3.100  1.00  0.00    -0.463 OA
INPUT-LIGAND-PDBQT: ATOM     12  H   UNL     1       1.603   3.479   4.086  1.00  0.00     0.299 HD
INPUT-LIGAND-PDBQT: ENDBRANCH  10  11
INPUT-LIGAND-PDBQT: BRANCH  10  13
INPUT-LIGAND-PDBQT: ATOM     13  C   UNL     1       1.831   2.490   0.791  1.00  0.00     0.150 C 
INPUT-LIGAND-PDBQT: ATOM     14  C   UNL     1       2.860   3.593   0.545  1.00  0.00     0.019 C 
INPUT-LIGAND-PDBQT: ENDBRANCH  10  13
INPUT-LIGAND-PDBQT: ENDBRANCH   9  10
INPUT-LIGAND-PDBQT: BRANCH   9  15
INPUT-LIGAND-PDBQT: ATOM     15  C   UNL     1       0.386   1.311   4.110  1.00  0.00     0.208 A 
INPUT-LIGAND-PDBQT: ATOM     16  C   UNL     1       1.222   0.582   4.971  1.00  0.00     0.079 A 
INPUT-LIGAND-PDBQT: ATOM     17  C   UNL     1      -0.728   1.987   4.633  1.00  0.00     0.079 A 
INPUT-LIGAND-PDBQT: ATOM     18  C   UNL     1       0.936   0.518   6.338  1.00  0.00     0.007 A 
INPUT-LIGAND-PDBQT: ATOM     19  C   UNL     1      -1.009   1.923   6.002  1.00  0.00     0.007 A 
INPUT-LIGAND-PDBQT: ATOM     20  C   UNL     1      -0.179   1.187   6.853  1.00  0.00     0.000 A 
INPUT-LIGAND-PDBQT: ENDBRANCH   9  15
INPUT-LIGAND-PDBQT: ENDBRANCH   1   9
INPUT-LIGAND-PDBQT: BRANCH   5  21
INPUT-LIGAND-PDBQT: ATOM     21  C   UNL     1      -0.279  -2.932  -1.880  1.00  0.00     0.274 C 
INPUT-LIGAND-PDBQT: BRANCH  21  22
INPUT-LIGAND-PDBQT: ATOM     22  C   UNL     1      -0.485  -1.563  -2.601  1.00  0.00     0.066 C 
INPUT-LIGAND-PDBQT: ATOM     23  C   UNL     1      -1.960  -1.284  -3.000  1.00  0.00     0.046 C 
INPUT-LIGAND-PDBQT: ATOM     24  C   UNL     1       0.351  -1.445  -3.902  1.00  0.00     0.046 C 
INPUT-LIGAND-PDBQT: ATOM     25  C   UNL     1      -1.945  -1.372  -4.478  1.00  0.00    -0.044 A 
INPUT-LIGAND-PDBQT: ATOM     26  C   UNL     1      -0.669  -1.463  -4.977  1.00  0.00    -0.044 A 
INPUT-LIGAND-PDBQT: ATOM     27  C   UNL     1      -3.052  -1.336  -5.328  1.00  0.00     0.004 A 
INPUT-LIGAND-PDBQT: ATOM     28  C   UNL     1      -0.435  -1.526  -6.352  1.00  0.00     0.004 A 
INPUT-LIGAND-PDBQT: ATOM     29  C   UNL     1      -2.841  -1.405  -6.714  1.00  0.00     0.000 A 
INPUT-LIGAND-PDBQT: ATOM     30  C   UNL     1      -1.534  -1.500  -7.225  1.00  0.00     0.000 A 
INPUT-LIGAND-PDBQT: ENDBRANCH  21  22
INPUT-LIGAND-PDBQT: BRANCH  21  31
INPUT-LIGAND-PDBQT: ATOM     31  N   UNL     1      -0.717  -4.079  -2.698  1.00  0.00    -0.347 N 
INPUT-LIGAND-PDBQT: ATOM     32  H   UNL     1      -0.532  -4.968  -2.178  1.00  0.00     0.345 HD
INPUT-LIGAND-PDBQT: ATOM     33  H   UNL     1      -0.178  -4.122  -3.592  1.00  0.00     0.345 HD
INPUT-LIGAND-PDBQT: ATOM     34  H   UNL     1      -1.736  -4.030  -2.922  1.00  0.00     0.345 HD
INPUT-LIGAND-PDBQT: ENDBRANCH  21  31
INPUT-LIGAND-PDBQT: ENDBRANCH   5  21
INPUT-LIGAND-PDBQT: TORSDOF 8


    FINAL DOCKED STATE:
    ________________________


Run:   1 / 20
Time taken for this run:   0.048s

DOCKED: MODEL        1
DOCKED: USER    Run = 1
DOCKED: USER
DOCKED: USER    Estimated Free Energy of Binding    =  -6.37 kcal/mol  [=(1)+(2)+(3)-(4)]
DOCKED: USER
DOCKED: USER    (1) Final Intermolecular Energy     =  -8.76 kcal/mol
DOCKED: USER        vdW + Hbond + desolv Energy     =  -7.40 kcal/mol
DOCKED: USER        Electrostatic Energy            =  -1.36 kcal/mol
DOCKED: USER        Moving Ligand-Fixed Receptor    =  -8.76 kcal/mol
DOCKED: USER        Moving Ligand-Moving Receptor   =  +0.00 kcal/mol
DOCKED: USER    (2) Final Total Internal Energy     =  -2.89 kcal/mol
DOCKED: USER    (3) Torsional Free Energy           =  +2.39 kcal/mol
DOCKED: USER    (4) Unbound System's Energy         =  -2.89 kcal/mol
DOCKED: USER
DOCKED: USER
DOCKED: REMARK SMILES CC/C(O)=[N+](/c1ccccc1)C1CCN(C(=O)[C@@H]([NH3+])C2Cc3ccccc3C2)CC1
DOCKED: REMARK SMILES IDX 12 1 13 2 14 3 15 4 16 5 17 6 29 7 30 8 5 9 3 10 4 11 2 13
DOCKED: REMARK SMILES IDX 1 14 6 15 7 16 11 17 8 18 10 19 9 20 18 21 20 22 21 23 28 24
DOCKED: REMARK SMILES IDX 22 25 27 26 23 27 26 28 24 29 25 30 19 31
DOCKED: REMARK H PARENT 4 12 19 32 19 33 19 34
DOCKED: USER                              x       y       z     vdW  Elec       q    Type
DOCKED: USER                           _______ _______ _______ _____ _____    ______ ____
DOCKED: ROOT
DOCKED: ATOM      1  C   UNL     1     141.861  76.874 218.232 -0.11 -0.14    +0.274 C  
DOCKED: ATOM      2  C   UNL     1     142.779  76.506 219.426 -0.32 -0.06    +0.098 C  
DOCKED: ATOM      3  C   UNL     1     142.200  75.385 220.320 -0.24 -0.05    +0.126 C  
DOCKED: ATOM      4  N   UNL     1     140.750  75.192 220.136 -0.05 +0.09    -0.337 N  
DOCKED: ATOM      5  C   UNL     1     139.942  74.828 221.277 -0.18 -0.05    +0.281 C  
DOCKED: ATOM      6  O   UNL     1     140.493  74.309 222.286 -0.76 -0.02    -0.268 OA 
DOCKED: ATOM      7  C   UNL     1     140.178  75.111 218.778 -0.04 -0.03    +0.126 C  
DOCKED: ATOM      8  C   UNL     1     141.159  75.612 217.712 -0.05 -0.03    +0.098 C  
DOCKED: ENDROOT
DOCKED: BRANCH   1   9
DOCKED: ATOM      9  N   UNL     1     142.572  77.583 217.131 -0.19 +0.12    -0.162 N  
DOCKED: BRANCH   9  10
DOCKED: ATOM     10  C   UNL     1     143.429  76.968 216.333 -0.11 -0.28    +0.339 C  
DOCKED: BRANCH  10  11
DOCKED: ATOM     11  O   UNL     1     144.220  75.906 216.801 -0.10 +0.28    -0.463 OA 
DOCKED: ATOM     12  H   UNL     1     145.179  76.000 217.113 -0.45 -0.25    +0.299 HD 
DOCKED: ENDBRANCH  10  11
DOCKED: BRANCH  10  13
DOCKED: ATOM     13  C   UNL     1     143.621  77.377 214.883 -0.10 -0.15    +0.150 C  
DOCKED: ATOM     14  C   UNL     1     144.784  76.650 214.209 -0.15 -0.02    +0.019 C  
DOCKED: ENDBRANCH  10  13
DOCKED: ENDBRANCH   9  10
DOCKED: BRANCH   9  15
DOCKED: ATOM     15  C   UNL     1     142.404  79.010 217.012 -0.14 -0.22    +0.208 A  
DOCKED: ATOM     16  C   UNL     1     142.938  79.871 217.985 -0.24 -0.09    +0.079 A  
DOCKED: ATOM     17  C   UNL     1     141.722  79.547 215.909 -0.12 -0.07    +0.079 A  
DOCKED: ATOM     18  C   UNL     1     142.776  81.254 217.861 -0.34 -0.01    +0.007 A  
DOCKED: ATOM     19  C   UNL     1     141.564  80.932 215.788 -0.12 -0.01    +0.007 A  
DOCKED: ATOM     20  C   UNL     1     142.089  81.784 216.765 -0.21 -0.00    +0.000 A  
DOCKED: ENDBRANCH   9  15
DOCKED: ENDBRANCH   1   9
DOCKED: BRANCH   5  21
DOCKED: ATOM     21  C   UNL     1     138.452  75.124 221.315 -0.12 -0.06    +0.274 C  
DOCKED: BRANCH  21  22
DOCKED: ATOM     22  C   UNL     1     138.214  76.654 221.517 -0.18 -0.01    +0.066 C  
DOCKED: ATOM     23  C   UNL     1     138.818  77.533 220.388 -0.08 -0.01    +0.046 C  
DOCKED: ATOM     24  C   UNL     1     138.813  77.177 222.849 -0.12 -0.01    +0.046 C  
DOCKED: ATOM     25  C   UNL     1     139.939  78.236 221.054 -0.18 +0.01    -0.044 A  
DOCKED: ATOM     26  C   UNL     1     139.938  78.038 222.413 -0.34 +0.01    -0.044 A  
DOCKED: ATOM     27  C   UNL     1     140.896  79.047 220.443 -0.24 -0.00    +0.004 A  
DOCKED: ATOM     28  C   UNL     1     140.897  78.639 223.230 -0.50 -0.00    +0.004 A  
DOCKED: ATOM     29  C   UNL     1     141.875  79.657 221.244 -0.38 -0.00    +0.000 A  
DOCKED: ATOM     30  C   UNL     1     141.875  79.453 222.635 -0.55 -0.00    +0.000 A  
DOCKED: ENDBRANCH  21  22
DOCKED: BRANCH  21  31
DOCKED: ATOM     31  N   UNL     1     137.769  74.302 222.331 +0.00 +0.13    -0.347 N  
DOCKED: ATOM     32  H   UNL     1     138.459  73.653 222.775 -0.47 -0.18    +0.345 HD 
DOCKED: ATOM     33  H   UNL     1     137.025  73.714 221.892 +0.05 -0.09    +0.345 HD 
DOCKED: ATOM     34  H   UNL     1     137.335  74.888 223.079 -0.32 -0.16    +0.345 HD 
DOCKED: ENDBRANCH  21  31
DOCKED: ENDBRANCH   5  21
DOCKED: TORSDOF 8
DOCKED: TER
DOCKED: ENDMDL
________________________________________________________________________________


    FINAL DOCKED STATE:
    ________________________


Run:   2 / 20
Time taken for this run:   0.048s

DOCKED: MODEL        2
DOCKED: USER    Run = 2
DOCKED: USER
DOCKED: USER    Estimated Free Energy of Binding    =  -7.47 kcal/mol  [=(1)+(2)+(3)-(4)]
DOCKED: USER
DOCKED: USER    (1) Final Intermolecular Energy     =  -9.85 kcal/mol
DOCKED: USER        vdW + Hbond + desolv Energy     =  -8.27 kcal/mol
DOCKED: USER        Electrostatic Energy            =  -1.58 kcal/mol
DOCKED: USER        Moving Ligand-Fixed Receptor    =  -9.85 kcal/mol
DOCKED: USER        Moving Ligand-Moving Receptor   =  +0.00 kcal/mol
DOCKED: USER    (2) Final Total Internal Energy     =  -2.33 kcal/mol
DOCKED: USER    (3) Torsional Free Energy           =  +2.39 kcal/mol
DOCKED: USER    (4) Unbound System's Energy         =  -2.33 kcal/mol
DOCKED: USER
DOCKED: USER
DOCKED: REMARK SMILES CC/C(O)=[N+](/c1ccccc1)C1CCN(C(=O)[C@@H]([NH3+])C2Cc3ccccc3C2)CC1
DOCKED: REMARK SMILES IDX 12 1 13 2 14 3 15 4 16 5 17 6 29 7 30 8 5 9 3 10 4 11 2 13
DOCKED: REMARK SMILES IDX 1 14 6 15 7 16 11 17 8 18 10 19 9 20 18 21 20 22 21 23 28 24
DOCKED: REMARK SMILES IDX 22 25 27 26 23 27 26 28 24 29 25 30 19 31
DOCKED: REMARK H PARENT 4 12 19 32 19 33 19 34
DOCKED: USER                              x       y       z     vdW  Elec       q    Type
DOCKED: USER                           _______ _______ _______ _____ _____    ______ ____
DOCKED: ROOT
DOCKED: ATOM      1  C   UNL     1     141.389  75.384 219.823 -0.11 -0.09    +0.274 C  
DOCKED: ATOM      2  C   UNL     1     140.778  75.304 218.401 -0.05 -0.03    +0.098 C  
DOCKED: ATOM      3  C   UNL     1     141.481  76.228 217.379 -0.06 -0.05    +0.126 C  
DOCKED: ATOM      4  N   UNL     1     142.276  77.292 218.018 -0.11 +0.20    -0.337 N  
DOCKED: ATOM      5  C   UNL     1     142.348  78.589 217.384 -0.17 -0.25    +0.281 C  
DOCKED: ATOM      6  O   UNL     1     142.084  78.692 216.155 -0.11 +0.24    -0.268 OA 
DOCKED: ATOM      7  C   UNL     1     143.189  76.971 219.133 -0.22 -0.09    +0.126 C  
DOCKED: ATOM      8  C   UNL     1     142.906  75.585 219.723 -0.31 -0.05    +0.098 C  
DOCKED: ENDROOT
DOCKED: BRANCH   1   9
DOCKED: ATOM      9  N   UNL     1     141.060  74.210 220.680 -0.16 +0.03    -0.162 N  
DOCKED: BRANCH   9  10
DOCKED: ATOM     10  C   UNL     1     140.267  74.305 221.734 -0.12 -0.04    +0.339 C  
DOCKED: BRANCH  10  11
DOCKED: ATOM     11  O   UNL     1     140.003  73.189 222.545 -0.63 +0.04    -0.463 OA 
DOCKED: ATOM     12  H   UNL     1     139.180  73.082 223.124 -0.39 -0.13    +0.299 HD 
DOCKED: ENDBRANCH  10  11
DOCKED: BRANCH  10  13
DOCKED: ATOM     13  C   UNL     1     139.587  75.607 222.120 -0.25 -0.03    +0.150 C  
DOCKED: ATOM     14  C   UNL     1     138.202  75.763 221.494 -0.20 -0.00    +0.019 C  
DOCKED: ENDBRANCH  10  13
DOCKED: ENDBRANCH   9  10
DOCKED: BRANCH   9  15
DOCKED: ATOM     15  C   UNL     1     141.724  72.958 220.414 -0.13 -0.03    +0.208 A  
DOCKED: ATOM     16  C   UNL     1     143.045  72.749 220.843 -0.25 -0.01    +0.079 A  
DOCKED: ATOM     17  C   UNL     1     141.043  71.932 219.739 -0.08 -0.01    +0.079 A  
DOCKED: ATOM     18  C   UNL     1     143.681  71.532 220.585 -0.29 -0.00    +0.007 A  
DOCKED: ATOM     19  C   UNL     1     141.683  70.714 219.486 -0.11 -0.00    +0.007 A  
DOCKED: ATOM     20  C   UNL     1     143.002  70.515 219.907 -0.17 -0.00    +0.000 A  
DOCKED: ENDBRANCH   9  15
DOCKED: ENDBRANCH   1   9
DOCKED: BRANCH   5  21
DOCKED: ATOM     21  C   UNL     1     142.664  79.842 218.184 -0.18 -0.26    +0.274 C  
DOCKED: BRANCH  21  22
DOCKED: ATOM     22  C   UNL     1     141.472  80.191 219.129 -0.23 -0.03    +0.066 C  
DOCKED: ATOM     23  C   UNL     1     141.801  81.298 220.166 -0.21 -0.02    +0.046 C  
DOCKED: ATOM     24  C   UNL     1     140.978  78.964 219.939 -0.21 -0.02    +0.046 C  
DOCKED: ATOM     25  C   UNL     1     141.823  80.573 221.457 -0.40 +0.02    -0.044 A  
DOCKED: ATOM     26  C   UNL     1     141.370  79.283 221.332 -0.33 +0.02    -0.044 A  
DOCKED: ATOM     27  C   UNL     1     142.209  81.087 222.697 -0.54 -0.00    +0.004 A  
DOCKED: ATOM     28  C   UNL     1     141.283  78.439 222.441 -0.46 -0.00    +0.004 A  
DOCKED: ATOM     29  C   UNL     1     142.136  80.253 223.824 -0.64 -0.00    +0.000 A  
DOCKED: ATOM     30  C   UNL     1     141.674  78.931 223.696 -0.62 -0.00    +0.000 A  
DOCKED: ENDBRANCH  21  22
DOCKED: BRANCH  21  31
DOCKED: ATOM     31  N   UNL     1     143.036  80.962 217.298 +0.00 +0.45    -0.347 N  
DOCKED: ATOM     32  H   UNL     1     144.025  81.245 217.492 -0.21 -0.59    +0.345 HD 
DOCKED: ATOM     33  H   UNL     1     142.431  81.794 217.481 +0.12 -0.26    +0.345 HD 
DOCKED: ATOM     34  H   UNL     1     142.956  80.703 216.290 -0.41 -0.60    +0.345 HD 
DOCKED: ENDBRANCH  21  31
DOCKED: ENDBRANCH   5  21
DOCKED: TORSDOF 8
DOCKED: TER
DOCKED: ENDMDL
________________________________________________________________________________


    FINAL DOCKED STATE:
    ________________________


Run:   3 / 20
Time taken for this run:   0.048s

DOCKED: MODEL        3
DOCKED: USER    Run = 3
DOCKED: USER
DOCKED: USER    Estimated Free Energy of Binding    =  -7.64 kcal/mol  [=(1)+(2)+(3)-(4)]
DOCKED: USER
DOCKED: USER    (1) Final Intermolecular Energy     = -10.02 kcal/mol
DOCKED: USER        vdW + Hbond + desolv Energy     =  -8.69 kcal/mol
DOCKED: USER        Electrostatic Energy            =  -1.33 kcal/mol
DOCKED: USER        Moving Ligand-Fixed Receptor    = -10.02 kcal/mol
DOCKED: USER        Moving Ligand-Moving Receptor   =  +0.00 kcal/mol
DOCKED: USER    (2) Final Total Internal Energy     =  -1.95 kcal/mol
DOCKED: USER    (3) Torsional Free Energy           =  +2.39 kcal/mol
DOCKED: USER    (4) Unbound System's Energy         =  -1.95 kcal/mol
DOCKED: USER
DOCKED: USER
DOCKED: REMARK SMILES CC/C(O)=[N+](/c1ccccc1)C1CCN(C(=O)[C@@H]([NH3+])C2Cc3ccccc3C2)CC1
DOCKED: REMARK SMILES IDX 12 1 13 2 14 3 15 4 16 5 17 6 29 7 30 8 5 9 3 10 4 11 2 13
DOCKED: REMARK SMILES IDX 1 14 6 15 7 16 11 17 8 18 10 19 9 20 18 21 20 22 21 23 28 24
DOCKED: REMARK SMILES IDX 22 25 27 26 23 27 26 28 24 29 25 30 19 31
DOCKED: REMARK H PARENT 4 12 19 32 19 33 19 34
DOCKED: USER                              x       y       z     vdW  Elec       q    Type
DOCKED: USER                           _______ _______ _______ _____ _____    ______ ____
DOCKED: ROOT
DOCKED: ATOM      1  C   UNL     1     142.070  75.218 219.680 -0.14 -0.10    +0.274 C  
DOCKED: ATOM      2  C   UNL     1     140.868  75.171 218.703 -0.06 -0.03    +0.098 C  
DOCKED: ATOM      3  C   UNL     1     140.942  76.241 217.588 -0.04 -0.05    +0.126 C  
DOCKED: ATOM      4  N   UNL     1     141.870  77.341 217.908 -0.07 +0.19    -0.337 N  
DOCKED: ATOM      5  C   UNL     1     141.547  78.679 217.470 -0.11 -0.18    +0.281 C  
DOCKED: ATOM      6  O   UNL     1     140.728  78.840 216.524 -0.03 +0.14    -0.268 OA 
DOCKED: ATOM      7  C   UNL     1     143.220  77.047 218.427 -0.21 -0.09    +0.126 C  
DOCKED: ATOM      8  C   UNL     1     143.343  75.599 218.914 -0.28 -0.05    +0.098 C  
DOCKED: ENDROOT
DOCKED: BRANCH   1   9
DOCKED: ATOM      9  N   UNL     1     142.264  73.955 220.447 -0.19 +0.04    -0.162 N  
DOCKED: BRANCH   9  10
DOCKED: ATOM     10  C   UNL     1     141.372  73.514 221.318 -0.12 -0.04    +0.339 C  
DOCKED: BRANCH  10  11
DOCKED: ATOM     11  O   UNL     1     140.553  74.406 222.030 -0.67 +0.01    -0.463 OA 
DOCKED: ATOM     12  H   UNL     1     139.759  74.130 222.594 -0.12 -0.01    +0.299 HD 
DOCKED: ENDBRANCH  10  11
DOCKED: BRANCH  10  13
DOCKED: ATOM     13  C   UNL     1     141.190  72.034 221.611 -0.20 -0.01    +0.150 C  
DOCKED: ATOM     14  C   UNL     1     140.362  71.775 222.869 -0.34 -0.00    +0.019 C  
DOCKED: ENDBRANCH  10  13
DOCKED: ENDBRANCH   9  10
DOCKED: BRANCH   9  15
DOCKED: ATOM     15  C   UNL     1     143.520  73.259 220.318 -0.23 -0.04    +0.208 A  
DOCKED: ATOM     16  C   UNL     1     144.663  73.725 220.989 -0.38 -0.02    +0.079 A  
DOCKED: ATOM     17  C   UNL     1     143.602  72.097 219.534 -0.18 -0.01    +0.079 A  
DOCKED: ATOM     18  C   UNL     1     145.877  73.043 220.862 -0.65 -0.00    +0.007 A  
DOCKED: ATOM     19  C   UNL     1     144.817  71.416 219.412 -0.28 +0.00    +0.007 A  
DOCKED: ATOM     20  C   UNL     1     145.954  71.890 220.074 -0.27 +0.00    +0.000 A  
DOCKED: ENDBRANCH   9  15
DOCKED: ENDBRANCH   1   9
DOCKED: BRANCH   5  21
DOCKED: ATOM     21  C   UNL     1     142.117  79.900 218.174 -0.20 -0.21    +0.274 C  
DOCKED: BRANCH  21  22
DOCKED: ATOM     22  C   UNL     1     141.153  80.361 219.312 -0.21 -0.03    +0.066 C  
DOCKED: ATOM     23  C   UNL     1     141.824  81.296 220.355 -0.22 -0.02    +0.046 C  
DOCKED: ATOM     24  C   UNL     1     140.560  79.170 220.108 -0.17 -0.02    +0.046 C  
DOCKED: ATOM     25  C   UNL     1     141.891  80.464 221.578 -0.41 +0.02    -0.044 A  
DOCKED: ATOM     26  C   UNL     1     141.195  79.288 221.441 -0.32 +0.02    -0.044 A  
DOCKED: ATOM     27  C   UNL     1     142.535  80.788 222.774 -0.59 -0.00    +0.004 A  
DOCKED: ATOM     28  C   UNL     1     141.110  78.374 222.493 -0.46 -0.00    +0.004 A  
DOCKED: ATOM     29  C   UNL     1     142.469  79.880 223.843 -0.61 -0.00    +0.000 A  
DOCKED: ATOM     30  C   UNL     1     141.757  78.675 223.702 -0.61 -0.00    +0.000 A  
DOCKED: ENDBRANCH  21  22
DOCKED: BRANCH  21  31
DOCKED: ATOM     31  N   UNL     1     142.423  80.977 217.213 -0.13 +0.34    -0.347 N  
DOCKED: ATOM     32  H   UNL     1     142.286  81.905 217.677 +0.12 -0.23    +0.345 HD 
DOCKED: ATOM     33  H   UNL     1     141.774  80.937 216.395 +0.07 -0.28    +0.345 HD 
DOCKED: ATOM     34  H   UNL     1     143.406  80.920 216.865 -0.37 -0.67    +0.345 HD 
DOCKED: ENDBRANCH  21  31
DOCKED: ENDBRANCH   5  21
DOCKED: TORSDOF 8
DOCKED: TER
DOCKED: ENDMDL
________________________________________________________________________________


    FINAL DOCKED STATE:
    ________________________


Run:   4 / 20
Time taken for this run:   0.048s

DOCKED: MODEL        4
DOCKED: USER    Run = 4
DOCKED: USER
DOCKED: USER    Estimated Free Energy of Binding    =  -7.32 kcal/mol  [=(1)+(2)+(3)-(4)]
DOCKED: USER
DOCKED: USER    (1) Final Intermolecular Energy     =  -9.70 kcal/mol
DOCKED: USER        vdW + Hbond + desolv Energy     =  -8.05 kcal/mol
DOCKED: USER        Electrostatic Energy            =  -1.65 kcal/mol
DOCKED: USER        Moving Ligand-Fixed Receptor    =  -9.70 kcal/mol
DOCKED: USER        Moving Ligand-Moving Receptor   =  +0.00 kcal/mol
DOCKED: USER    (2) Final Total Internal Energy     =  -2.12 kcal/mol
DOCKED: USER    (3) Torsional Free Energy           =  +2.39 kcal/mol
DOCKED: USER    (4) Unbound System's Energy         =  -2.12 kcal/mol
DOCKED: USER
DOCKED: USER
DOCKED: REMARK SMILES CC/C(O)=[N+](/c1ccccc1)C1CCN(C(=O)[C@@H]([NH3+])C2Cc3ccccc3C2)CC1
DOCKED: REMARK SMILES IDX 12 1 13 2 14 3 15 4 16 5 17 6 29 7 30 8 5 9 3 10 4 11 2 13
DOCKED: REMARK SMILES IDX 1 14 6 15 7 16 11 17 8 18 10 19 9 20 18 21 20 22 21 23 28 24
DOCKED: REMARK SMILES IDX 22 25 27 26 23 27 26 28 24 29 25 30 19 31
DOCKED: REMARK H PARENT 4 12 19 32 19 33 19 34
DOCKED: USER                              x       y       z     vdW  Elec       q    Type
DOCKED: USER                           _______ _______ _______ _____ _____    ______ ____
DOCKED: ROOT
DOCKED: ATOM      1  C   UNL     1     142.270  74.483 219.745 -0.13 -0.08    +0.274 C  
DOCKED: ATOM      2  C   UNL     1     141.485  74.382 218.412 -0.05 -0.03    +0.098 C  
DOCKED: ATOM      3  C   UNL     1     141.888  75.462 217.381 -0.06 -0.05    +0.126 C  
DOCKED: ATOM      4  N   UNL     1     142.593  76.605 217.990 -0.11 +0.19    -0.337 N  
DOCKED: ATOM      5  C   UNL     1     142.376  77.928 217.451 -0.17 -0.21    +0.281 C  
DOCKED: ATOM      6  O   UNL     1     141.929  78.054 216.278 -0.10 +0.19    -0.268 OA 
DOCKED: ATOM      7  C   UNL     1     143.691  76.376 218.948 -0.15 -0.09    +0.126 C  
DOCKED: ATOM      8  C   UNL     1     143.709  74.933 219.464 -0.31 -0.04    +0.098 C  
DOCKED: ENDROOT
DOCKED: BRANCH   1   9
DOCKED: ATOM      9  N   UNL     1     142.248  73.227 220.546 -0.17 +0.03    -0.162 N  
DOCKED: BRANCH   9  10
DOCKED: ATOM     10  C   UNL     1     143.245  72.357 220.523 -0.13 -0.05    +0.339 C  
DOCKED: BRANCH  10  11
DOCKED: ATOM     11  O   UNL     1     144.440  72.608 221.218 -0.13 +0.10    -0.463 OA 
DOCKED: ATOM     12  H   UNL     1     145.027  71.891 221.625 -0.34 -0.19    +0.299 HD 
DOCKED: ENDBRANCH  10  11
DOCKED: BRANCH  10  13
DOCKED: ATOM     13  C   UNL     1     143.168  71.059 219.739 -0.15 -0.01    +0.150 C  
DOCKED: ATOM     14  C   UNL     1     144.541  70.535 219.320 -0.25 +0.00    +0.019 C  
DOCKED: ENDBRANCH  10  13
DOCKED: ENDBRANCH   9  10
DOCKED: BRANCH   9  15
DOCKED: ATOM     15  C   UNL     1     141.048  72.897 221.274 -0.19 -0.03    +0.208 A  
DOCKED: ATOM     16  C   UNL     1     140.999  71.748 222.080 -0.22 -0.01    +0.079 A  
DOCKED: ATOM     17  C   UNL     1     139.927  73.738 221.196 -0.21 -0.01    +0.079 A  
DOCKED: ATOM     18  C   UNL     1     139.833  71.437 222.786 -0.31 -0.00    +0.007 A  
DOCKED: ATOM     19  C   UNL     1     138.764  73.425 221.908 -0.20 -0.00    +0.007 A  
DOCKED: ATOM     20  C   UNL     1     138.716  72.274 222.700 -0.17 -0.00    +0.000 A  
DOCKED: ENDBRANCH   9  15
DOCKED: ENDBRANCH   1   9
DOCKED: BRANCH   5  21
DOCKED: ATOM     21  C   UNL     1     142.605  79.171 218.296 -0.17 -0.24    +0.274 C  
DOCKED: BRANCH  21  22
DOCKED: ATOM     22  C   UNL     1     141.369  79.433 219.212 -0.22 -0.03    +0.066 C  
DOCKED: ATOM     23  C   UNL     1     141.516  80.690 220.113 -0.29 -0.02    +0.046 C  
DOCKED: ATOM     24  C   UNL     1     141.071  78.244 220.162 -0.23 -0.02    +0.046 C  
DOCKED: ATOM     25  C   UNL     1     141.646  80.128 221.477 -0.38 +0.02    -0.044 A  
DOCKED: ATOM     26  C   UNL     1     141.403  78.777 221.505 -0.35 +0.02    -0.044 A  
DOCKED: ATOM     27  C   UNL     1     141.942  80.833 222.646 -0.55 -0.00    +0.004 A  
DOCKED: ATOM     28  C   UNL     1     141.445  78.061 222.703 -0.45 -0.00    +0.004 A  
DOCKED: ATOM     29  C   UNL     1     141.997  80.132 223.861 -0.62 -0.00    +0.000 A  
DOCKED: ATOM     30  C   UNL     1     141.749  78.748 223.889 -0.61 -0.00    +0.000 A  
DOCKED: ENDBRANCH  21  22
DOCKED: BRANCH  21  31
DOCKED: ATOM     31  N   UNL     1     142.948  80.333 217.454 -0.04 +0.46    -0.347 N  
DOCKED: ATOM     32  H   UNL     1     142.872  80.067 216.445 -0.39 -0.61    +0.345 HD 
DOCKED: ATOM     33  H   UNL     1     143.934  80.634 217.624 -0.31 -0.66    +0.345 HD 
DOCKED: ATOM     34  H   UNL     1     142.314  81.144 217.634 +0.11 -0.28    +0.345 HD 
DOCKED: ENDBRANCH  21  31
DOCKED: ENDBRANCH   5  21
DOCKED: TORSDOF 8
DOCKED: TER
DOCKED: ENDMDL
________________________________________________________________________________


    FINAL DOCKED STATE:
    ________________________


Run:   5 / 20
Time taken for this run:   0.048s

DOCKED: MODEL        5
DOCKED: USER    Run = 5
DOCKED: USER
DOCKED: USER    Estimated Free Energy of Binding    =  -7.68 kcal/mol  [=(1)+(2)+(3)-(4)]
DOCKED: USER
DOCKED: USER    (1) Final Intermolecular Energy     = -10.07 kcal/mol
DOCKED: USER        vdW + Hbond + desolv Energy     =  -8.74 kcal/mol
DOCKED: USER        Electrostatic Energy            =  -1.33 kcal/mol
DOCKED: USER        Moving Ligand-Fixed Receptor    = -10.07 kcal/mol
DOCKED: USER        Moving Ligand-Moving Receptor   =  +0.00 kcal/mol
DOCKED: USER    (2) Final Total Internal Energy     =  -1.99 kcal/mol
DOCKED: USER    (3) Torsional Free Energy           =  +2.39 kcal/mol
DOCKED: USER    (4) Unbound System's Energy         =  -1.99 kcal/mol
DOCKED: USER
DOCKED: USER
DOCKED: REMARK SMILES CC/C(O)=[N+](/c1ccccc1)C1CCN(C(=O)[C@@H]([NH3+])C2Cc3ccccc3C2)CC1
DOCKED: REMARK SMILES IDX 12 1 13 2 14 3 15 4 16 5 17 6 29 7 30 8 5 9 3 10 4 11 2 13
DOCKED: REMARK SMILES IDX 1 14 6 15 7 16 11 17 8 18 10 19 9 20 18 21 20 22 21 23 28 24
DOCKED: REMARK SMILES IDX 22 25 27 26 23 27 26 28 24 29 25 30 19 31
DOCKED: REMARK H PARENT 4 12 19 32 19 33 19 34
DOCKED: USER                              x       y       z     vdW  Elec       q    Type
DOCKED: USER                           _______ _______ _______ _____ _____    ______ ____
DOCKED: ROOT
DOCKED: ATOM      1  C   UNL     1     142.077  75.230 219.683 -0.14 -0.10    +0.274 C  
DOCKED: ATOM      2  C   UNL     1     140.892  75.182 218.686 -0.06 -0.03    +0.098 C  
DOCKED: ATOM      3  C   UNL     1     140.982  76.254 217.575 -0.04 -0.05    +0.126 C  
DOCKED: ATOM      4  N   UNL     1     141.902  77.356 217.913 -0.07 +0.19    -0.337 N  
DOCKED: ATOM      5  C   UNL     1     141.582  78.694 217.472 -0.12 -0.18    +0.281 C  
DOCKED: ATOM      6  O   UNL     1     140.779  78.855 216.513 -0.04 +0.14    -0.268 OA 
DOCKED: ATOM      7  C   UNL     1     143.243  77.064 218.454 -0.21 -0.09    +0.126 C  
DOCKED: ATOM      8  C   UNL     1     143.362  75.616 218.940 -0.28 -0.05    +0.098 C  
DOCKED: ENDROOT
DOCKED: BRANCH   1   9
DOCKED: ATOM      9  N   UNL     1     142.262  73.965 220.451 -0.19 +0.04    -0.162 N  
DOCKED: BRANCH   9  10
DOCKED: ATOM     10  C   UNL     1     141.362  73.526 221.315 -0.12 -0.04    +0.339 C  
DOCKED: BRANCH  10  11
DOCKED: ATOM     11  O   UNL     1     140.513  74.418 221.991 -0.69 +0.02    -0.463 OA 
DOCKED: ATOM     12  H   UNL     1     139.745  74.137 222.589 -0.13 -0.01    +0.299 HD 
DOCKED: ENDBRANCH  10  11
DOCKED: BRANCH  10  13
DOCKED: ATOM     13  C   UNL     1     141.203  72.051 221.638 -0.19 -0.01    +0.150 C  
DOCKED: ATOM     14  C   UNL     1     140.396  71.805 222.913 -0.33 -0.00    +0.019 C  
DOCKED: ENDBRANCH  10  13
DOCKED: ENDBRANCH   9  10
DOCKED: BRANCH   9  15
DOCKED: ATOM     15  C   UNL     1     143.517  73.266 220.330 -0.23 -0.04    +0.208 A  
DOCKED: ATOM     16  C   UNL     1     143.615  72.115 219.531 -0.18 -0.01    +0.079 A  
DOCKED: ATOM     17  C   UNL     1     144.655  73.746 220.998 -0.37 -0.02    +0.079 A  
DOCKED: ATOM     18  C   UNL     1     144.836  71.444 219.416 -0.29 +0.00    +0.007 A  
DOCKED: ATOM     19  C   UNL     1     145.875  73.073 220.877 -0.66 -0.00    +0.007 A  
DOCKED: ATOM     20  C   UNL     1     145.965  71.922 220.089 -0.28 +0.00    +0.000 A  
DOCKED: ENDBRANCH   9  15
DOCKED: ENDBRANCH   1   9
DOCKED: BRANCH   5  21
DOCKED: ATOM     21  C   UNL     1     142.137  79.914 218.188 -0.20 -0.21    +0.274 C  
DOCKED: BRANCH  21  22
DOCKED: ATOM     22  C   UNL     1     141.167  80.355 219.329 -0.21 -0.03    +0.066 C  
DOCKED: ATOM     23  C   UNL     1     141.820  81.302 220.372 -0.22 -0.02    +0.046 C  
DOCKED: ATOM     24  C   UNL     1     140.600  79.150 220.124 -0.18 -0.02    +0.046 C  
DOCKED: ATOM     25  C   UNL     1     141.907  80.469 221.594 -0.41 +0.02    -0.044 A  
DOCKED: ATOM     26  C   UNL     1     141.235  79.280 221.457 -0.33 +0.02    -0.044 A  
DOCKED: ATOM     27  C   UNL     1     142.547  80.804 222.789 -0.59 -0.00    +0.004 A  
DOCKED: ATOM     28  C   UNL     1     141.171  78.363 222.508 -0.47 -0.00    +0.004 A  
DOCKED: ATOM     29  C   UNL     1     142.502  79.894 223.856 -0.60 -0.00    +0.000 A  
DOCKED: ATOM     30  C   UNL     1     141.815  78.675 223.716 -0.62 -0.00    +0.000 A  
DOCKED: ENDBRANCH  21  22
DOCKED: BRANCH  21  31
DOCKED: ATOM     31  N   UNL     1     142.432  81.004 217.238 -0.13 +0.33    -0.347 N  
DOCKED: ATOM     32  H   UNL     1     141.777  80.943 216.424 +0.07 -0.27    +0.345 HD 
DOCKED: ATOM     33  H   UNL     1     143.404  80.915 216.865 -0.37 -0.67    +0.345 HD 
DOCKED: ATOM     34  H   UNL     1     142.327  81.944 217.680 +0.12 -0.23    +0.345 HD 
DOCKED: ENDBRANCH  21  31
DOCKED: ENDBRANCH   5  21
DOCKED: TORSDOF 8
DOCKED: TER
DOCKED: ENDMDL
________________________________________________________________________________


    FINAL DOCKED STATE:
    ________________________


Run:   6 / 20
Time taken for this run:   0.048s

DOCKED: MODEL        6
DOCKED: USER    Run = 6
DOCKED: USER
DOCKED: USER    Estimated Free Energy of Binding    =  -7.57 kcal/mol  [=(1)+(2)+(3)-(4)]
DOCKED: USER
DOCKED: USER    (1) Final Intermolecular Energy     =  -9.95 kcal/mol
DOCKED: USER        vdW + Hbond + desolv Energy     =  -8.34 kcal/mol
DOCKED: USER        Electrostatic Energy            =  -1.61 kcal/mol
DOCKED: USER        Moving Ligand-Fixed Receptor    =  -9.95 kcal/mol
DOCKED: USER        Moving Ligand-Moving Receptor   =  +0.00 kcal/mol
DOCKED: USER    (2) Final Total Internal Energy     =  -2.25 kcal/mol
DOCKED: USER    (3) Torsional Free Energy           =  +2.39 kcal/mol
DOCKED: USER    (4) Unbound System's Energy         =  -2.25 kcal/mol
DOCKED: USER
DOCKED: USER
DOCKED: REMARK SMILES CC/C(O)=[N+](/c1ccccc1)C1CCN(C(=O)[C@@H]([NH3+])C2Cc3ccccc3C2)CC1
DOCKED: REMARK SMILES IDX 12 1 13 2 14 3 15 4 16 5 17 6 29 7 30 8 5 9 3 10 4 11 2 13
DOCKED: REMARK SMILES IDX 1 14 6 15 7 16 11 17 8 18 10 19 9 20 18 21 20 22 21 23 28 24
DOCKED: REMARK SMILES IDX 22 25 27 26 23 27 26 28 24 29 25 30 19 31
DOCKED: REMARK H PARENT 4 12 19 32 19 33 19 34
DOCKED: USER                              x       y       z     vdW  Elec       q    Type
DOCKED: USER                           _______ _______ _______ _____ _____    ______ ____
DOCKED: ROOT
DOCKED: ATOM      1  C   UNL     1     141.348  75.265 219.728 -0.10 -0.09    +0.274 C  
DOCKED: ATOM      2  C   UNL     1     140.725  75.243 218.308 -0.04 -0.03    +0.098 C  
DOCKED: ATOM      3  C   UNL     1     141.433  76.192 217.314 -0.06 -0.05    +0.126 C  
DOCKED: ATOM      4  N   UNL     1     142.249  77.222 217.983 -0.11 +0.20    -0.337 N  
DOCKED: ATOM      5  C   UNL     1     142.335  78.538 217.393 -0.17 -0.24    +0.281 C  
DOCKED: ATOM      6  O   UNL     1     142.063  78.688 216.170 -0.11 +0.24    -0.268 OA 
DOCKED: ATOM      7  C   UNL     1     143.166  76.849 219.077 -0.27 -0.09    +0.126 C  
DOCKED: ATOM      8  C   UNL     1     142.867  75.448 219.622 -0.30 -0.05    +0.098 C  
DOCKED: ENDROOT
DOCKED: BRANCH   1   9
DOCKED: ATOM      9  N   UNL     1     141.008  74.067 220.546 -0.14 +0.03    -0.162 N  
DOCKED: BRANCH   9  10
DOCKED: ATOM     10  C   UNL     1     140.124  74.111 221.529 -0.17 -0.05    +0.339 C  
DOCKED: BRANCH  10  11
DOCKED: ATOM     11  O   UNL     1     140.289  73.330 222.685 -0.62 -0.01    -0.463 OA 
DOCKED: ATOM     12  H   UNL     1     139.596  73.237 223.418 -0.34 -0.09    +0.299 HD 
DOCKED: ENDBRANCH  10  11
DOCKED: BRANCH  10  13
DOCKED: ATOM     13  C   UNL     1     138.883  74.983 221.463 -0.19 -0.03    +0.150 C  
DOCKED: ATOM     14  C   UNL     1     138.991  76.236 222.332 -0.32 -0.00    +0.019 C  
DOCKED: ENDBRANCH  10  13
DOCKED: ENDBRANCH   9  10
DOCKED: BRANCH   9  15
DOCKED: ATOM     15  C   UNL     1     141.757  72.853 220.330 -0.13 -0.03    +0.208 A  
DOCKED: ATOM     16  C   UNL     1     143.052  72.715 220.853 -0.24 -0.01    +0.079 A  
DOCKED: ATOM     17  C   UNL     1     141.183  71.793 219.611 -0.08 -0.01    +0.079 A  
DOCKED: ATOM     18  C   UNL     1     143.771  71.534 220.644 -0.28 -0.00    +0.007 A  
DOCKED: ATOM     19  C   UNL     1     141.904  70.612 219.406 -0.11 -0.00    +0.007 A  
DOCKED: ATOM     20  C   UNL     1     143.197  70.484 219.920 -0.18 -0.00    +0.000 A  
DOCKED: ENDBRANCH   9  15
DOCKED: ENDBRANCH   1   9
DOCKED: BRANCH   5  21
DOCKED: ATOM     21  C   UNL     1     142.676  79.758 218.233 -0.17 -0.25    +0.274 C  
DOCKED: BRANCH  21  22
DOCKED: ATOM     22  C   UNL     1     141.494  80.095 219.195 -0.24 -0.03    +0.066 C  
DOCKED: ATOM     23  C   UNL     1     141.813  81.234 220.201 -0.22 -0.02    +0.046 C  
DOCKED: ATOM     24  C   UNL     1     141.050  78.873 220.041 -0.22 -0.02    +0.046 C  
DOCKED: ATOM     25  C   UNL     1     141.880  80.538 221.507 -0.40 +0.02    -0.044 A  
DOCKED: ATOM     26  C   UNL     1     141.461  79.233 221.419 -0.35 +0.02    -0.044 A  
DOCKED: ATOM     27  C   UNL     1     142.277  81.088 222.727 -0.53 -0.00    +0.004 A  
DOCKED: ATOM     28  C   UNL     1     141.419  78.411 222.546 -0.48 -0.00    +0.004 A  
DOCKED: ATOM     29  C   UNL     1     142.250  80.278 223.873 -0.64 -0.00    +0.000 A  
DOCKED: ATOM     30  C   UNL     1     141.822  78.941 223.782 -0.63 -0.00    +0.000 A  
DOCKED: ENDBRANCH  21  22
DOCKED: BRANCH  21  31
DOCKED: ATOM     31  N   UNL     1     143.063  80.901 217.384 -0.01 +0.45    -0.347 N  
DOCKED: ATOM     32  H   UNL     1     144.067  81.141 217.560 -0.21 -0.60    +0.345 HD 
DOCKED: ATOM     33  H   UNL     1     142.494  81.745 217.619 +0.12 -0.26    +0.345 HD 
DOCKED: ATOM     34  H   UNL     1     142.945  80.688 216.368 -0.40 -0.59    +0.345 HD 
DOCKED: ENDBRANCH  21  31
DOCKED: ENDBRANCH   5  21
DOCKED: TORSDOF 8
DOCKED: TER
DOCKED: ENDMDL
________________________________________________________________________________


    FINAL DOCKED STATE:
    ________________________


Run:   7 / 20
Time taken for this run:   0.048s

DOCKED: MODEL        7
DOCKED: USER    Run = 7
DOCKED: USER
DOCKED: USER    Estimated Free Energy of Binding    =  -7.87 kcal/mol  [=(1)+(2)+(3)-(4)]
DOCKED: USER
DOCKED: USER    (1) Final Intermolecular Energy     = -10.25 kcal/mol
DOCKED: USER        vdW + Hbond + desolv Energy     =  -8.64 kcal/mol
DOCKED: USER        Electrostatic Energy            =  -1.61 kcal/mol
DOCKED: USER        Moving Ligand-Fixed Receptor    = -10.25 kcal/mol
DOCKED: USER        Moving Ligand-Moving Receptor   =  +0.00 kcal/mol
DOCKED: USER    (2) Final Total Internal Energy     =  -2.14 kcal/mol
DOCKED: USER    (3) Torsional Free Energy           =  +2.39 kcal/mol
DOCKED: USER    (4) Unbound System's Energy         =  -2.14 kcal/mol
DOCKED: USER
DOCKED: USER
DOCKED: REMARK SMILES CC/C(O)=[N+](/c1ccccc1)C1CCN(C(=O)[C@@H]([NH3+])C2Cc3ccccc3C2)CC1
DOCKED: REMARK SMILES IDX 12 1 13 2 14 3 15 4 16 5 17 6 29 7 30 8 5 9 3 10 4 11 2 13
DOCKED: REMARK SMILES IDX 1 14 6 15 7 16 11 17 8 18 10 19 9 20 18 21 20 22 21 23 28 24
DOCKED: REMARK SMILES IDX 22 25 27 26 23 27 26 28 24 29 25 30 19 31
DOCKED: REMARK H PARENT 4 12 19 32 19 33 19 34
DOCKED: USER                              x       y       z     vdW  Elec       q    Type
DOCKED: USER                           _______ _______ _______ _____ _____    ______ ____
DOCKED: ROOT
DOCKED: ATOM      1  C   UNL     1     141.592  74.560 219.824 -0.10 -0.08    +0.274 C  
DOCKED: ATOM      2  C   UNL     1     140.876  74.522 218.449 -0.04 -0.03    +0.098 C  
DOCKED: ATOM      3  C   UNL     1     141.462  75.521 217.425 -0.04 -0.04    +0.126 C  
DOCKED: ATOM      4  N   UNL     1     142.265  76.586 218.055 -0.08 +0.17    -0.337 N  
DOCKED: ATOM      5  C   UNL     1     142.239  77.913 217.483 -0.16 -0.20    +0.281 C  
DOCKED: ATOM      6  O   UNL     1     141.876  78.063 216.284 -0.09 +0.19    -0.268 OA 
DOCKED: ATOM      7  C   UNL     1     143.273  76.250 219.079 -0.31 -0.08    +0.126 C  
DOCKED: ATOM      8  C   UNL     1     143.088  74.827 219.619 -0.28 -0.04    +0.098 C  
DOCKED: ENDROOT
DOCKED: BRANCH   1   9
DOCKED: ATOM      9  N   UNL     1     141.374  73.334 220.642 -0.15 +0.03    -0.162 N  
DOCKED: BRANCH   9  10
DOCKED: ATOM     10  C   UNL     1     140.710  73.357 221.786 -0.15 -0.03    +0.339 C  
DOCKED: BRANCH  10  11
DOCKED: ATOM     11  O   UNL     1     139.989  74.497 222.181 -0.72 +0.03    -0.463 OA 
DOCKED: ATOM     12  H   UNL     1     139.193  74.483 222.806 -0.43 -0.08    +0.299 HD 
DOCKED: ENDBRANCH  10  11
DOCKED: BRANCH  10  13
DOCKED: ATOM     13  C   UNL     1     140.700  72.176 222.741 -0.23 -0.01    +0.150 C  
DOCKED: ATOM     14  C   UNL     1     139.328  71.511 222.850 -0.29 -0.00    +0.019 C  
DOCKED: ENDBRANCH  10  13
DOCKED: ENDBRANCH   9  10
DOCKED: BRANCH   9  15
DOCKED: ATOM     15  C   UNL     1     142.012  72.109 220.228 -0.12 -0.03    +0.208 A  
DOCKED: ATOM     16  C   UNL     1     141.281  71.123 219.545 -0.08 -0.01    +0.079 A  
DOCKED: ATOM     17  C   UNL     1     143.376  71.905 220.489 -0.25 -0.01    +0.079 A  
DOCKED: ATOM     18  C   UNL     1     141.907  69.939 219.143 -0.11 -0.00    +0.007 A  
DOCKED: ATOM     19  C   UNL     1     144.000  70.721 220.081 -0.24 -0.00    +0.007 A  
DOCKED: ATOM     20  C   UNL     1     143.265  69.738 219.411 -0.20 -0.00    +0.000 A  
DOCKED: ENDBRANCH   9  15
DOCKED: ENDBRANCH   1   9
DOCKED: BRANCH   5  21
DOCKED: ATOM     21  C   UNL     1     142.569  79.139 218.318 -0.19 -0.24    +0.274 C  
DOCKED: BRANCH  21  22
DOCKED: ATOM     22  C   UNL     1     141.379  79.476 219.270 -0.22 -0.03    +0.066 C  
DOCKED: ATOM     23  C   UNL     1     141.640  80.705 220.183 -0.29 -0.02    +0.046 C  
DOCKED: ATOM     24  C   UNL     1     141.018  78.298 220.212 -0.22 -0.02    +0.046 C  
DOCKED: ATOM     25  C   UNL     1     141.762  80.115 221.536 -0.40 +0.02    -0.044 A  
DOCKED: ATOM     26  C   UNL     1     141.421  78.785 221.552 -0.36 +0.02    -0.044 A  
DOCKED: ATOM     27  C   UNL     1     142.138  80.779 222.706 -0.58 -0.00    +0.004 A  
DOCKED: ATOM     28  C   UNL     1     141.441  78.050 222.739 -0.45 -0.00    +0.004 A  
DOCKED: ATOM     29  C   UNL     1     142.172  80.058 223.909 -0.62 -0.00    +0.000 A  
DOCKED: ATOM     30  C   UNL     1     141.824  78.695 223.926 -0.61 -0.00    +0.000 A  
DOCKED: ENDBRANCH  21  22
DOCKED: BRANCH  21  31
DOCKED: ATOM     31  N   UNL     1     142.959  80.278 217.466 -0.02 +0.46    -0.347 N  
DOCKED: ATOM     32  H   UNL     1     142.892  79.998 216.459 -0.40 -0.62    +0.345 HD 
DOCKED: ATOM     33  H   UNL     1     143.950  80.553 217.648 -0.32 -0.67    +0.345 HD 
DOCKED: ATOM     34  H   UNL     1     142.345  81.108 217.622 +0.10 -0.28    +0.345 HD 
DOCKED: ENDBRANCH  21  31
DOCKED: ENDBRANCH   5  21
DOCKED: TORSDOF 8
DOCKED: TER
DOCKED: ENDMDL
________________________________________________________________________________


    FINAL DOCKED STATE:
    ________________________


Run:   8 / 20
Time taken for this run:   0.048s

DOCKED: MODEL        8
DOCKED: USER    Run = 8
DOCKED: USER
DOCKED: USER    Estimated Free Energy of Binding    =  -6.39 kcal/mol  [=(1)+(2)+(3)-(4)]
DOCKED: USER
DOCKED: USER    (1) Final Intermolecular Energy     =  -8.77 kcal/mol
DOCKED: USER        vdW + Hbond + desolv Energy     =  -7.43 kcal/mol
DOCKED: USER        Electrostatic Energy            =  -1.34 kcal/mol
DOCKED: USER        Moving Ligand-Fixed Receptor    =  -8.77 kcal/mol
DOCKED: USER        Moving Ligand-Moving Receptor   =  +0.00 kcal/mol
DOCKED: USER    (2) Final Total Internal Energy     =  -2.93 kcal/mol
DOCKED: USER    (3) Torsional Free Energy           =  +2.39 kcal/mol
DOCKED: USER    (4) Unbound System's Energy         =  -2.93 kcal/mol
DOCKED: USER
DOCKED: USER
DOCKED: REMARK SMILES CC/C(O)=[N+](/c1ccccc1)C1CCN(C(=O)[C@@H]([NH3+])C2Cc3ccccc3C2)CC1
DOCKED: REMARK SMILES IDX 12 1 13 2 14 3 15 4 16 5 17 6 29 7 30 8 5 9 3 10 4 11 2 13
DOCKED: REMARK SMILES IDX 1 14 6 15 7 16 11 17 8 18 10 19 9 20 18 21 20 22 21 23 28 24
DOCKED: REMARK SMILES IDX 22 25 27 26 23 27 26 28 24 29 25 30 19 31
DOCKED: REMARK H PARENT 4 12 19 32 19 33 19 34
DOCKED: USER                              x       y       z     vdW  Elec       q    Type
DOCKED: USER                           _______ _______ _______ _____ _____    ______ ____
DOCKED: ROOT
DOCKED: ATOM      1  C   UNL     1     141.889  76.615 218.260 -0.11 -0.13    +0.274 C  
DOCKED: ATOM      2  C   UNL     1     142.792  76.273 219.472 -0.31 -0.06    +0.098 C  
DOCKED: ATOM      3  C   UNL     1     142.209  75.162 220.376 -0.25 -0.05    +0.126 C  
DOCKED: ATOM      4  N   UNL     1     140.764  74.955 220.173 -0.05 +0.09    -0.337 N  
DOCKED: ATOM      5  C   UNL     1     139.942  74.602 221.308 -0.18 -0.05    +0.281 C  
DOCKED: ATOM      6  O   UNL     1     140.482  74.103 222.333 -0.79 -0.02    -0.268 OA 
DOCKED: ATOM      7  C   UNL     1     140.212  74.848 218.809 -0.03 -0.03    +0.126 C  
DOCKED: ATOM      8  C   UNL     1     141.204  75.341 217.750 -0.04 -0.03    +0.098 C  
DOCKED: ENDROOT
DOCKED: BRANCH   1   9
DOCKED: ATOM      9  N   UNL     1     142.610  77.313 217.158 -0.18 +0.11    -0.162 N  
DOCKED: BRANCH   9  10
DOCKED: ATOM     10  C   UNL     1     143.490  76.695 216.388 -0.12 -0.25    +0.339 C  
DOCKED: BRANCH  10  11
DOCKED: ATOM     11  O   UNL     1     144.251  75.620 216.877 -0.08 +0.26    -0.463 OA 
DOCKED: ATOM     12  H   UNL     1     145.159  75.712 217.314 -0.46 -0.27    +0.299 HD 
DOCKED: ENDBRANCH  10  11
DOCKED: BRANCH  10  13
DOCKED: ATOM     13  C   UNL     1     143.743  77.115 214.950 -0.13 -0.14    +0.150 C  
DOCKED: ATOM     14  C   UNL     1     144.914  76.369 214.311 -0.17 -0.01    +0.019 C  
DOCKED: ENDBRANCH  10  13
DOCKED: ENDBRANCH   9  10
DOCKED: BRANCH   9  15
DOCKED: ATOM     15  C   UNL     1     142.426  78.735 217.009 -0.16 -0.21    +0.208 A  
DOCKED: ATOM     16  C   UNL     1     141.713  79.248 215.913 -0.12 -0.07    +0.079 A  
DOCKED: ATOM     17  C   UNL     1     142.943  79.615 217.973 -0.23 -0.09    +0.079 A  
DOCKED: ATOM     18  C   UNL     1     141.535  80.628 215.777 -0.11 -0.01    +0.007 A  
DOCKED: ATOM     19  C   UNL     1     142.759  80.995 217.835 -0.35 -0.01    +0.007 A  
DOCKED: ATOM     20  C   UNL     1     142.058  81.501 216.736 -0.20 -0.00    +0.000 A  
DOCKED: ENDBRANCH   9  15
DOCKED: ENDBRANCH   1   9
DOCKED: BRANCH   5  21
DOCKED: ATOM     21  C   UNL     1     138.449  74.887 221.321 -0.12 -0.06    +0.274 C  
DOCKED: BRANCH  21  22
DOCKED: ATOM     22  C   UNL     1     138.197  76.416 221.508 -0.18 -0.01    +0.066 C  
DOCKED: ATOM     23  C   UNL     1     138.756  77.287 220.350 -0.08 -0.01    +0.046 C  
DOCKED: ATOM     24  C   UNL     1     138.826  76.967 222.814 -0.14 -0.01    +0.046 C  
DOCKED: ATOM     25  C   UNL     1     139.886  78.014 220.973 -0.17 +0.01    -0.044 A  
DOCKED: ATOM     26  C   UNL     1     139.927  77.836 222.334 -0.34 +0.01    -0.044 A  
DOCKED: ATOM     27  C   UNL     1     140.814  78.829 220.323 -0.22 -0.00    +0.004 A  
DOCKED: ATOM     28  C   UNL     1     140.901  78.461 223.114 -0.49 -0.00    +0.004 A  
DOCKED: ATOM     29  C   UNL     1     141.807  79.463 221.086 -0.37 -0.00    +0.000 A  
DOCKED: ATOM     30  C   UNL     1     141.850  79.279 222.480 -0.53 -0.00    +0.000 A  
DOCKED: ENDBRANCH  21  22
DOCKED: BRANCH  21  31
DOCKED: ATOM     31  N   UNL     1     137.756  74.067 222.332 +0.02 +0.13    -0.347 N  
DOCKED: ATOM     32  H   UNL     1     138.439  73.408 222.773 -0.46 -0.18    +0.345 HD 
DOCKED: ATOM     33  H   UNL     1     137.007  73.489 221.888 +0.05 -0.09    +0.345 HD 
DOCKED: ATOM     34  H   UNL     1     137.327  74.654 223.081 -0.35 -0.18    +0.345 HD 
DOCKED: ENDBRANCH  21  31
DOCKED: ENDBRANCH   5  21
DOCKED: TORSDOF 8
DOCKED: TER
DOCKED: ENDMDL
________________________________________________________________________________


    FINAL DOCKED STATE:
    ________________________


Run:   9 / 20
Time taken for this run:   0.048s

DOCKED: MODEL        9
DOCKED: USER    Run = 9
DOCKED: USER
DOCKED: USER    Estimated Free Energy of Binding    =  -7.95 kcal/mol  [=(1)+(2)+(3)-(4)]
DOCKED: USER
DOCKED: USER    (1) Final Intermolecular Energy     = -10.34 kcal/mol
DOCKED: USER        vdW + Hbond + desolv Energy     =  -8.71 kcal/mol
DOCKED: USER        Electrostatic Energy            =  -1.63 kcal/mol
DOCKED: USER        Moving Ligand-Fixed Receptor    = -10.34 kcal/mol
DOCKED: USER        Moving Ligand-Moving Receptor   =  +0.00 kcal/mol
DOCKED: USER    (2) Final Total Internal Energy     =  -2.06 kcal/mol
DOCKED: USER    (3) Torsional Free Energy           =  +2.39 kcal/mol
DOCKED: USER    (4) Unbound System's Energy         =  -2.06 kcal/mol
DOCKED: USER
DOCKED: USER
DOCKED: REMARK SMILES CC/C(O)=[N+](/c1ccccc1)C1CCN(C(=O)[C@@H]([NH3+])C2Cc3ccccc3C2)CC1
DOCKED: REMARK SMILES IDX 12 1 13 2 14 3 15 4 16 5 17 6 29 7 30 8 5 9 3 10 4 11 2 13
DOCKED: REMARK SMILES IDX 1 14 6 15 7 16 11 17 8 18 10 19 9 20 18 21 20 22 21 23 28 24
DOCKED: REMARK SMILES IDX 22 25 27 26 23 27 26 28 24 29 25 30 19 31
DOCKED: REMARK H PARENT 4 12 19 32 19 33 19 34
DOCKED: USER                              x       y       z     vdW  Elec       q    Type
DOCKED: USER                           _______ _______ _______ _____ _____    ______ ____
DOCKED: ROOT
DOCKED: ATOM      1  C   UNL     1     141.573  74.360 219.913 -0.11 -0.07    +0.274 C  
DOCKED: ATOM      2  C   UNL     1     140.932  74.291 218.504 -0.04 -0.02    +0.098 C  
DOCKED: ATOM      3  C   UNL     1     141.561  75.280 217.495 -0.04 -0.04    +0.126 C  
DOCKED: ATOM      4  N   UNL     1     142.316  76.365 218.149 -0.08 +0.17    -0.337 N  
DOCKED: ATOM      5  C   UNL     1     142.306  77.682 217.554 -0.17 -0.19    +0.281 C  
DOCKED: ATOM      6  O   UNL     1     142.006  77.808 216.335 -0.10 +0.19    -0.268 OA 
DOCKED: ATOM      7  C   UNL     1     143.271  76.059 219.231 -0.32 -0.07    +0.126 C  
DOCKED: ATOM      8  C   UNL     1     143.074  74.643 219.785 -0.28 -0.04    +0.098 C  
DOCKED: ENDROOT
DOCKED: BRANCH   1   9
DOCKED: ATOM      9  N   UNL     1     141.325  73.145 220.740 -0.15 +0.03    -0.162 N  
DOCKED: BRANCH   9  10
DOCKED: ATOM     10  C   UNL     1     140.680  73.196 221.894 -0.15 -0.02    +0.339 C  
DOCKED: BRANCH  10  11
DOCKED: ATOM     11  O   UNL     1     139.969  74.346 222.276 -0.73 +0.02    -0.463 OA 
DOCKED: ATOM     12  H   UNL     1     139.168  74.345 222.894 -0.46 -0.10    +0.299 HD 
DOCKED: ENDBRANCH  10  11
DOCKED: BRANCH  10  13
DOCKED: ATOM     13  C   UNL     1     140.682  72.035 222.874 -0.23 -0.01    +0.150 C  
DOCKED: ATOM     14  C   UNL     1     139.294  71.433 223.085 -0.30 -0.00    +0.019 C  
DOCKED: ENDBRANCH  10  13
DOCKED: ENDBRANCH   9  10
DOCKED: BRANCH   9  15
DOCKED: ATOM     15  C   UNL     1     141.914  71.898 220.321 -0.11 -0.03    +0.208 A  
DOCKED: ATOM     16  C   UNL     1     143.289  71.668 220.492 -0.24 -0.01    +0.079 A  
DOCKED: ATOM     17  C   UNL     1     141.108  70.896 219.757 -0.09 -0.01    +0.079 A  
DOCKED: ATOM     18  C   UNL     1     143.852  70.454 220.087 -0.22 -0.00    +0.007 A  
DOCKED: ATOM     19  C   UNL     1     141.675  69.682 219.356 -0.12 -0.00    +0.007 A  
DOCKED: ATOM     20  C   UNL     1     143.046  69.462 219.518 -0.18 -0.00    +0.000 A  
DOCKED: ENDBRANCH   9  15
DOCKED: ENDBRANCH   1   9
DOCKED: BRANCH   5  21
DOCKED: ATOM     21  C   UNL     1     142.576  78.925 218.384 -0.18 -0.23    +0.274 C  
DOCKED: BRANCH  21  22
DOCKED: ATOM     22  C   UNL     1     141.340  79.253 219.279 -0.22 -0.03    +0.066 C  
DOCKED: ATOM     23  C   UNL     1     141.473  80.587 220.063 -0.29 -0.02    +0.046 C  
DOCKED: ATOM     24  C   UNL     1     141.062  78.150 220.334 -0.24 -0.02    +0.046 C  
DOCKED: ATOM     25  C   UNL     1     141.615  80.153 221.471 -0.38 +0.02    -0.044 A  
DOCKED: ATOM     26  C   UNL     1     141.391  78.807 221.622 -0.36 +0.02    -0.044 A  
DOCKED: ATOM     27  C   UNL     1     141.905  80.964 222.570 -0.54 -0.00    +0.004 A  
DOCKED: ATOM     28  C   UNL     1     141.448  78.202 222.879 -0.50 -0.00    +0.004 A  
DOCKED: ATOM     29  C   UNL     1     141.974  80.377 223.843 -0.62 -0.00    +0.000 A  
DOCKED: ATOM     30  C   UNL     1     141.746  78.998 223.997 -0.61 -0.00    +0.000 A  
DOCKED: ENDBRANCH  21  22
DOCKED: BRANCH  21  31
DOCKED: ATOM     31  N   UNL     1     142.980  80.060 217.532 +0.01 +0.46    -0.347 N  
DOCKED: ATOM     32  H   UNL     1     142.963  79.765 216.529 -0.44 -0.65    +0.345 HD 
DOCKED: ATOM     33  H   UNL     1     143.957  80.359 217.753 -0.34 -0.65    +0.345 HD 
DOCKED: ATOM     34  H   UNL     1     142.343  80.880 217.650 +0.10 -0.29    +0.345 HD 
DOCKED: ENDBRANCH  21  31
DOCKED: ENDBRANCH   5  21
DOCKED: TORSDOF 8
DOCKED: TER
DOCKED: ENDMDL
________________________________________________________________________________


    FINAL DOCKED STATE:
    ________________________


Run:   10 / 20
Time taken for this run:   0.048s

DOCKED: MODEL        10
DOCKED: USER    Run = 10
DOCKED: USER
DOCKED: USER    Estimated Free Energy of Binding    =  -7.89 kcal/mol  [=(1)+(2)+(3)-(4)]
DOCKED: USER
DOCKED: USER    (1) Final Intermolecular Energy     = -10.28 kcal/mol
DOCKED: USER        vdW + Hbond + desolv Energy     =  -8.68 kcal/mol
DOCKED: USER        Electrostatic Energy            =  -1.60 kcal/mol
DOCKED: USER        Moving Ligand-Fixed Receptor    = -10.28 kcal/mol
DOCKED: USER        Moving Ligand-Moving Receptor   =  +0.00 kcal/mol
DOCKED: USER    (2) Final Total Internal Energy     =  -2.05 kcal/mol
DOCKED: USER    (3) Torsional Free Energy           =  +2.39 kcal/mol
DOCKED: USER    (4) Unbound System's Energy         =  -2.05 kcal/mol
DOCKED: USER
DOCKED: USER
DOCKED: REMARK SMILES CC/C(O)=[N+](/c1ccccc1)C1CCN(C(=O)[C@@H]([NH3+])C2Cc3ccccc3C2)CC1
DOCKED: REMARK SMILES IDX 12 1 13 2 14 3 15 4 16 5 17 6 29 7 30 8 5 9 3 10 4 11 2 13
DOCKED: REMARK SMILES IDX 1 14 6 15 7 16 11 17 8 18 10 19 9 20 18 21 20 22 21 23 28 24
DOCKED: REMARK SMILES IDX 22 25 27 26 23 27 26 28 24 29 25 30 19 31
DOCKED: REMARK H PARENT 4 12 19 32 19 33 19 34
DOCKED: USER                              x       y       z     vdW  Elec       q    Type
DOCKED: USER                           _______ _______ _______ _____ _____    ______ ____
DOCKED: ROOT
DOCKED: ATOM      1  C   UNL     1     141.595  74.570 219.889 -0.11 -0.08    +0.274 C  
DOCKED: ATOM      2  C   UNL     1     140.898  74.513 218.506 -0.04 -0.03    +0.098 C  
DOCKED: ATOM      3  C   UNL     1     141.493  75.503 217.478 -0.05 -0.04    +0.126 C  
DOCKED: ATOM      4  N   UNL     1     142.283  76.578 218.106 -0.09 +0.17    -0.337 N  
DOCKED: ATOM      5  C   UNL     1     142.259  77.898 217.518 -0.17 -0.20    +0.281 C  
DOCKED: ATOM      6  O   UNL     1     141.911  78.033 216.313 -0.10 +0.19    -0.268 OA 
DOCKED: ATOM      7  C   UNL     1     143.279  76.258 219.147 -0.32 -0.08    +0.126 C  
DOCKED: ATOM      8  C   UNL     1     143.093  74.841 219.701 -0.29 -0.04    +0.098 C  
DOCKED: ENDROOT
DOCKED: BRANCH   1   9
DOCKED: ATOM      9  N   UNL     1     141.372  73.352 220.719 -0.15 +0.03    -0.162 N  
DOCKED: BRANCH   9  10
DOCKED: ATOM     10  C   UNL     1     140.702  73.388 221.859 -0.14 -0.02    +0.339 C  
DOCKED: BRANCH  10  11
DOCKED: ATOM     11  O   UNL     1     139.965  74.525 222.230 -0.71 +0.02    -0.463 OA 
DOCKED: ATOM     12  H   UNL     1     139.177  74.515 222.865 -0.44 -0.09    +0.299 HD 
DOCKED: ENDBRANCH  10  11
DOCKED: BRANCH  10  13
DOCKED: ATOM     13  C   UNL     1     140.702  72.224 222.835 -0.21 -0.01    +0.150 C  
DOCKED: ATOM     14  C   UNL     1     139.350  71.516 222.915 -0.30 -0.00    +0.019 C  
DOCKED: ENDBRANCH  10  13
DOCKED: ENDBRANCH   9  10
DOCKED: BRANCH   9  15
DOCKED: ATOM     15  C   UNL     1     142.011  72.123 220.321 -0.12 -0.03    +0.208 A  
DOCKED: ATOM     16  C   UNL     1     141.269  71.104 219.702 -0.09 -0.01    +0.079 A  
DOCKED: ATOM     17  C   UNL     1     143.388  71.946 220.534 -0.25 -0.01    +0.079 A  
DOCKED: ATOM     18  C   UNL     1     141.896  69.916 219.315 -0.12 -0.00    +0.007 A  
DOCKED: ATOM     19  C   UNL     1     144.012  70.757 220.142 -0.22 -0.00    +0.007 A  
DOCKED: ATOM     20  C   UNL     1     143.266  69.742 219.535 -0.19 -0.00    +0.000 A  
DOCKED: ENDBRANCH   9  15
DOCKED: ENDBRANCH   1   9
DOCKED: BRANCH   5  21
DOCKED: ATOM     21  C   UNL     1     142.573  79.135 218.344 -0.18 -0.24    +0.274 C  
DOCKED: BRANCH  21  22
DOCKED: ATOM     22  C   UNL     1     141.370  79.477 219.277 -0.22 -0.03    +0.066 C  
DOCKED: ATOM     23  C   UNL     1     141.593  80.748 220.142 -0.29 -0.02    +0.046 C  
DOCKED: ATOM     24  C   UNL     1     141.037  78.328 220.264 -0.23 -0.02    +0.046 C  
DOCKED: ATOM     25  C   UNL     1     141.726  80.216 221.517 -0.39 +0.02    -0.044 A  
DOCKED: ATOM     26  C   UNL     1     141.421  78.879 221.585 -0.36 +0.02    -0.044 A  
DOCKED: ATOM     27  C   UNL     1     142.078  80.936 222.661 -0.56 -0.00    +0.004 A  
DOCKED: ATOM     28  C   UNL     1     141.455  78.192 222.800 -0.49 -0.00    +0.004 A  
DOCKED: ATOM     29  C   UNL     1     142.126  80.264 223.892 -0.62 -0.00    +0.000 A  
DOCKED: ATOM     30  C   UNL     1     141.815  78.894 223.962 -0.61 -0.00    +0.000 A  
DOCKED: ENDBRANCH  21  22
DOCKED: BRANCH  21  31
DOCKED: ATOM     31  N   UNL     1     142.967  80.266 217.483 -0.02 +0.46    -0.347 N  
DOCKED: ATOM     32  H   UNL     1     143.954  80.539 217.697 -0.32 -0.65    +0.345 HD 
DOCKED: ATOM     33  H   UNL     1     142.365  81.099 217.669 +0.11 -0.28    +0.345 HD 
DOCKED: ATOM     34  H   UNL     1     142.902  80.024 216.469 -0.41 -0.62    +0.345 HD 
DOCKED: ENDBRANCH  21  31
DOCKED: ENDBRANCH   5  21
DOCKED: TORSDOF 8
DOCKED: TER
DOCKED: ENDMDL
________________________________________________________________________________


    FINAL DOCKED STATE:
    ________________________


Run:   11 / 20
Time taken for this run:   0.048s

DOCKED: MODEL        11
DOCKED: USER    Run = 11
DOCKED: USER
DOCKED: USER    Estimated Free Energy of Binding    =  -7.64 kcal/mol  [=(1)+(2)+(3)-(4)]
DOCKED: USER
DOCKED: USER    (1) Final Intermolecular Energy     = -10.03 kcal/mol
DOCKED: USER        vdW + Hbond + desolv Energy     =  -8.70 kcal/mol
DOCKED: USER        Electrostatic Energy            =  -1.33 kcal/mol
DOCKED: USER        Moving Ligand-Fixed Receptor    = -10.03 kcal/mol
DOCKED: USER        Moving Ligand-Moving Receptor   =  +0.00 kcal/mol
DOCKED: USER    (2) Final Total Internal Energy     =  -1.95 kcal/mol
DOCKED: USER    (3) Torsional Free Energy           =  +2.39 kcal/mol
DOCKED: USER    (4) Unbound System's Energy         =  -1.95 kcal/mol
DOCKED: USER
DOCKED: USER
DOCKED: REMARK SMILES CC/C(O)=[N+](/c1ccccc1)C1CCN(C(=O)[C@@H]([NH3+])C2Cc3ccccc3C2)CC1
DOCKED: REMARK SMILES IDX 12 1 13 2 14 3 15 4 16 5 17 6 29 7 30 8 5 9 3 10 4 11 2 13
DOCKED: REMARK SMILES IDX 1 14 6 15 7 16 11 17 8 18 10 19 9 20 18 21 20 22 21 23 28 24
DOCKED: REMARK SMILES IDX 22 25 27 26 23 27 26 28 24 29 25 30 19 31
DOCKED: REMARK H PARENT 4 12 19 32 19 33 19 34
DOCKED: USER                              x       y       z     vdW  Elec       q    Type
DOCKED: USER                           _______ _______ _______ _____ _____    ______ ____
DOCKED: ROOT
DOCKED: ATOM      1  C   UNL     1     142.088  75.247 219.685 -0.14 -0.10    +0.274 C  
DOCKED: ATOM      2  C   UNL     1     140.901  75.195 218.689 -0.06 -0.03    +0.098 C  
DOCKED: ATOM      3  C   UNL     1     140.988  76.266 217.577 -0.04 -0.05    +0.126 C  
DOCKED: ATOM      4  N   UNL     1     141.907  77.369 217.911 -0.08 +0.19    -0.337 N  
DOCKED: ATOM      5  C   UNL     1     141.586  78.706 217.468 -0.12 -0.18    +0.281 C  
DOCKED: ATOM      6  O   UNL     1     140.781  78.864 216.509 -0.04 +0.14    -0.268 OA 
DOCKED: ATOM      7  C   UNL     1     143.250  77.080 218.451 -0.20 -0.09    +0.126 C  
DOCKED: ATOM      8  C   UNL     1     143.371  75.633 218.939 -0.28 -0.05    +0.098 C  
DOCKED: ENDROOT
DOCKED: BRANCH   1   9
DOCKED: ATOM      9  N   UNL     1     142.275  73.984 220.455 -0.19 +0.04    -0.162 N  
DOCKED: BRANCH   9  10
DOCKED: ATOM     10  C   UNL     1     141.378  73.548 221.324 -0.11 -0.04    +0.339 C  
DOCKED: BRANCH  10  11
DOCKED: ATOM     11  O   UNL     1     140.547  74.444 222.017 -0.67 +0.01    -0.463 OA 
DOCKED: ATOM     12  H   UNL     1     139.757  74.169 222.588 -0.12 -0.01    +0.299 HD 
DOCKED: ENDBRANCH  10  11
DOCKED: BRANCH  10  13
DOCKED: ATOM     13  C   UNL     1     141.206  72.072 221.637 -0.20 -0.01    +0.150 C  
DOCKED: ATOM     14  C   UNL     1     140.328  71.823 222.863 -0.34 -0.00    +0.019 C  
DOCKED: ENDBRANCH  10  13
DOCKED: ENDBRANCH   9  10
DOCKED: BRANCH   9  15
DOCKED: ATOM     15  C   UNL     1     143.528  73.283 220.330 -0.23 -0.04    +0.208 A  
DOCKED: ATOM     16  C   UNL     1     144.667  73.734 221.016 -0.36 -0.02    +0.079 A  
DOCKED: ATOM     17  C   UNL     1     143.610  72.129 219.533 -0.18 -0.01    +0.079 A  
DOCKED: ATOM     18  C   UNL     1     145.878  73.046 220.893 -0.66 -0.00    +0.007 A  
DOCKED: ATOM     19  C   UNL     1     144.823  71.442 219.415 -0.29 +0.00    +0.007 A  
DOCKED: ATOM     20  C   UNL     1     145.956  71.902 220.093 -0.27 +0.00    +0.000 A  
DOCKED: ENDBRANCH   9  15
DOCKED: ENDBRANCH   1   9
DOCKED: BRANCH   5  21
DOCKED: ATOM     21  C   UNL     1     142.140  79.929 218.180 -0.21 -0.21    +0.274 C  
DOCKED: BRANCH  21  22
DOCKED: ATOM     22  C   UNL     1     141.171  80.370 219.321 -0.21 -0.03    +0.066 C  
DOCKED: ATOM     23  C   UNL     1     141.827  81.312 220.367 -0.21 -0.02    +0.046 C  
DOCKED: ATOM     24  C   UNL     1     140.598  79.166 220.114 -0.18 -0.02    +0.046 C  
DOCKED: ATOM     25  C   UNL     1     141.909  80.477 221.587 -0.41 +0.02    -0.044 A  
DOCKED: ATOM     26  C   UNL     1     141.233  79.290 221.447 -0.33 +0.02    -0.044 A  
DOCKED: ATOM     27  C   UNL     1     142.549  80.807 222.783 -0.59 -0.00    +0.004 A  
DOCKED: ATOM     28  C   UNL     1     141.164  78.371 222.496 -0.47 -0.00    +0.004 A  
DOCKED: ATOM     29  C   UNL     1     142.499  79.894 223.849 -0.61 -0.00    +0.000 A  
DOCKED: ATOM     30  C   UNL     1     141.807  78.678 223.705 -0.62 -0.00    +0.000 A  
DOCKED: ENDBRANCH  21  22
DOCKED: BRANCH  21  31
DOCKED: ATOM     31  N   UNL     1     142.433  81.016 217.228 -0.13 +0.33    -0.347 N  
DOCKED: ATOM     32  H   UNL     1     143.418  80.924 216.886 -0.37 -0.67    +0.345 HD 
DOCKED: ATOM     33  H   UNL     1     142.351  81.948 217.694 +0.12 -0.23    +0.345 HD 
DOCKED: ATOM     34  H   UNL     1     141.792  80.995 216.404 +0.07 -0.27    +0.345 HD 
DOCKED: ENDBRANCH  21  31
DOCKED: ENDBRANCH   5  21
DOCKED: TORSDOF 8
DOCKED: TER
DOCKED: ENDMDL
________________________________________________________________________________


    FINAL DOCKED STATE:
    ________________________


Run:   12 / 20
Time taken for this run:   0.048s

DOCKED: MODEL        12
DOCKED: USER    Run = 12
DOCKED: USER
DOCKED: USER    Estimated Free Energy of Binding    =  -7.76 kcal/mol  [=(1)+(2)+(3)-(4)]
DOCKED: USER
DOCKED: USER    (1) Final Intermolecular Energy     = -10.14 kcal/mol
DOCKED: USER        vdW + Hbond + desolv Energy     =  -8.53 kcal/mol
DOCKED: USER        Electrostatic Energy            =  -1.61 kcal/mol
DOCKED: USER        Moving Ligand-Fixed Receptor    = -10.14 kcal/mol
DOCKED: USER        Moving Ligand-Moving Receptor   =  +0.00 kcal/mol
DOCKED: USER    (2) Final Total Internal Energy     =  -2.18 kcal/mol
DOCKED: USER    (3) Torsional Free Energy           =  +2.39 kcal/mol
DOCKED: USER    (4) Unbound System's Energy         =  -2.18 kcal/mol
DOCKED: USER
DOCKED: USER
DOCKED: REMARK SMILES CC/C(O)=[N+](/c1ccccc1)C1CCN(C(=O)[C@@H]([NH3+])C2Cc3ccccc3C2)CC1
DOCKED: REMARK SMILES IDX 12 1 13 2 14 3 15 4 16 5 17 6 29 7 30 8 5 9 3 10 4 11 2 13
DOCKED: REMARK SMILES IDX 1 14 6 15 7 16 11 17 8 18 10 19 9 20 18 21 20 22 21 23 28 24
DOCKED: REMARK SMILES IDX 22 25 27 26 23 27 26 28 24 29 25 30 19 31
DOCKED: REMARK H PARENT 4 12 19 32 19 33 19 34
DOCKED: USER                              x       y       z     vdW  Elec       q    Type
DOCKED: USER                           _______ _______ _______ _____ _____    ______ ____
DOCKED: ROOT
DOCKED: ATOM      1  C   UNL     1     141.430  74.710 219.744 -0.09 -0.08    +0.274 C  
DOCKED: ATOM      2  C   UNL     1     140.730  74.717 218.361 -0.04 -0.03    +0.098 C  
DOCKED: ATOM      3  C   UNL     1     141.365  75.709 217.358 -0.04 -0.04    +0.126 C  
DOCKED: ATOM      4  N   UNL     1     142.197  76.734 218.013 -0.08 +0.18    -0.337 N  
DOCKED: ATOM      5  C   UNL     1     142.227  78.069 217.460 -0.17 -0.21    +0.281 C  
DOCKED: ATOM      6  O   UNL     1     141.885  78.249 216.259 -0.10 +0.20    -0.268 OA 
DOCKED: ATOM      7  C   UNL     1     143.180  76.347 219.044 -0.31 -0.08    +0.126 C  
DOCKED: ATOM      8  C   UNL     1     142.937  74.925 219.561 -0.27 -0.04    +0.098 C  
DOCKED: ENDROOT
DOCKED: BRANCH   1   9
DOCKED: ATOM      9  N   UNL     1     141.158  73.481 220.543 -0.13 +0.03    -0.162 N  
DOCKED: BRANCH   9  10
DOCKED: ATOM     10  C   UNL     1     140.358  73.486 221.596 -0.17 -0.04    +0.339 C  
DOCKED: BRANCH  10  11
DOCKED: ATOM     11  O   UNL     1     140.110  74.670 222.311 -0.66 +0.00    -0.463 OA 
DOCKED: ATOM     12  H   UNL     1     139.465  74.747 223.087 -0.43 -0.03    +0.299 HD 
DOCKED: ENDBRANCH  10  11
DOCKED: BRANCH  10  13
DOCKED: ATOM     13  C   UNL     1     139.680  72.226 222.104 -0.22 -0.03    +0.150 C  
DOCKED: ATOM     14  C   UNL     1     140.329  71.670 223.371 -0.37 -0.00    +0.019 C  
DOCKED: ENDBRANCH  10  13
DOCKED: ENDBRANCH   9  10
DOCKED: BRANCH   9  15
DOCKED: ATOM     15  C   UNL     1     141.885  72.278 220.222 -0.11 -0.03    +0.208 A  
DOCKED: ATOM     16  C   UNL     1     143.158  72.050 220.770 -0.25 -0.01    +0.079 A  
DOCKED: ATOM     17  C   UNL     1     141.313  71.318 219.373 -0.07 -0.01    +0.079 A  
DOCKED: ATOM     18  C   UNL     1     143.856  70.880 220.458 -0.17 -0.00    +0.007 A  
DOCKED: ATOM     19  C   UNL     1     142.014  70.146 219.065 -0.10 -0.00    +0.007 A  
DOCKED: ATOM     20  C   UNL     1     143.285  69.929 219.605 -0.20 -0.00    +0.000 A  
DOCKED: ENDBRANCH   9  15
DOCKED: ENDBRANCH   1   9
DOCKED: BRANCH   5  21
DOCKED: ATOM     21  C   UNL     1     142.591  79.270 218.317 -0.18 -0.24    +0.274 C  
DOCKED: BRANCH  21  22
DOCKED: ATOM     22  C   UNL     1     141.408  79.629 219.269 -0.23 -0.03    +0.066 C  
DOCKED: ATOM     23  C   UNL     1     141.696  80.845 220.191 -0.29 -0.02    +0.046 C  
DOCKED: ATOM     24  C   UNL     1     141.019  78.453 220.203 -0.22 -0.02    +0.046 C  
DOCKED: ATOM     25  C   UNL     1     141.803  80.243 221.540 -0.40 +0.02    -0.044 A  
DOCKED: ATOM     26  C   UNL     1     141.432  78.921 221.547 -0.36 +0.02    -0.044 A  
DOCKED: ATOM     27  C   UNL     1     142.192  80.890 222.715 -0.58 -0.00    +0.004 A  
DOCKED: ATOM     28  C   UNL     1     141.433  78.178 222.729 -0.48 -0.00    +0.004 A  
DOCKED: ATOM     29  C   UNL     1     142.208  80.160 223.913 -0.62 -0.00    +0.000 A  
DOCKED: ATOM     30  C   UNL     1     141.829  78.806 223.920 -0.61 -0.00    +0.000 A  
DOCKED: ENDBRANCH  21  22
DOCKED: BRANCH  21  31
DOCKED: ATOM     31  N   UNL     1     143.019  80.411 217.484 +0.03 +0.47    -0.347 N  
DOCKED: ATOM     32  H   UNL     1     142.944  80.151 216.473 -0.43 -0.64    +0.345 HD 
DOCKED: ATOM     33  H   UNL     1     144.019  80.650 217.672 -0.30 -0.66    +0.345 HD 
DOCKED: ATOM     34  H   UNL     1     142.433  81.258 217.655 +0.11 -0.28    +0.345 HD 
DOCKED: ENDBRANCH  21  31
DOCKED: ENDBRANCH   5  21
DOCKED: TORSDOF 8
DOCKED: TER
DOCKED: ENDMDL
________________________________________________________________________________


    FINAL DOCKED STATE:
    ________________________


Run:   13 / 20
Time taken for this run:   0.048s

DOCKED: MODEL        13
DOCKED: USER    Run = 13
DOCKED: USER
DOCKED: USER    Estimated Free Energy of Binding    =  -7.82 kcal/mol  [=(1)+(2)+(3)-(4)]
DOCKED: USER
DOCKED: USER    (1) Final Intermolecular Energy     = -10.20 kcal/mol
DOCKED: USER        vdW + Hbond + desolv Energy     =  -8.58 kcal/mol
DOCKED: USER        Electrostatic Energy            =  -1.63 kcal/mol
DOCKED: USER        Moving Ligand-Fixed Receptor    = -10.20 kcal/mol
DOCKED: USER        Moving Ligand-Moving Receptor   =  +0.00 kcal/mol
DOCKED: USER    (2) Final Total Internal Energy     =  -2.12 kcal/mol
DOCKED: USER    (3) Torsional Free Energy           =  +2.39 kcal/mol
DOCKED: USER    (4) Unbound System's Energy         =  -2.12 kcal/mol
DOCKED: USER
DOCKED: USER
DOCKED: REMARK SMILES CC/C(O)=[N+](/c1ccccc1)C1CCN(C(=O)[C@@H]([NH3+])C2Cc3ccccc3C2)CC1
DOCKED: REMARK SMILES IDX 12 1 13 2 14 3 15 4 16 5 17 6 29 7 30 8 5 9 3 10 4 11 2 13
DOCKED: REMARK SMILES IDX 1 14 6 15 7 16 11 17 8 18 10 19 9 20 18 21 20 22 21 23 28 24
DOCKED: REMARK SMILES IDX 22 25 27 26 23 27 26 28 24 29 25 30 19 31
DOCKED: REMARK H PARENT 4 12 19 32 19 33 19 34
DOCKED: USER                              x       y       z     vdW  Elec       q    Type
DOCKED: USER                           _______ _______ _______ _____ _____    ______ ____
DOCKED: ROOT
DOCKED: ATOM      1  C   UNL     1     141.447  74.717 219.783 -0.10 -0.08    +0.274 C  
DOCKED: ATOM      2  C   UNL     1     140.683  74.734 218.435 -0.04 -0.03    +0.098 C  
DOCKED: ATOM      3  C   UNL     1     141.275  75.728 217.408 -0.04 -0.04    +0.126 C  
DOCKED: ATOM      4  N   UNL     1     142.142  76.746 218.027 -0.08 +0.17    -0.337 N  
DOCKED: ATOM      5  C   UNL     1     142.152  78.083 217.479 -0.16 -0.20    +0.281 C  
DOCKED: ATOM      6  O   UNL     1     141.754  78.271 216.296 -0.09 +0.19    -0.268 OA 
DOCKED: ATOM      7  C   UNL     1     143.170  76.350 219.009 -0.30 -0.08    +0.126 C  
DOCKED: ATOM      8  C   UNL     1     142.945  74.927 219.530 -0.27 -0.04    +0.098 C  
DOCKED: ENDROOT
DOCKED: BRANCH   1   9
DOCKED: ATOM      9  N   UNL     1     141.207  73.486 220.589 -0.14 +0.03    -0.162 N  
DOCKED: BRANCH   9  10
DOCKED: ATOM     10  C   UNL     1     140.399  73.474 221.636 -0.17 -0.04    +0.339 C  
DOCKED: BRANCH  10  11
DOCKED: ATOM     11  O   UNL     1     140.081  74.660 222.319 -0.67 +0.01    -0.463 OA 
DOCKED: ATOM     12  H   UNL     1     139.435  74.719 223.095 -0.44 -0.04    +0.299 HD 
DOCKED: ENDBRANCH  10  11
DOCKED: BRANCH  10  13
DOCKED: ATOM     13  C   UNL     1     139.785  72.191 222.169 -0.23 -0.03    +0.150 C  
DOCKED: ATOM     14  C   UNL     1     140.354  71.779 223.526 -0.37 -0.00    +0.019 C  
DOCKED: ENDBRANCH  10  13
DOCKED: ENDBRANCH   9  10
DOCKED: BRANCH   9  15
DOCKED: ATOM     15  C   UNL     1     141.974  72.305 220.282 -0.12 -0.03    +0.208 A  
DOCKED: ATOM     16  C   UNL     1     143.281  72.158 220.775 -0.25 -0.01    +0.079 A  
DOCKED: ATOM     17  C   UNL     1     141.408  71.283 219.503 -0.08 -0.01    +0.079 A  
DOCKED: ATOM     18  C   UNL     1     144.018  71.008 220.478 -0.15 -0.00    +0.007 A  
DOCKED: ATOM     19  C   UNL     1     142.148  70.132 219.210 -0.11 -0.00    +0.007 A  
DOCKED: ATOM     20  C   UNL     1     143.452  69.996 219.695 -0.21 -0.00    +0.000 A  
DOCKED: ENDBRANCH   9  15
DOCKED: ENDBRANCH   1   9
DOCKED: BRANCH   5  21
DOCKED: ATOM     21  C   UNL     1     142.562  79.279 218.323 -0.19 -0.24    +0.274 C  
DOCKED: BRANCH  21  22
DOCKED: ATOM     22  C   UNL     1     141.403  79.677 219.289 -0.23 -0.03    +0.066 C  
DOCKED: ATOM     23  C   UNL     1     141.752  80.866 220.226 -0.29 -0.02    +0.046 C  
DOCKED: ATOM     24  C   UNL     1     140.968  78.507 220.209 -0.22 -0.02    +0.046 C  
DOCKED: ATOM     25  C   UNL     1     141.841  80.241 221.565 -0.41 +0.02    -0.044 A  
DOCKED: ATOM     26  C   UNL     1     141.410  78.937 221.556 -0.36 +0.02    -0.044 A  
DOCKED: ATOM     27  C   UNL     1     142.267  80.852 222.745 -0.58 -0.00    +0.004 A  
DOCKED: ATOM     28  C   UNL     1     141.386  78.177 222.727 -0.48 -0.00    +0.004 A  
DOCKED: ATOM     29  C   UNL     1     142.258  80.106 223.934 -0.61 -0.00    +0.000 A  
DOCKED: ATOM     30  C   UNL     1     141.818  78.770 223.924 -0.61 -0.00    +0.000 A  
DOCKED: ENDBRANCH  21  22
DOCKED: BRANCH  21  31
DOCKED: ATOM     31  N   UNL     1     143.011  80.402 217.477 +0.02 +0.47    -0.347 N  
DOCKED: ATOM     32  H   UNL     1     142.921  80.135 216.469 -0.42 -0.63    +0.345 HD 
DOCKED: ATOM     33  H   UNL     1     144.018  80.618 217.655 -0.31 -0.67    +0.345 HD 
DOCKED: ATOM     34  H   UNL     1     142.447  81.264 217.645 +0.11 -0.28    +0.345 HD 
DOCKED: ENDBRANCH  21  31
DOCKED: ENDBRANCH   5  21
DOCKED: TORSDOF 8
DOCKED: TER
DOCKED: ENDMDL
________________________________________________________________________________


    FINAL DOCKED STATE:
    ________________________


Run:   14 / 20
Time taken for this run:   0.048s

DOCKED: MODEL        14
DOCKED: USER    Run = 14
DOCKED: USER
DOCKED: USER    Estimated Free Energy of Binding    =  -7.61 kcal/mol  [=(1)+(2)+(3)-(4)]
DOCKED: USER
DOCKED: USER    (1) Final Intermolecular Energy     = -10.00 kcal/mol
DOCKED: USER        vdW + Hbond + desolv Energy     =  -8.45 kcal/mol
DOCKED: USER        Electrostatic Energy            =  -1.55 kcal/mol
DOCKED: USER        Moving Ligand-Fixed Receptor    = -10.00 kcal/mol
DOCKED: USER        Moving Ligand-Moving Receptor   =  +0.00 kcal/mol
DOCKED: USER    (2) Final Total Internal Energy     =  -2.03 kcal/mol
DOCKED: USER    (3) Torsional Free Energy           =  +2.39 kcal/mol
DOCKED: USER    (4) Unbound System's Energy         =  -2.03 kcal/mol
DOCKED: USER
DOCKED: USER
DOCKED: REMARK SMILES CC/C(O)=[N+](/c1ccccc1)C1CCN(C(=O)[C@@H]([NH3+])C2Cc3ccccc3C2)CC1
DOCKED: REMARK SMILES IDX 12 1 13 2 14 3 15 4 16 5 17 6 29 7 30 8 5 9 3 10 4 11 2 13
DOCKED: REMARK SMILES IDX 1 14 6 15 7 16 11 17 8 18 10 19 9 20 18 21 20 22 21 23 28 24
DOCKED: REMARK SMILES IDX 22 25 27 26 23 27 26 28 24 29 25 30 19 31
DOCKED: REMARK H PARENT 4 12 19 32 19 33 19 34
DOCKED: USER                              x       y       z     vdW  Elec       q    Type
DOCKED: USER                           _______ _______ _______ _____ _____    ______ ____
DOCKED: ROOT
DOCKED: ATOM      1  C   UNL     1     141.480  75.162 219.731 -0.10 -0.09    +0.274 C  
DOCKED: ATOM      2  C   UNL     1     140.614  75.185 218.445 -0.04 -0.03    +0.098 C  
DOCKED: ATOM      3  C   UNL     1     141.126  76.183 217.380 -0.04 -0.05    +0.126 C  
DOCKED: ATOM      4  N   UNL     1     142.039  77.199 217.935 -0.08 +0.19    -0.337 N  
DOCKED: ATOM      5  C   UNL     1     142.008  78.538 217.393 -0.15 -0.21    +0.281 C  
DOCKED: ATOM      6  O   UNL     1     141.520  78.731 216.246 -0.08 +0.19    -0.268 OA 
DOCKED: ATOM      7  C   UNL     1     143.139  76.798 218.833 -0.28 -0.08    +0.126 C  
DOCKED: ATOM      8  C   UNL     1     142.954  75.372 219.364 -0.28 -0.05    +0.098 C  
DOCKED: ENDROOT
DOCKED: BRANCH   1   9
DOCKED: ATOM      9  N   UNL     1     141.302  73.928 220.546 -0.15 +0.03    -0.162 N  
DOCKED: BRANCH   9  10
DOCKED: ATOM     10  C   UNL     1     140.379  73.832 221.490 -0.17 -0.04    +0.339 C  
DOCKED: BRANCH  10  11
DOCKED: ATOM     11  O   UNL     1     140.068  74.928 222.312 -0.61 +0.02    -0.463 OA 
DOCKED: ATOM     12  H   UNL     1     139.410  74.899 223.081 -0.42 -0.04    +0.299 HD 
DOCKED: ENDBRANCH  10  11
DOCKED: BRANCH  10  13
DOCKED: ATOM     13  C   UNL     1     139.620  72.543 221.751 -0.20 -0.03    +0.150 C  
DOCKED: ATOM     14  C   UNL     1     140.043  71.856 223.049 -0.35 -0.00    +0.019 C  
DOCKED: ENDBRANCH  10  13
DOCKED: ENDBRANCH   9  10
DOCKED: BRANCH   9  15
DOCKED: ATOM     15  C   UNL     1     142.245  72.851 220.378 -0.15 -0.03    +0.208 A  
DOCKED: ATOM     16  C   UNL     1     143.546  72.958 220.894 -0.23 -0.01    +0.079 A  
DOCKED: ATOM     17  C   UNL     1     141.859  71.677 219.711 -0.11 -0.01    +0.079 A  
DOCKED: ATOM     18  C   UNL     1     144.455  71.908 220.731 -0.23 -0.00    +0.007 A  
DOCKED: ATOM     19  C   UNL     1     142.770  70.628 219.551 -0.16 -0.00    +0.007 A  
DOCKED: ATOM     20  C   UNL     1     144.067  70.744 220.059 -0.24 -0.00    +0.000 A  
DOCKED: ENDBRANCH   9  15
DOCKED: ENDBRANCH   1   9
DOCKED: BRANCH   5  21
DOCKED: ATOM     21  C   UNL     1     142.482  79.730 218.208 -0.21 -0.24    +0.274 C  
DOCKED: BRANCH  21  22
DOCKED: ATOM     22  C   UNL     1     141.365  80.180 219.202 -0.23 -0.03    +0.066 C  
DOCKED: ATOM     23  C   UNL     1     141.840  81.236 220.237 -0.20 -0.02    +0.046 C  
DOCKED: ATOM     24  C   UNL     1     140.783  78.996 220.017 -0.19 -0.02    +0.046 C  
DOCKED: ATOM     25  C   UNL     1     141.837  80.494 221.519 -0.40 +0.02    -0.044 A  
DOCKED: ATOM     26  C   UNL     1     141.255  79.256 221.398 -0.33 +0.02    -0.044 A  
DOCKED: ATOM     27  C   UNL     1     142.317  80.949 222.748 -0.56 -0.00    +0.004 A  
DOCKED: ATOM     28  C   UNL     1     141.127  78.409 222.500 -0.47 -0.00    +0.004 A  
DOCKED: ATOM     29  C   UNL     1     142.204  80.111 223.869 -0.64 -0.00    +0.000 A  
DOCKED: ATOM     30  C   UNL     1     141.610  78.842 223.744 -0.61 -0.00    +0.000 A  
DOCKED: ENDBRANCH  21  22
DOCKED: BRANCH  21  31
DOCKED: ATOM     31  N   UNL     1     142.944  80.825 217.335 -0.07 +0.44    -0.347 N  
DOCKED: ATOM     32  H   UNL     1     142.806  80.554 216.334 -0.33 -0.56    +0.345 HD 
DOCKED: ATOM     33  H   UNL     1     143.965  81.002 217.472 -0.28 -0.64    +0.345 HD 
DOCKED: ATOM     34  H   UNL     1     142.423  81.712 217.515 +0.11 -0.26    +0.345 HD 
DOCKED: ENDBRANCH  21  31
DOCKED: ENDBRANCH   5  21
DOCKED: TORSDOF 8
DOCKED: TER
DOCKED: ENDMDL
________________________________________________________________________________


    FINAL DOCKED STATE:
    ________________________


Run:   15 / 20
Time taken for this run:   0.048s

DOCKED: MODEL        15
DOCKED: USER    Run = 15
DOCKED: USER
DOCKED: USER    Estimated Free Energy of Binding    =  -7.75 kcal/mol  [=(1)+(2)+(3)-(4)]
DOCKED: USER
DOCKED: USER    (1) Final Intermolecular Energy     = -10.14 kcal/mol
DOCKED: USER        vdW + Hbond + desolv Energy     =  -8.53 kcal/mol
DOCKED: USER        Electrostatic Energy            =  -1.61 kcal/mol
DOCKED: USER        Moving Ligand-Fixed Receptor    = -10.14 kcal/mol
DOCKED: USER        Moving Ligand-Moving Receptor   =  +0.00 kcal/mol
DOCKED: USER    (2) Final Total Internal Energy     =  -2.15 kcal/mol
DOCKED: USER    (3) Torsional Free Energy           =  +2.39 kcal/mol
DOCKED: USER    (4) Unbound System's Energy         =  -2.15 kcal/mol
DOCKED: USER
DOCKED: USER
DOCKED: REMARK SMILES CC/C(O)=[N+](/c1ccccc1)C1CCN(C(=O)[C@@H]([NH3+])C2Cc3ccccc3C2)CC1
DOCKED: REMARK SMILES IDX 12 1 13 2 14 3 15 4 16 5 17 6 29 7 30 8 5 9 3 10 4 11 2 13
DOCKED: REMARK SMILES IDX 1 14 6 15 7 16 11 17 8 18 10 19 9 20 18 21 20 22 21 23 28 24
DOCKED: REMARK SMILES IDX 22 25 27 26 23 27 26 28 24 29 25 30 19 31
DOCKED: REMARK H PARENT 4 12 19 32 19 33 19 34
DOCKED: USER                              x       y       z     vdW  Elec       q    Type
DOCKED: USER                           _______ _______ _______ _____ _____    ______ ____
DOCKED: ROOT
DOCKED: ATOM      1  C   UNL     1     141.355  74.695 219.789 -0.09 -0.08    +0.274 C  
DOCKED: ATOM      2  C   UNL     1     140.647  74.702 218.410 -0.03 -0.03    +0.098 C  
DOCKED: ATOM      3  C   UNL     1     141.289  75.679 217.397 -0.04 -0.04    +0.126 C  
DOCKED: ATOM      4  N   UNL     1     142.138  76.698 218.040 -0.08 +0.17    -0.337 N  
DOCKED: ATOM      5  C   UNL     1     142.181  78.029 217.478 -0.16 -0.20    +0.281 C  
DOCKED: ATOM      6  O   UNL     1     141.834  78.206 216.278 -0.09 +0.19    -0.268 OA 
DOCKED: ATOM      7  C   UNL     1     143.122  76.305 219.068 -0.30 -0.08    +0.126 C  
DOCKED: ATOM      8  C   UNL     1     142.864  74.890 219.596 -0.26 -0.04    +0.098 C  
DOCKED: ENDROOT
DOCKED: BRANCH   1   9
DOCKED: ATOM      9  N   UNL     1     141.072  73.475 220.597 -0.13 +0.03    -0.162 N  
DOCKED: BRANCH   9  10
DOCKED: ATOM     10  C   UNL     1     140.283  73.498 221.658 -0.16 -0.04    +0.339 C  
DOCKED: BRANCH  10  11
DOCKED: ATOM     11  O   UNL     1     139.980  74.706 222.308 -0.67 +0.02    -0.463 OA 
DOCKED: ATOM     12  H   UNL     1     139.345  74.792 223.092 -0.45 -0.05    +0.299 HD 
DOCKED: ENDBRANCH  10  11
DOCKED: BRANCH  10  13
DOCKED: ATOM     13  C   UNL     1     139.677  72.235 222.244 -0.23 -0.03    +0.150 C  
DOCKED: ATOM     14  C   UNL     1     140.342  71.807 223.552 -0.37 -0.00    +0.019 C  
DOCKED: ENDBRANCH  10  13
DOCKED: ENDBRANCH   9  10
DOCKED: BRANCH   9  15
DOCKED: ATOM     15  C   UNL     1     141.778  72.259 220.276 -0.11 -0.03    +0.208 A  
DOCKED: ATOM     16  C   UNL     1     143.069  72.033 220.780 -0.24 -0.01    +0.079 A  
DOCKED: ATOM     17  C   UNL     1     141.167  71.285 219.471 -0.07 -0.01    +0.079 A  
DOCKED: ATOM     18  C   UNL     1     143.746  70.850 220.468 -0.19 -0.00    +0.007 A  
DOCKED: ATOM     19  C   UNL     1     141.847  70.101 219.164 -0.10 -0.00    +0.007 A  
DOCKED: ATOM     20  C   UNL     1     143.136  69.885 219.660 -0.18 -0.00    +0.000 A  
DOCKED: ENDBRANCH   9  15
DOCKED: ENDBRANCH   1   9
DOCKED: BRANCH   5  21
DOCKED: ATOM     21  C   UNL     1     142.566  79.231 218.325 -0.19 -0.24    +0.274 C  
DOCKED: BRANCH  21  22
DOCKED: ATOM     22  C   UNL     1     141.388  79.617 219.275 -0.22 -0.03    +0.066 C  
DOCKED: ATOM     23  C   UNL     1     141.699  80.832 220.191 -0.29 -0.02    +0.046 C  
DOCKED: ATOM     24  C   UNL     1     140.978  78.453 220.214 -0.22 -0.02    +0.046 C  
DOCKED: ATOM     25  C   UNL     1     141.794  80.236 221.543 -0.40 +0.02    -0.044 A  
DOCKED: ATOM     26  C   UNL     1     141.398  78.921 221.556 -0.35 +0.02    -0.044 A  
DOCKED: ATOM     27  C   UNL     1     142.195  80.882 222.714 -0.58 -0.00    +0.004 A  
DOCKED: ATOM     28  C   UNL     1     141.385  78.184 222.742 -0.49 -0.00    +0.004 A  
DOCKED: ATOM     29  C   UNL     1     142.196  80.158 223.917 -0.62 -0.00    +0.000 A  
DOCKED: ATOM     30  C   UNL     1     141.792  78.811 223.930 -0.61 -0.00    +0.000 A  
DOCKED: ENDBRANCH  21  22
DOCKED: BRANCH  21  31
DOCKED: ATOM     31  N   UNL     1     143.012  80.357 217.483 +0.03 +0.47    -0.347 N  
DOCKED: ATOM     32  H   UNL     1     142.401  81.188 217.661 +0.11 -0.28    +0.345 HD 
DOCKED: ATOM     33  H   UNL     1     142.926  80.118 216.470 -0.42 -0.63    +0.345 HD 
DOCKED: ATOM     34  H   UNL     1     144.002  80.623 217.683 -0.30 -0.65    +0.345 HD 
DOCKED: ENDBRANCH  21  31
DOCKED: ENDBRANCH   5  21
DOCKED: TORSDOF 8
DOCKED: TER
DOCKED: ENDMDL
________________________________________________________________________________


    FINAL DOCKED STATE:
    ________________________


Run:   16 / 20
Time taken for this run:   0.048s

DOCKED: MODEL        16
DOCKED: USER    Run = 16
DOCKED: USER
DOCKED: USER    Estimated Free Energy of Binding    =  -7.58 kcal/mol  [=(1)+(2)+(3)-(4)]
DOCKED: USER
DOCKED: USER    (1) Final Intermolecular Energy     =  -9.97 kcal/mol
DOCKED: USER        vdW + Hbond + desolv Energy     =  -8.34 kcal/mol
DOCKED: USER        Electrostatic Energy            =  -1.63 kcal/mol
DOCKED: USER        Moving Ligand-Fixed Receptor    =  -9.97 kcal/mol
DOCKED: USER        Moving Ligand-Moving Receptor   =  +0.00 kcal/mol
DOCKED: USER    (2) Final Total Internal Energy     =  -2.24 kcal/mol
DOCKED: USER    (3) Torsional Free Energy           =  +2.39 kcal/mol
DOCKED: USER    (4) Unbound System's Energy         =  -2.24 kcal/mol
DOCKED: USER
DOCKED: USER
DOCKED: REMARK SMILES CC/C(O)=[N+](/c1ccccc1)C1CCN(C(=O)[C@@H]([NH3+])C2Cc3ccccc3C2)CC1
DOCKED: REMARK SMILES IDX 12 1 13 2 14 3 15 4 16 5 17 6 29 7 30 8 5 9 3 10 4 11 2 13
DOCKED: REMARK SMILES IDX 1 14 6 15 7 16 11 17 8 18 10 19 9 20 18 21 20 22 21 23 28 24
DOCKED: REMARK SMILES IDX 22 25 27 26 23 27 26 28 24 29 25 30 19 31
DOCKED: REMARK H PARENT 4 12 19 32 19 33 19 34
DOCKED: USER                              x       y       z     vdW  Elec       q    Type
DOCKED: USER                           _______ _______ _______ _____ _____    ______ ____
DOCKED: ROOT
DOCKED: ATOM      1  C   UNL     1     141.357  75.243 219.713 -0.10 -0.09    +0.274 C  
DOCKED: ATOM      2  C   UNL     1     140.754  75.211 218.286 -0.04 -0.03    +0.098 C  
DOCKED: ATOM      3  C   UNL     1     141.472  76.157 217.295 -0.06 -0.05    +0.126 C  
DOCKED: ATOM      4  N   UNL     1     142.275  77.193 217.970 -0.11 +0.20    -0.337 N  
DOCKED: ATOM      5  C   UNL     1     142.364  78.507 217.374 -0.17 -0.24    +0.281 C  
DOCKED: ATOM      6  O   UNL     1     142.108  78.649 216.147 -0.12 +0.24    -0.268 OA 
DOCKED: ATOM      7  C   UNL     1     143.178  76.829 219.079 -0.28 -0.09    +0.126 C  
DOCKED: ATOM      8  C   UNL     1     142.877  75.430 219.627 -0.30 -0.05    +0.098 C  
DOCKED: ENDROOT
DOCKED: BRANCH   1   9
DOCKED: ATOM      9  N   UNL     1     141.011  74.047 220.533 -0.14 +0.03    -0.162 N  
DOCKED: BRANCH   9  10
DOCKED: ATOM     10  C   UNL     1     140.126  74.097 221.515 -0.17 -0.05    +0.339 C  
DOCKED: BRANCH  10  11
DOCKED: ATOM     11  O   UNL     1     140.296  73.334 222.682 -0.62 -0.02    -0.463 OA 
DOCKED: ATOM     12  H   UNL     1     139.603  73.246 223.415 -0.34 -0.09    +0.299 HD 
DOCKED: ENDBRANCH  10  11
DOCKED: BRANCH  10  13
DOCKED: ATOM     13  C   UNL     1     138.877  74.958 221.434 -0.19 -0.03    +0.150 C  
DOCKED: ATOM     14  C   UNL     1     138.928  76.168 222.366 -0.31 -0.00    +0.019 C  
DOCKED: ENDBRANCH  10  13
DOCKED: ENDBRANCH   9  10
DOCKED: BRANCH   9  15
DOCKED: ATOM     15  C   UNL     1     141.755  72.831 220.322 -0.12 -0.03    +0.208 A  
DOCKED: ATOM     16  C   UNL     1     143.052  72.691 220.843 -0.25 -0.01    +0.079 A  
DOCKED: ATOM     17  C   UNL     1     141.176  71.769 219.609 -0.08 -0.01    +0.079 A  
DOCKED: ATOM     18  C   UNL     1     143.766  71.507 220.637 -0.28 -0.00    +0.007 A  
DOCKED: ATOM     19  C   UNL     1     141.893  70.584 219.408 -0.11 -0.00    +0.007 A  
DOCKED: ATOM     20  C   UNL     1     143.188  70.455 219.920 -0.18 -0.00    +0.000 A  
DOCKED: ENDBRANCH   9  15
DOCKED: ENDBRANCH   1   9
DOCKED: BRANCH   5  21
DOCKED: ATOM     21  C   UNL     1     142.689  79.733 218.211 -0.17 -0.26    +0.274 C  
DOCKED: BRANCH  21  22
DOCKED: ATOM     22  C   UNL     1     141.503  80.055 219.173 -0.24 -0.03    +0.066 C  
DOCKED: ATOM     23  C   UNL     1     141.821  81.173 220.204 -0.23 -0.02    +0.046 C  
DOCKED: ATOM     24  C   UNL     1     141.050  78.819 219.993 -0.22 -0.02    +0.046 C  
DOCKED: ATOM     25  C   UNL     1     141.878  80.452 221.495 -0.40 +0.02    -0.044 A  
DOCKED: ATOM     26  C   UNL     1     141.454  79.151 221.380 -0.35 +0.02    -0.044 A  
DOCKED: ATOM     27  C   UNL     1     142.270  80.976 222.728 -0.56 -0.00    +0.004 A  
DOCKED: ATOM     28  C   UNL     1     141.404  78.307 222.491 -0.47 -0.00    +0.004 A  
DOCKED: ATOM     29  C   UNL     1     142.234  80.144 223.858 -0.64 -0.00    +0.000 A  
DOCKED: ATOM     30  C   UNL     1     141.801  78.811 223.739 -0.62 -0.00    +0.000 A  
DOCKED: ENDBRANCH  21  22
DOCKED: BRANCH  21  31
DOCKED: ATOM     31  N   UNL     1     143.061  80.879 217.360 +0.02 +0.46    -0.347 N  
DOCKED: ATOM     32  H   UNL     1     144.062  81.130 217.532 -0.23 -0.61    +0.345 HD 
DOCKED: ATOM     33  H   UNL     1     142.484  81.717 217.597 +0.12 -0.26    +0.345 HD 
DOCKED: ATOM     34  H   UNL     1     142.941  80.664 216.345 -0.41 -0.60    +0.345 HD 
DOCKED: ENDBRANCH  21  31
DOCKED: ENDBRANCH   5  21
DOCKED: TORSDOF 8
DOCKED: TER
DOCKED: ENDMDL
________________________________________________________________________________


    FINAL DOCKED STATE:
    ________________________


Run:   17 / 20
Time taken for this run:   0.048s

DOCKED: MODEL        17
DOCKED: USER    Run = 17
DOCKED: USER
DOCKED: USER    Estimated Free Energy of Binding    =  -6.34 kcal/mol  [=(1)+(2)+(3)-(4)]
DOCKED: USER
DOCKED: USER    (1) Final Intermolecular Energy     =  -8.72 kcal/mol
DOCKED: USER        vdW + Hbond + desolv Energy     =  -7.42 kcal/mol
DOCKED: USER        Electrostatic Energy            =  -1.31 kcal/mol
DOCKED: USER        Moving Ligand-Fixed Receptor    =  -8.72 kcal/mol
DOCKED: USER        Moving Ligand-Moving Receptor   =  +0.00 kcal/mol
DOCKED: USER    (2) Final Total Internal Energy     =  -2.94 kcal/mol
DOCKED: USER    (3) Torsional Free Energy           =  +2.39 kcal/mol
DOCKED: USER    (4) Unbound System's Energy         =  -2.94 kcal/mol
DOCKED: USER
DOCKED: USER
DOCKED: REMARK SMILES CC/C(O)=[N+](/c1ccccc1)C1CCN(C(=O)[C@@H]([NH3+])C2Cc3ccccc3C2)CC1
DOCKED: REMARK SMILES IDX 12 1 13 2 14 3 15 4 16 5 17 6 29 7 30 8 5 9 3 10 4 11 2 13
DOCKED: REMARK SMILES IDX 1 14 6 15 7 16 11 17 8 18 10 19 9 20 18 21 20 22 21 23 28 24
DOCKED: REMARK SMILES IDX 22 25 27 26 23 27 26 28 24 29 25 30 19 31
DOCKED: REMARK H PARENT 4 12 19 32 19 33 19 34
DOCKED: USER                              x       y       z     vdW  Elec       q    Type
DOCKED: USER                           _______ _______ _______ _____ _____    ______ ____
DOCKED: ROOT
DOCKED: ATOM      1  C   UNL     1     141.896  76.643 218.288 -0.11 -0.13    +0.274 C  
DOCKED: ATOM      2  C   UNL     1     142.794  76.285 219.499 -0.31 -0.06    +0.098 C  
DOCKED: ATOM      3  C   UNL     1     142.206  75.165 220.389 -0.25 -0.05    +0.126 C  
DOCKED: ATOM      4  N   UNL     1     140.761  74.963 220.179 -0.05 +0.09    -0.337 N  
DOCKED: ATOM      5  C   UNL     1     139.934  74.599 221.307 -0.18 -0.05    +0.281 C  
DOCKED: ATOM      6  O   UNL     1     140.470  74.089 222.328 -0.79 -0.02    -0.268 OA 
DOCKED: ATOM      7  C   UNL     1     140.214  74.873 218.811 -0.03 -0.03    +0.126 C  
DOCKED: ATOM      8  C   UNL     1     141.211  75.376 217.761 -0.04 -0.03    +0.098 C  
DOCKED: ENDROOT
DOCKED: BRANCH   1   9
DOCKED: ATOM      9  N   UNL     1     142.622  77.352 217.196 -0.18 +0.12    -0.162 N  
DOCKED: BRANCH   9  10
DOCKED: ATOM     10  C   UNL     1     143.513  76.743 216.430 -0.11 -0.25    +0.339 C  
DOCKED: BRANCH  10  11
DOCKED: ATOM     11  O   UNL     1     144.307  75.699 216.933 -0.07 +0.27    -0.463 OA 
DOCKED: ATOM     12  H   UNL     1     145.318  75.720 216.983 -0.45 -0.24    +0.299 HD 
DOCKED: ENDBRANCH  10  11
DOCKED: BRANCH  10  13
DOCKED: ATOM     13  C   UNL     1     143.743  77.142 214.983 -0.13 -0.14    +0.150 C  
DOCKED: ATOM     14  C   UNL     1     144.897  76.381 214.333 -0.17 -0.01    +0.019 C  
DOCKED: ENDBRANCH  10  13
DOCKED: ENDBRANCH   9  10
DOCKED: BRANCH   9  15
DOCKED: ATOM     15  C   UNL     1     142.430  78.773 217.054 -0.16 -0.21    +0.208 A  
DOCKED: ATOM     16  C   UNL     1     142.955  79.661 218.007 -0.22 -0.09    +0.079 A  
DOCKED: ATOM     17  C   UNL     1     141.732  79.279 215.945 -0.12 -0.07    +0.079 A  
DOCKED: ATOM     18  C   UNL     1     142.768  81.038 217.860 -0.35 -0.01    +0.007 A  
DOCKED: ATOM     19  C   UNL     1     141.551  80.659 215.800 -0.12 -0.01    +0.007 A  
DOCKED: ATOM     20  C   UNL     1     142.066  81.537 216.758 -0.21 -0.00    +0.000 A  
DOCKED: ENDBRANCH   9  15
DOCKED: ENDBRANCH   1   9
DOCKED: BRANCH   5  21
DOCKED: ATOM     21  C   UNL     1     138.441  74.888 221.317 -0.12 -0.06    +0.274 C  
DOCKED: BRANCH  21  22
DOCKED: ATOM     22  C   UNL     1     138.191  76.416 221.508 -0.18 -0.01    +0.066 C  
DOCKED: ATOM     23  C   UNL     1     138.758  77.290 220.355 -0.08 -0.01    +0.046 C  
DOCKED: ATOM     24  C   UNL     1     138.816  76.961 222.818 -0.13 -0.01    +0.046 C  
DOCKED: ATOM     25  C   UNL     1     139.886  78.012 220.985 -0.17 +0.01    -0.044 A  
DOCKED: ATOM     26  C   UNL     1     139.921  77.829 222.346 -0.34 +0.01    -0.044 A  
DOCKED: ATOM     27  C   UNL     1     140.820  78.827 220.342 -0.22 -0.00    +0.004 A  
DOCKED: ATOM     28  C   UNL     1     140.893  78.450 223.132 -0.49 -0.00    +0.004 A  
DOCKED: ATOM     29  C   UNL     1     141.810  79.456 221.112 -0.37 -0.00    +0.000 A  
DOCKED: ATOM     30  C   UNL     1     141.846  79.268 222.506 -0.53 -0.00    +0.000 A  
DOCKED: ENDBRANCH  21  22
DOCKED: BRANCH  21  31
DOCKED: ATOM     31  N   UNL     1     137.745  74.065 222.324 +0.02 +0.13    -0.347 N  
DOCKED: ATOM     32  H   UNL     1     138.426  73.407 222.768 -0.46 -0.18    +0.345 HD 
DOCKED: ATOM     33  H   UNL     1     136.998  73.487 221.876 +0.06 -0.09    +0.345 HD 
DOCKED: ATOM     34  H   UNL     1     137.312  74.652 223.072 -0.34 -0.18    +0.345 HD 
DOCKED: ENDBRANCH  21  31
DOCKED: ENDBRANCH   5  21
DOCKED: TORSDOF 8
DOCKED: TER
DOCKED: ENDMDL
________________________________________________________________________________


    FINAL DOCKED STATE:
    ________________________


Run:   18 / 20
Time taken for this run:   0.048s

DOCKED: MODEL        18
DOCKED: USER    Run = 18
DOCKED: USER
DOCKED: USER    Estimated Free Energy of Binding    =  -7.59 kcal/mol  [=(1)+(2)+(3)-(4)]
DOCKED: USER
DOCKED: USER    (1) Final Intermolecular Energy     =  -9.98 kcal/mol
DOCKED: USER        vdW + Hbond + desolv Energy     =  -8.34 kcal/mol
DOCKED: USER        Electrostatic Energy            =  -1.64 kcal/mol
DOCKED: USER        Moving Ligand-Fixed Receptor    =  -9.98 kcal/mol
DOCKED: USER        Moving Ligand-Moving Receptor   =  +0.00 kcal/mol
DOCKED: USER    (2) Final Total Internal Energy     =  -2.29 kcal/mol
DOCKED: USER    (3) Torsional Free Energy           =  +2.39 kcal/mol
DOCKED: USER    (4) Unbound System's Energy         =  -2.29 kcal/mol
DOCKED: USER
DOCKED: USER
DOCKED: REMARK SMILES CC/C(O)=[N+](/c1ccccc1)C1CCN(C(=O)[C@@H]([NH3+])C2Cc3ccccc3C2)CC1
DOCKED: REMARK SMILES IDX 12 1 13 2 14 3 15 4 16 5 17 6 29 7 30 8 5 9 3 10 4 11 2 13
DOCKED: REMARK SMILES IDX 1 14 6 15 7 16 11 17 8 18 10 19 9 20 18 21 20 22 21 23 28 24
DOCKED: REMARK SMILES IDX 22 25 27 26 23 27 26 28 24 29 25 30 19 31
DOCKED: REMARK H PARENT 4 12 19 32 19 33 19 34
DOCKED: USER                              x       y       z     vdW  Elec       q    Type
DOCKED: USER                           _______ _______ _______ _____ _____    ______ ____
DOCKED: ROOT
DOCKED: ATOM      1  C   UNL     1     141.491  75.533 219.736 -0.11 -0.10    +0.274 C  
DOCKED: ATOM      2  C   UNL     1     140.867  75.381 218.326 -0.05 -0.03    +0.098 C  
DOCKED: ATOM      3  C   UNL     1     141.534  76.283 217.261 -0.07 -0.05    +0.126 C  
DOCKED: ATOM      4  N   UNL     1     142.307  77.392 217.849 -0.12 +0.21    -0.337 N  
DOCKED: ATOM      5  C   UNL     1     142.337  78.664 217.164 -0.15 -0.26    +0.281 C  
DOCKED: ATOM      6  O   UNL     1     142.056  78.713 215.935 -0.11 +0.24    -0.268 OA 
DOCKED: ATOM      7  C   UNL     1     143.240  77.139 218.963 -0.19 -0.09    +0.126 C  
DOCKED: ATOM      8  C   UNL     1     143.001  75.770 219.610 -0.32 -0.05    +0.098 C  
DOCKED: ENDROOT
DOCKED: BRANCH   1   9
DOCKED: ATOM      9  N   UNL     1     141.203  74.385 220.642 -0.17 +0.04    -0.162 N  
DOCKED: BRANCH   9  10
DOCKED: ATOM     10  C   UNL     1     140.388  74.490 221.679 -0.14 -0.04    +0.339 C  
DOCKED: BRANCH  10  11
DOCKED: ATOM     11  O   UNL     1     140.014  73.359 222.423 -0.69 +0.04    -0.463 OA 
DOCKED: ATOM     12  H   UNL     1     139.266  73.343 223.105 -0.42 -0.12    +0.299 HD 
DOCKED: ENDBRANCH  10  11
DOCKED: BRANCH  10  13
DOCKED: ATOM     13  C   UNL     1     139.801  75.821 222.113 -0.26 -0.03    +0.150 C  
DOCKED: ATOM     14  C   UNL     1     138.388  76.051 221.578 -0.22 -0.00    +0.019 C  
DOCKED: ENDBRANCH  10  13
DOCKED: ENDBRANCH   9  10
DOCKED: BRANCH   9  15
DOCKED: ATOM     15  C   UNL     1     141.931  73.156 220.445 -0.15 -0.04    +0.208 A  
DOCKED: ATOM     16  C   UNL     1     141.307  72.048 219.848 -0.10 -0.01    +0.079 A  
DOCKED: ATOM     17  C   UNL     1     143.277  73.068 220.833 -0.26 -0.01    +0.079 A  
DOCKED: ATOM     18  C   UNL     1     142.020  70.861 219.656 -0.13 -0.00    +0.007 A  
DOCKED: ATOM     19  C   UNL     1     143.988  71.879 220.636 -0.32 -0.00    +0.007 A  
DOCKED: ATOM     20  C   UNL     1     143.359  70.776 220.051 -0.22 -0.00    +0.000 A  
DOCKED: ENDBRANCH   9  15
DOCKED: ENDBRANCH   1   9
DOCKED: BRANCH   5  21
DOCKED: ATOM     21  C   UNL     1     142.628  79.956 217.910 -0.19 -0.27    +0.274 C  
DOCKED: BRANCH  21  22
DOCKED: ATOM     22  C   UNL     1     141.443  80.302 218.865 -0.22 -0.03    +0.066 C  
DOCKED: ATOM     23  C   UNL     1     141.766  81.439 219.873 -0.20 -0.02    +0.046 C  
DOCKED: ATOM     24  C   UNL     1     140.985  79.084 219.710 -0.20 -0.02    +0.046 C  
DOCKED: ATOM     25  C   UNL     1     141.820  80.743 221.179 -0.37 +0.02    -0.044 A  
DOCKED: ATOM     26  C   UNL     1     141.391  79.442 221.089 -0.32 +0.02    -0.044 A  
DOCKED: ATOM     27  C   UNL     1     142.214  81.291 222.402 -0.46 -0.00    +0.004 A  
DOCKED: ATOM     28  C   UNL     1     141.337  78.621 222.217 -0.44 -0.00    +0.004 A  
DOCKED: ATOM     29  C   UNL     1     142.175  80.481 223.548 -0.64 -0.00    +0.000 A  
DOCKED: ATOM     30  C   UNL     1     141.736  79.148 223.455 -0.61 -0.00    +0.000 A  
DOCKED: ENDBRANCH  21  22
DOCKED: BRANCH  21  31
DOCKED: ATOM     31  N   UNL     1     142.948  81.053 216.977 +0.02 +0.46    -0.347 N  
DOCKED: ATOM     32  H   UNL     1     142.941  80.688 215.996 -0.43 -0.61    +0.345 HD 
DOCKED: ATOM     33  H   UNL     1     143.904  81.429 217.164 -0.20 -0.61    +0.345 HD 
DOCKED: ATOM     34  H   UNL     1     142.259  81.835 217.046 +0.11 -0.26    +0.345 HD 
DOCKED: ENDBRANCH  21  31
DOCKED: ENDBRANCH   5  21
DOCKED: TORSDOF 8
DOCKED: TER
DOCKED: ENDMDL
________________________________________________________________________________


    FINAL DOCKED STATE:
    ________________________


Run:   19 / 20
Time taken for this run:   0.048s

DOCKED: MODEL        19
DOCKED: USER    Run = 19
DOCKED: USER
DOCKED: USER    Estimated Free Energy of Binding    =  -7.54 kcal/mol  [=(1)+(2)+(3)-(4)]
DOCKED: USER
DOCKED: USER    (1) Final Intermolecular Energy     =  -9.92 kcal/mol
DOCKED: USER        vdW + Hbond + desolv Energy     =  -8.27 kcal/mol
DOCKED: USER        Electrostatic Energy            =  -1.65 kcal/mol
DOCKED: USER        Moving Ligand-Fixed Receptor    =  -9.92 kcal/mol
DOCKED: USER        Moving Ligand-Moving Receptor   =  +0.00 kcal/mol
DOCKED: USER    (2) Final Total Internal Energy     =  -2.35 kcal/mol
DOCKED: USER    (3) Torsional Free Energy           =  +2.39 kcal/mol
DOCKED: USER    (4) Unbound System's Energy         =  -2.35 kcal/mol
DOCKED: USER
DOCKED: USER
DOCKED: REMARK SMILES CC/C(O)=[N+](/c1ccccc1)C1CCN(C(=O)[C@@H]([NH3+])C2Cc3ccccc3C2)CC1
DOCKED: REMARK SMILES IDX 12 1 13 2 14 3 15 4 16 5 17 6 29 7 30 8 5 9 3 10 4 11 2 13
DOCKED: REMARK SMILES IDX 1 14 6 15 7 16 11 17 8 18 10 19 9 20 18 21 20 22 21 23 28 24
DOCKED: REMARK SMILES IDX 22 25 27 26 23 27 26 28 24 29 25 30 19 31
DOCKED: REMARK H PARENT 4 12 19 32 19 33 19 34
DOCKED: USER                              x       y       z     vdW  Elec       q    Type
DOCKED: USER                           _______ _______ _______ _____ _____    ______ ____
DOCKED: ROOT
DOCKED: ATOM      1  C   UNL     1     141.407  75.392 219.775 -0.11 -0.09    +0.274 C  
DOCKED: ATOM      2  C   UNL     1     140.737  75.283 218.382 -0.04 -0.03    +0.098 C  
DOCKED: ATOM      3  C   UNL     1     141.392  76.190 217.314 -0.06 -0.05    +0.126 C  
DOCKED: ATOM      4  N   UNL     1     142.209  77.269 217.900 -0.10 +0.20    -0.337 N  
DOCKED: ATOM      5  C   UNL     1     142.248  78.554 217.239 -0.16 -0.24    +0.281 C  
DOCKED: ATOM      6  O   UNL     1     141.932  78.633 216.020 -0.10 +0.22    -0.268 OA 
DOCKED: ATOM      7  C   UNL     1     143.169  76.972 218.980 -0.25 -0.09    +0.126 C  
DOCKED: ATOM      8  C   UNL     1     142.917  75.597 219.608 -0.31 -0.05    +0.098 C  
DOCKED: ENDROOT
DOCKED: BRANCH   1   9
DOCKED: ATOM      9  N   UNL     1     141.119  74.233 220.667 -0.16 +0.03    -0.162 N  
DOCKED: BRANCH   9  10
DOCKED: ATOM     10  C   UNL     1     140.304  74.325 221.704 -0.13 -0.04    +0.339 C  
DOCKED: BRANCH  10  11
DOCKED: ATOM     11  O   UNL     1     140.031  73.209 222.512 -0.64 +0.04    -0.463 OA 
DOCKED: ATOM     12  H   UNL     1     139.243  73.137 223.144 -0.39 -0.12    +0.299 HD 
DOCKED: ENDBRANCH  10  11
DOCKED: BRANCH  10  13
DOCKED: ATOM     13  C   UNL     1     139.606  75.623 222.072 -0.26 -0.03    +0.150 C  
DOCKED: ATOM     14  C   UNL     1     138.270  75.804 221.352 -0.18 -0.00    +0.019 C  
DOCKED: ENDBRANCH  10  13
DOCKED: ENDBRANCH   9  10
DOCKED: BRANCH   9  15
DOCKED: ATOM     15  C   UNL     1     141.848  73.007 220.456 -0.14 -0.03    +0.208 A  
DOCKED: ATOM     16  C   UNL     1     141.231  71.911 219.831 -0.09 -0.01    +0.079 A  
DOCKED: ATOM     17  C   UNL     1     143.190  72.910 220.858 -0.24 -0.01    +0.079 A  
DOCKED: ATOM     18  C   UNL     1     141.945  70.727 219.626 -0.12 -0.00    +0.007 A  
DOCKED: ATOM     19  C   UNL     1     143.902  71.725 220.648 -0.29 -0.00    +0.007 A  
DOCKED: ATOM     20  C   UNL     1     143.279  70.633 220.035 -0.20 -0.00    +0.000 A  
DOCKED: ENDBRANCH   9  15
DOCKED: ENDBRANCH   1   9
DOCKED: BRANCH   5  21
DOCKED: ATOM     21  C   UNL     1     142.592  79.823 218.001 -0.20 -0.26    +0.274 C  
DOCKED: BRANCH  21  22
DOCKED: ATOM     22  C   UNL     1     141.427  80.199 218.969 -0.22 -0.03    +0.066 C  
DOCKED: ATOM     23  C   UNL     1     141.810  81.284 220.013 -0.21 -0.02    +0.046 C  
DOCKED: ATOM     24  C   UNL     1     140.906  78.980 219.774 -0.19 -0.02    +0.046 C  
DOCKED: ATOM     25  C   UNL     1     141.828  80.544 221.296 -0.38 +0.02    -0.044 A  
DOCKED: ATOM     26  C   UNL     1     141.331  79.271 221.164 -0.32 +0.02    -0.044 A  
DOCKED: ATOM     27  C   UNL     1     142.251  81.030 222.534 -0.53 -0.00    +0.004 A  
DOCKED: ATOM     28  C   UNL     1     141.234  78.417 222.265 -0.44 -0.00    +0.004 A  
DOCKED: ATOM     29  C   UNL     1     142.169  80.187 223.654 -0.64 -0.00    +0.000 A  
DOCKED: ATOM     30  C   UNL     1     141.662  78.882 223.519 -0.61 -0.00    +0.000 A  
DOCKED: ENDBRANCH  21  22
DOCKED: BRANCH  21  31
DOCKED: ATOM     31  N   UNL     1     142.945  80.920 217.081 +0.01 +0.47    -0.347 N  
DOCKED: ATOM     32  H   UNL     1     142.946  80.563 216.097 -0.43 -0.63    +0.345 HD 
DOCKED: ATOM     33  H   UNL     1     143.906  81.278 217.284 -0.23 -0.62    +0.345 HD 
DOCKED: ATOM     34  H   UNL     1     142.270  81.715 217.146 +0.11 -0.26    +0.345 HD 
DOCKED: ENDBRANCH  21  31
DOCKED: ENDBRANCH   5  21
DOCKED: TORSDOF 8
DOCKED: TER
DOCKED: ENDMDL
________________________________________________________________________________


    FINAL DOCKED STATE:
    ________________________


Run:   20 / 20
Time taken for this run:   0.048s

DOCKED: MODEL        20
DOCKED: USER    Run = 20
DOCKED: USER
DOCKED: USER    Estimated Free Energy of Binding    =  -6.37 kcal/mol  [=(1)+(2)+(3)-(4)]
DOCKED: USER
DOCKED: USER    (1) Final Intermolecular Energy     =  -8.75 kcal/mol
DOCKED: USER        vdW + Hbond + desolv Energy     =  -7.44 kcal/mol
DOCKED: USER        Electrostatic Energy            =  -1.32 kcal/mol
DOCKED: USER        Moving Ligand-Fixed Receptor    =  -8.75 kcal/mol
DOCKED: USER        Moving Ligand-Moving Receptor   =  +0.00 kcal/mol
DOCKED: USER    (2) Final Total Internal Energy     =  -2.89 kcal/mol
DOCKED: USER    (3) Torsional Free Energy           =  +2.39 kcal/mol
DOCKED: USER    (4) Unbound System's Energy         =  -2.89 kcal/mol
DOCKED: USER
DOCKED: USER
DOCKED: REMARK SMILES CC/C(O)=[N+](/c1ccccc1)C1CCN(C(=O)[C@@H]([NH3+])C2Cc3ccccc3C2)CC1
DOCKED: REMARK SMILES IDX 12 1 13 2 14 3 15 4 16 5 17 6 29 7 30 8 5 9 3 10 4 11 2 13
DOCKED: REMARK SMILES IDX 1 14 6 15 7 16 11 17 8 18 10 19 9 20 18 21 20 22 21 23 28 24
DOCKED: REMARK SMILES IDX 22 25 27 26 23 27 26 28 24 29 25 30 19 31
DOCKED: REMARK H PARENT 4 12 19 32 19 33 19 34
DOCKED: USER                              x       y       z     vdW  Elec       q    Type
DOCKED: USER                           _______ _______ _______ _____ _____    ______ ____
DOCKED: ROOT
DOCKED: ATOM      1  C   UNL     1     141.874  76.615 218.262 -0.10 -0.13    +0.274 C  
DOCKED: ATOM      2  C   UNL     1     142.775  76.285 219.480 -0.31 -0.06    +0.098 C  
DOCKED: ATOM      3  C   UNL     1     142.198  75.172 220.385 -0.25 -0.05    +0.126 C  
DOCKED: ATOM      4  N   UNL     1     140.755  74.952 220.177 -0.05 +0.09    -0.337 N  
DOCKED: ATOM      5  C   UNL     1     139.931  74.596 221.310 -0.18 -0.05    +0.281 C  
DOCKED: ATOM      6  O   UNL     1     140.471  74.106 222.339 -0.79 -0.02    -0.268 OA 
DOCKED: ATOM      7  C   UNL     1     140.210  74.835 218.810 -0.03 -0.03    +0.126 C  
DOCKED: ATOM      8  C   UNL     1     141.203  75.333 217.754 -0.04 -0.03    +0.098 C  
DOCKED: ENDROOT
DOCKED: BRANCH   1   9
DOCKED: ATOM      9  N   UNL     1     142.594  77.315 217.161 -0.18 +0.11    -0.162 N  
DOCKED: BRANCH   9  10
DOCKED: ATOM     10  C   UNL     1     143.466  76.695 216.382 -0.12 -0.25    +0.339 C  
DOCKED: BRANCH  10  11
DOCKED: ATOM     11  O   UNL     1     144.233  75.622 216.864 -0.08 +0.26    -0.463 OA 
DOCKED: ATOM     12  H   UNL     1     145.217  75.679 217.097 -0.47 -0.24    +0.299 HD 
DOCKED: ENDBRANCH  10  11
DOCKED: BRANCH  10  13
DOCKED: ATOM     13  C   UNL     1     143.701  77.111 214.940 -0.14 -0.14    +0.150 C  
DOCKED: ATOM     14  C   UNL     1     144.860  76.360 214.286 -0.16 -0.01    +0.019 C  
DOCKED: ENDBRANCH  10  13
DOCKED: ENDBRANCH   9  10
DOCKED: BRANCH   9  15
DOCKED: ATOM     15  C   UNL     1     142.419  78.739 217.022 -0.16 -0.21    +0.208 A  
DOCKED: ATOM     16  C   UNL     1     142.930  79.616 217.992 -0.23 -0.09    +0.079 A  
DOCKED: ATOM     17  C   UNL     1     141.752  79.258 215.901 -0.12 -0.07    +0.079 A  
DOCKED: ATOM     18  C   UNL     1     142.760  80.996 217.849 -0.35 -0.01    +0.007 A  
DOCKED: ATOM     19  C   UNL     1     141.586  80.640 215.760 -0.12 -0.01    +0.007 A  
DOCKED: ATOM     20  C   UNL     1     142.088  81.508 216.734 -0.21 -0.00    +0.000 A  
DOCKED: ENDBRANCH   9  15
DOCKED: ENDBRANCH   1   9
DOCKED: BRANCH   5  21
DOCKED: ATOM     21  C   UNL     1     138.436  74.869 221.315 -0.12 -0.06    +0.274 C  
DOCKED: BRANCH  21  22
DOCKED: ATOM     22  C   UNL     1     138.170  76.396 221.495 -0.18 -0.01    +0.066 C  
DOCKED: ATOM     23  C   UNL     1     138.730  77.268 220.338 -0.08 -0.01    +0.046 C  
DOCKED: ATOM     24  C   UNL     1     138.785  76.956 222.804 -0.16 -0.01    +0.046 C  
DOCKED: ATOM     25  C   UNL     1     139.850  78.006 220.966 -0.17 +0.01    -0.044 A  
DOCKED: ATOM     26  C   UNL     1     139.882  77.832 222.328 -0.34 +0.01    -0.044 A  
DOCKED: ATOM     27  C   UNL     1     140.777  78.826 220.320 -0.21 -0.00    +0.004 A  
DOCKED: ATOM     28  C   UNL     1     140.845  78.469 223.113 -0.48 -0.00    +0.004 A  
DOCKED: ATOM     29  C   UNL     1     141.759  79.470 221.089 -0.37 -0.00    +0.000 A  
DOCKED: ATOM     30  C   UNL     1     141.793  79.292 222.484 -0.52 -0.00    +0.000 A  
DOCKED: ENDBRANCH  21  22
DOCKED: BRANCH  21  31
DOCKED: ATOM     31  N   UNL     1     137.745  74.046 222.326 +0.02 +0.13    -0.347 N  
DOCKED: ATOM     32  H   UNL     1     137.333  74.670 223.058 -0.34 -0.18    +0.345 HD 
DOCKED: ATOM     33  H   UNL     1     138.419  73.407 222.804 -0.46 -0.18    +0.345 HD 
DOCKED: ATOM     34  H   UNL     1     136.980  73.474 221.905 +0.06 -0.09    +0.345 HD 
DOCKED: ENDBRANCH  21  31
DOCKED: ENDBRANCH   5  21
DOCKED: TORSDOF 8
DOCKED: TER
DOCKED: ENDMDL
________________________________________________________________________________


    CLUSTERING HISTOGRAM
    ____________________


________________________________________________________________________________
     |           |     |           |     |
Clus | Lowest    | Run | Mean      | Num | Histogram
-ter | Binding   |     | Binding   | in  |
Rank | Energy    |     | Energy    | Clus|    5    10   15   20   25   30   35
_____|___________|_____|___________|_____|____:____|____:____|____:____|____:___
   1 |     -7.95 |   9 |     -7.69 |  15 |###############
   2 |     -7.32 |   4 |     -7.32 |   1 |#
   3 |     -6.39 |   8 |     -6.37 |   4 |####
_____|___________|_____|___________|_____|______________________________________


    RMSD TABLE
    __________


_______________________________________________________________________
     |      |      |           |         |                 |
Rank | Sub- | Run  | Binding   | Cluster | Reference       | Grep
     | Rank |      | Energy    | RMSD    | RMSD            | Pattern
_____|______|______|___________|_________|_________________|___________
   1      1      9       -7.95      0.00    268.32           RANKING
   1      2     10       -7.89      0.22    268.37           RANKING
   1      3      7       -7.87      0.26    268.32           RANKING
   1      4     13       -7.82      0.49    268.40           RANKING
   1      5     12       -7.76      0.47    268.36           RANKING
   1      6     15       -7.75      0.45    268.35           RANKING
   1      7      5       -7.68      1.27    268.65           RANKING
   1      8     11       -7.64      1.28    268.66           RANKING
   1      9      3       -7.64      1.27    268.63           RANKING
   1     10     14       -7.61      0.84    268.47           RANKING
   1     11     18       -7.59      1.24    268.39           RANKING
   1     12     16       -7.58      1.09    268.43           RANKING
   1     13      6       -7.57      1.10    268.45           RANKING
   1     14     19       -7.54      1.16    268.35           RANKING
   1     15      2       -7.47      1.16    268.42           RANKING
   2      1      4       -7.32      0.00    268.50           RANKING
   3      1      8       -6.39      0.00    267.70           RANKING
   3      2      1       -6.37      0.26    267.76           RANKING
   3      3     20       -6.37      0.05    267.68           RANKING
   3      4     17       -6.34      0.07    267.71           RANKING

Run time 0.918 sec
Idle time 0.000 sec
