AutoDock-GPU version: v1.6

**********************************************************
**    AutoDock-GPU AUTODOCKTOOLS-COMPATIBLE DLG FILE    **
**********************************************************


    DOCKING PARAMETERS
    ________________________


Ligand file:                               /home/a/REINVENT4/ReinventStudies/scoringData/graph-dock-h4r84i/graph-DockGPU/node-autodockgpu/inputs/MCZRVQBLWAUNOI-GTRIPGICNA-P.pdbqt
Grid fld file:                             /home/a/REINVENT4/ReinventStudies/mols/Rad51/maps/rad51_receptor.maps.fld

Random seed:                               42
Number of runs:                            20
Number of energy evaluations:              2040163
Number of generations:                     42000
Size of population:                        150
Rate of crossover:                         80.000000%
Tournament selection probability limit:    60.000000%
Rate of mutation:                          2.000000%
Maximal allowed delta movement:            +/- 6.000000A
Maximal allowed delta angle:               +/- 90.000000

Rate of local search:                      100.000000%
Maximal number of local search iterations: 300
Rho lower bound:                           0.010000
Spread of local search delta movement:     2.000000A
Spread of local search delta angle:        74.999999
Limit of consecutive successes/failures:   4

Handle symmetry during clustering:         YES
RMSD tolerance:                            2.000000A

Program call in command line was:          /home/a/REINVENT4/ReinventStudies/adgpu-v1.6_linux_x64_cuda12_128wi --filelist batch.txt --heuristics 1 --nrun 20 --psize 150 --lsit 300 --seed 42 --heurmax 12000000 


    GRID PARAMETERS
    ________________________


Receptor name:                             rad51_receptor
Number of grid points (x, y, z):           53, 53, 53
Grid center (x, y, z):                     139.950000, 75.640000, 221.970000A
Grid size (x, y, z):                       19.500000, 19.500000, 19.500000A
Grid spacing:                              0.375000A


    LIGAND PARAMETERS
    ________________________


Ligand name:                               /home/a/REINVENT4/ReinventStudies/scoringData/graph-dock-h4r84i/graph-DockGPU/node-autodockgpu/inputs/MCZRVQBLWAUNOI-GTRIPGICNA-P
Number of atoms:                           34
Number of rotatable bonds:                 9
Number of atom types:                      5


    DUMMY DATA (only for ADT-compatibility)
    ________________________


DPF> outlev 1
DPF> ga_run 20
DPF> fld /home/a/REINVENT4/ReinventStudies/mols/Rad51/maps/rad51_receptor.maps.fld
DPF> move /home/a/REINVENT4/ReinventStudies/scoringData/graph-dock-h4r84i/graph-DockGPU/node-autodockgpu/inputs/MCZRVQBLWAUNOI-GTRIPGICNA-P.pdbqt


    COUNTER STATES
    ________________________


Number of energy evaluations performed:    1242176
Number of generations used:                60


    INPUT LIGAND PDBQT FILE:
    ________________________


INPUT-LIGAND-PDBQT: REMARK SMILES CCC(=O)N(c1ccccc1)C1CC[N+](=C(O)[C@@H]([NH3+])C2Cc3ccccc3C2)CC1
INPUT-LIGAND-PDBQT: REMARK SMILES IDX 12 1 13 2 14 3 15 4 29 5 30 6 5 7 3 8 4 9 2 10 1 11 6 12
INPUT-LIGAND-PDBQT: REMARK SMILES IDX 7 13 11 14 8 15 10 16 9 17 16 18 17 19 18 21 19 22 20 26
INPUT-LIGAND-PDBQT: REMARK SMILES IDX 21 27 28 28 22 29 27 30 23 31 26 32 24 33 25 34
INPUT-LIGAND-PDBQT: REMARK H PARENT 17 20 19 23 19 24 19 25
INPUT-LIGAND-PDBQT: ROOT
INPUT-LIGAND-PDBQT: ATOM      1  C   UNL     1      -0.987  -0.214  -1.685  1.00  0.00     0.103 C 
INPUT-LIGAND-PDBQT: ATOM      2  C   UNL     1      -0.575  -1.697  -1.712  1.00  0.00     0.098 C 
INPUT-LIGAND-PDBQT: ATOM      3  C   UNL     1       0.687  -1.891  -0.853  1.00  0.00     0.356 C 
INPUT-LIGAND-PDBQT: ATOM      4  N   UNL     1       1.661  -0.788  -1.033  1.00  0.00    -0.197 N 
INPUT-LIGAND-PDBQT: ATOM      5  C   UNL     1       1.506   0.032  -2.255  1.00  0.00     0.356 C 
INPUT-LIGAND-PDBQT: ATOM      6  C   UNL     1       0.114   0.688  -2.310  1.00  0.00     0.098 C 
INPUT-LIGAND-PDBQT: ENDROOT
INPUT-LIGAND-PDBQT: BRANCH   1   7
INPUT-LIGAND-PDBQT: ATOM      7  N   UNL     1      -2.328  -0.018  -2.286  1.00  0.00    -0.309 N 
INPUT-LIGAND-PDBQT: BRANCH   7   8
INPUT-LIGAND-PDBQT: ATOM      8  C   UNL     1      -3.529  -0.208  -1.501  1.00  0.00     0.226 C 
INPUT-LIGAND-PDBQT: ATOM      9  O   UNL     1      -4.592  -0.576  -2.078  1.00  0.00    -0.275 OA
INPUT-LIGAND-PDBQT: BRANCH   8  10
INPUT-LIGAND-PDBQT: ATOM     10  C   UNL     1      -3.530  -0.004  -0.004  1.00  0.00     0.097 C 
INPUT-LIGAND-PDBQT: ATOM     11  C   UNL     1      -4.937   0.130   0.578  1.00  0.00     0.014 C 
INPUT-LIGAND-PDBQT: ENDBRANCH   8  10
INPUT-LIGAND-PDBQT: ENDBRANCH   7   8
INPUT-LIGAND-PDBQT: BRANCH   7  12
INPUT-LIGAND-PDBQT: ATOM     12  C   UNL     1      -2.496   0.255  -3.690  1.00  0.00     0.044 A 
INPUT-LIGAND-PDBQT: ATOM     13  C   UNL     1      -2.957   1.517  -4.097  1.00  0.00     0.026 A 
INPUT-LIGAND-PDBQT: ATOM     14  C   UNL     1      -2.221  -0.726  -4.657  1.00  0.00     0.026 A 
INPUT-LIGAND-PDBQT: ATOM     15  C   UNL     1      -3.123   1.801  -5.456  1.00  0.00     0.002 A 
INPUT-LIGAND-PDBQT: ATOM     16  C   UNL     1      -2.390  -0.438  -6.016  1.00  0.00     0.002 A 
INPUT-LIGAND-PDBQT: ATOM     17  C   UNL     1      -2.836   0.826  -6.415  1.00  0.00     0.000 A 
INPUT-LIGAND-PDBQT: ENDBRANCH   7  12
INPUT-LIGAND-PDBQT: ENDBRANCH   1   7
INPUT-LIGAND-PDBQT: BRANCH   4  18
INPUT-LIGAND-PDBQT: ATOM     18  C   UNL     1       2.651  -0.588  -0.178  1.00  0.00     0.394 C 
INPUT-LIGAND-PDBQT: BRANCH  18  19
INPUT-LIGAND-PDBQT: ATOM     19  O   UNL     1       3.428   0.577  -0.219  1.00  0.00    -0.459 OA
INPUT-LIGAND-PDBQT: ATOM     20  H   UNL     1       3.098   1.459  -0.584  1.00  0.00     0.299 HD
INPUT-LIGAND-PDBQT: ENDBRANCH  18  19
INPUT-LIGAND-PDBQT: BRANCH  18  21
INPUT-LIGAND-PDBQT: ATOM     21  C   UNL     1       3.042  -1.597   0.900  1.00  0.00     0.322 C 
INPUT-LIGAND-PDBQT: BRANCH  21  22
INPUT-LIGAND-PDBQT: ATOM     22  N   UNL     1       4.350  -2.176   0.559  1.00  0.00    -0.343 N 
INPUT-LIGAND-PDBQT: ATOM     23  H   UNL     1       4.305  -2.607  -0.394  1.00  0.00     0.345 HD
INPUT-LIGAND-PDBQT: ATOM     24  H   UNL     1       4.605  -2.929   1.237  1.00  0.00     0.345 HD
INPUT-LIGAND-PDBQT: ATOM     25  H   UNL     1       5.094  -1.442   0.567  1.00  0.00     0.345 HD
INPUT-LIGAND-PDBQT: ENDBRANCH  21  22
INPUT-LIGAND-PDBQT: BRANCH  21  26
INPUT-LIGAND-PDBQT: ATOM     26  C   UNL     1       3.092  -0.907   2.293  1.00  0.00     0.071 C 
INPUT-LIGAND-PDBQT: ATOM     27  C   UNL     1       3.406  -1.888   3.451  1.00  0.00     0.046 C 
INPUT-LIGAND-PDBQT: ATOM     28  C   UNL     1       1.762  -0.206   2.674  1.00  0.00     0.046 C 
INPUT-LIGAND-PDBQT: ATOM     29  C   UNL     1       2.538  -1.412   4.554  1.00  0.00    -0.044 A 
INPUT-LIGAND-PDBQT: ATOM     30  C   UNL     1       1.625  -0.482   4.122  1.00  0.00    -0.044 A 
INPUT-LIGAND-PDBQT: ATOM     31  C   UNL     1       2.560  -1.839   5.884  1.00  0.00     0.004 A 
INPUT-LIGAND-PDBQT: ATOM     32  C   UNL     1       0.681   0.064   4.995  1.00  0.00     0.004 A 
INPUT-LIGAND-PDBQT: ATOM     33  C   UNL     1       1.628  -1.293   6.782  1.00  0.00     0.000 A 
INPUT-LIGAND-PDBQT: ATOM     34  C   UNL     1       0.689  -0.345   6.338  1.00  0.00     0.000 A 
INPUT-LIGAND-PDBQT: ENDBRANCH  21  26
INPUT-LIGAND-PDBQT: ENDBRANCH  18  21
INPUT-LIGAND-PDBQT: ENDBRANCH   4  18
INPUT-LIGAND-PDBQT: TORSDOF 9


    FINAL DOCKED STATE:
    ________________________


Run:   1 / 20
Time taken for this run:   0.062s

DOCKED: MODEL        1
DOCKED: USER    Run = 1
DOCKED: USER
DOCKED: USER    Estimated Free Energy of Binding    =  -8.04 kcal/mol  [=(1)+(2)+(3)-(4)]
DOCKED: USER
DOCKED: USER    (1) Final Intermolecular Energy     = -10.73 kcal/mol
DOCKED: USER        vdW + Hbond + desolv Energy     = -10.05 kcal/mol
DOCKED: USER        Electrostatic Energy            =  -0.68 kcal/mol
DOCKED: USER        Moving Ligand-Fixed Receptor    = -10.73 kcal/mol
DOCKED: USER        Moving Ligand-Moving Receptor   =  +0.00 kcal/mol
DOCKED: USER    (2) Final Total Internal Energy     =  -1.70 kcal/mol
DOCKED: USER    (3) Torsional Free Energy           =  +2.68 kcal/mol
DOCKED: USER    (4) Unbound System's Energy         =  -1.70 kcal/mol
DOCKED: USER
DOCKED: USER
DOCKED: REMARK SMILES CCC(=O)N(c1ccccc1)C1CC[N+](=C(O)[C@@H]([NH3+])C2Cc3ccccc3C2)CC1
DOCKED: REMARK SMILES IDX 12 1 13 2 14 3 15 4 29 5 30 6 5 7 3 8 4 9 2 10 1 11 6 12
DOCKED: REMARK SMILES IDX 7 13 11 14 8 15 10 16 9 17 16 18 17 19 18 21 19 22 20 26
DOCKED: REMARK SMILES IDX 21 27 28 28 22 29 27 30 23 31 26 32 24 33 25 34
DOCKED: REMARK H PARENT 17 20 19 23 19 24 19 25
DOCKED: USER                              x       y       z     vdW  Elec       q    Type
DOCKED: USER                           _______ _______ _______ _____ _____    ______ ____
DOCKED: ROOT
DOCKED: ATOM      1  C   UNL     1     143.257  71.035 220.251 -0.16 -0.01    +0.103 C  
DOCKED: ATOM      2  C   UNL     1     142.890  72.529 220.299 -0.22 -0.01    +0.098 C  
DOCKED: ATOM      3  C   UNL     1     141.581  72.707 221.089 -0.12 -0.04    +0.356 C  
DOCKED: ATOM      4  N   UNL     1     140.590  71.651 220.774 -0.09 +0.03    -0.197 N  
DOCKED: ATOM      5  C   UNL     1     140.800  70.909 219.511 -0.03 -0.06    +0.356 C  
DOCKED: ATOM      6  C   UNL     1     142.173  70.213 219.499 -0.10 -0.01    +0.098 C  
DOCKED: ENDROOT
DOCKED: BRANCH   1   7
DOCKED: ATOM      7  N   UNL     1     144.628  70.835 219.723 -0.11 -0.03    -0.309 N  
DOCKED: BRANCH   7   8
DOCKED: ATOM      8  C   UNL     1     145.529  71.954 219.553 -0.22 +0.09    +0.226 C  
DOCKED: ATOM      9  O   UNL     1     145.825  72.337 218.385 -0.67 -0.28    -0.275 OA 
DOCKED: BRANCH   8  10
DOCKED: ATOM     10  C   UNL     1     146.100  72.691 220.742 -0.39 +0.01    +0.097 C  
DOCKED: ATOM     11  C   UNL     1     145.711  74.169 220.769 -0.55 -0.00    +0.014 C  
DOCKED: ENDBRANCH   8  10
DOCKED: ENDBRANCH   7   8
DOCKED: BRANCH   7  12
DOCKED: ATOM     12  C   UNL     1     145.078  69.550 219.253 -0.28 +0.01    +0.044 A  
DOCKED: ATOM     13  C   UNL     1     144.793  68.401 220.008 -0.32 +0.01    +0.026 A  
DOCKED: ATOM     14  C   UNL     1     145.811  69.431 218.061 -0.27 +0.01    +0.026 A  
DOCKED: ATOM     15  C   UNL     1     145.220  67.145 219.566 -0.48 -0.00    +0.002 A  
DOCKED: ATOM     16  C   UNL     1     146.238  68.172 217.623 -0.28 +0.00    +0.002 A  
DOCKED: ATOM     17  C   UNL     1     145.938  67.030 218.373 -0.50 -0.00    +0.000 A  
DOCKED: ENDBRANCH   7  12
DOCKED: ENDBRANCH   1   7
DOCKED: BRANCH   4  18
DOCKED: ATOM     18  C   UNL     1     139.542  71.428 221.550 -0.07 -0.07    +0.394 C  
DOCKED: BRANCH  18  19
DOCKED: ATOM     19  O   UNL     1     138.401  70.774 221.067 -0.00 +0.08    -0.459 OA 
DOCKED: ATOM     20  H   UNL     1     137.960  70.993 220.185 +0.03 -0.05    +0.299 HD 
DOCKED: ENDBRANCH  18  19
DOCKED: BRANCH  18  21
DOCKED: ATOM     21  C   UNL     1     139.473  71.870 223.011 -0.17 -0.07    +0.322 C  
DOCKED: BRANCH  21  22
DOCKED: ATOM     22  N   UNL     1     138.066  71.889 223.437 +0.00 +0.12    -0.343 N  
DOCKED: ATOM     23  H   UNL     1     138.014  71.824 224.481 -0.19 -0.14    +0.345 HD 
DOCKED: ATOM     24  H   UNL     1     137.552  71.070 223.042 +0.09 -0.07    +0.345 HD 
DOCKED: ATOM     25  H   UNL     1     137.596  72.770 223.126 -0.35 -0.17    +0.345 HD 
DOCKED: ENDBRANCH  21  22
DOCKED: BRANCH  21  26
DOCKED: ATOM     26  C   UNL     1     140.306  70.908 223.906 -0.33 -0.01    +0.071 C  
DOCKED: ATOM     27  C   UNL     1     139.556  69.598 224.259 -0.31 -0.01    +0.046 C  
DOCKED: ATOM     28  C   UNL     1     140.722  71.542 225.258 -0.50 -0.01    +0.046 C  
DOCKED: ATOM     29  C   UNL     1     139.941  69.349 225.669 -0.43 +0.01    -0.044 A  
DOCKED: ATOM     30  C   UNL     1     140.584  70.428 226.223 -0.54 +0.01    -0.044 A  
DOCKED: ATOM     31  C   UNL     1     139.679  68.200 226.419 -0.61 -0.00    +0.004 A  
DOCKED: ATOM     32  C   UNL     1     140.993  70.417 227.559 -0.62 -0.00    +0.004 A  
DOCKED: ATOM     33  C   UNL     1     140.094  68.163 227.761 -0.64 -0.00    +0.000 A  
DOCKED: ATOM     34  C   UNL     1     140.748  69.270 228.330 -0.63 -0.00    +0.000 A  
DOCKED: ENDBRANCH  21  26
DOCKED: ENDBRANCH  18  21
DOCKED: ENDBRANCH   4  18
DOCKED: TORSDOF 9
DOCKED: TER
DOCKED: ENDMDL
________________________________________________________________________________


    FINAL DOCKED STATE:
    ________________________


Run:   2 / 20
Time taken for this run:   0.062s

DOCKED: MODEL        2
DOCKED: USER    Run = 2
DOCKED: USER
DOCKED: USER    Estimated Free Energy of Binding    =  -6.72 kcal/mol  [=(1)+(2)+(3)-(4)]
DOCKED: USER
DOCKED: USER    (1) Final Intermolecular Energy     =  -9.40 kcal/mol
DOCKED: USER        vdW + Hbond + desolv Energy     =  -7.32 kcal/mol
DOCKED: USER        Electrostatic Energy            =  -2.09 kcal/mol
DOCKED: USER        Moving Ligand-Fixed Receptor    =  -9.40 kcal/mol
DOCKED: USER        Moving Ligand-Moving Receptor   =  +0.00 kcal/mol
DOCKED: USER    (2) Final Total Internal Energy     =  -3.06 kcal/mol
DOCKED: USER    (3) Torsional Free Energy           =  +2.68 kcal/mol
DOCKED: USER    (4) Unbound System's Energy         =  -3.06 kcal/mol
DOCKED: USER
DOCKED: USER
DOCKED: REMARK SMILES CCC(=O)N(c1ccccc1)C1CC[N+](=C(O)[C@@H]([NH3+])C2Cc3ccccc3C2)CC1
DOCKED: REMARK SMILES IDX 12 1 13 2 14 3 15 4 29 5 30 6 5 7 3 8 4 9 2 10 1 11 6 12
DOCKED: REMARK SMILES IDX 7 13 11 14 8 15 10 16 9 17 16 18 17 19 18 21 19 22 20 26
DOCKED: REMARK SMILES IDX 21 27 28 28 22 29 27 30 23 31 26 32 24 33 25 34
DOCKED: REMARK H PARENT 17 20 19 23 19 24 19 25
DOCKED: USER                              x       y       z     vdW  Elec       q    Type
DOCKED: USER                           _______ _______ _______ _____ _____    ______ ____
DOCKED: ROOT
DOCKED: ATOM      1  C   UNL     1     140.800  79.023 220.771 -0.22 -0.04    +0.103 C  
DOCKED: ATOM      2  C   UNL     1     139.575  79.532 219.989 -0.08 -0.03    +0.098 C  
DOCKED: ATOM      3  C   UNL     1     139.978  79.798 218.528 -0.02 -0.13    +0.356 C  
DOCKED: ATOM      4  N   UNL     1     141.313  80.434 218.424 -0.12 +0.10    -0.197 N  
DOCKED: ATOM      5  C   UNL     1     141.825  81.093 219.646 -0.11 -0.15    +0.356 C  
DOCKED: ATOM      6  C   UNL     1     141.926  80.094 220.814 -0.28 -0.05    +0.098 C  
DOCKED: ENDROOT
DOCKED: BRANCH   1   7
DOCKED: ATOM      7  N   UNL     1     140.410  78.517 222.109 -0.14 +0.09    -0.309 N  
DOCKED: BRANCH   7   8
DOCKED: ATOM      8  C   UNL     1     141.181  78.857 223.286 -0.39 -0.06    +0.226 C  
DOCKED: ATOM      9  O   UNL     1     141.865  77.960 223.857 -0.42 +0.10    -0.275 OA 
DOCKED: BRANCH   8  10
DOCKED: ATOM     10  C   UNL     1     141.209  80.268 223.827 -0.43 -0.02    +0.097 C  
DOCKED: ATOM     11  C   UNL     1     142.619  80.855 223.886 -0.66 -0.00    +0.014 C  
DOCKED: ENDBRANCH   8  10
DOCKED: ENDBRANCH   7   8
DOCKED: BRANCH   7  12
DOCKED: ATOM     12  C   UNL     1     139.327  77.583 222.280 -0.30 -0.01    +0.044 A  
DOCKED: ATOM     13  C   UNL     1     138.049  78.062 222.609 -0.24 -0.00    +0.026 A  
DOCKED: ATOM     14  C   UNL     1     139.533  76.201 222.137 -0.33 -0.01    +0.026 A  
DOCKED: ATOM     15  C   UNL     1     136.985  77.170 222.775 -0.23 -0.00    +0.002 A  
DOCKED: ATOM     16  C   UNL     1     138.466  75.312 222.306 -0.23 -0.00    +0.002 A  
DOCKED: ATOM     17  C   UNL     1     137.192  75.797 222.620 -0.25 -0.00    +0.000 A  
DOCKED: ENDBRANCH   7  12
DOCKED: ENDBRANCH   1   7
DOCKED: BRANCH   4  18
DOCKED: ATOM     18  C   UNL     1     141.983  80.463 217.282 -0.12 -0.33    +0.394 C  
DOCKED: BRANCH  18  19
DOCKED: ATOM     19  O   UNL     1     142.938  81.453 217.020 -0.14 +0.53    -0.459 OA 
DOCKED: ATOM     20  H   UNL     1     143.913  81.259 216.842 -0.30 -0.67    +0.299 HD 
DOCKED: ENDBRANCH  18  19
DOCKED: BRANCH  18  21
DOCKED: ATOM     21  C   UNL     1     141.766  79.450 216.160 -0.08 -0.28    +0.322 C  
DOCKED: BRANCH  21  22
DOCKED: ATOM     22  N   UNL     1     142.568  79.852 214.994 +0.07 +0.45    -0.343 N  
DOCKED: ATOM     23  H   UNL     1     143.276  79.110 214.783 -0.22 -0.62    +0.345 HD 
DOCKED: ATOM     24  H   UNL     1     143.085  80.737 215.193 -0.43 -0.63    +0.345 HD 
DOCKED: ATOM     25  H   UNL     1     141.959  79.991 214.156 +0.04 -0.27    +0.345 HD 
DOCKED: ENDBRANCH  21  22
DOCKED: BRANCH  21  26
DOCKED: ATOM     26  C   UNL     1     142.163  78.024 216.636 -0.18 -0.05    +0.071 C  
DOCKED: ATOM     27  C   UNL     1     140.943  77.107 216.906 -0.06 -0.02    +0.046 C  
DOCKED: ATOM     28  C   UNL     1     142.994  78.027 217.945 -0.21 -0.04    +0.046 C  
DOCKED: ATOM     29  C   UNL     1     141.342  76.344 218.112 -0.09 +0.02    -0.044 A  
DOCKED: ATOM     30  C   UNL     1     142.478  76.856 218.689 -0.28 +0.03    -0.044 A  
DOCKED: ATOM     31  C   UNL     1     140.675  75.253 218.674 -0.06 -0.00    +0.004 A  
DOCKED: ATOM     32  C   UNL     1     143.002  76.310 219.863 -0.34 -0.00    +0.004 A  
DOCKED: ATOM     33  C   UNL     1     141.192  74.680 219.848 -0.16 -0.00    +0.000 A  
DOCKED: ATOM     34  C   UNL     1     142.352  75.208 220.442 -0.31 -0.00    +0.000 A  
DOCKED: ENDBRANCH  21  26
DOCKED: ENDBRANCH  18  21
DOCKED: ENDBRANCH   4  18
DOCKED: TORSDOF 9
DOCKED: TER
DOCKED: ENDMDL
________________________________________________________________________________


    FINAL DOCKED STATE:
    ________________________


Run:   3 / 20
Time taken for this run:   0.062s

DOCKED: MODEL        3
DOCKED: USER    Run = 3
DOCKED: USER
DOCKED: USER    Estimated Free Energy of Binding    =  -5.96 kcal/mol  [=(1)+(2)+(3)-(4)]
DOCKED: USER
DOCKED: USER    (1) Final Intermolecular Energy     =  -8.65 kcal/mol
DOCKED: USER        vdW + Hbond + desolv Energy     =  -6.98 kcal/mol
DOCKED: USER        Electrostatic Energy            =  -1.67 kcal/mol
DOCKED: USER        Moving Ligand-Fixed Receptor    =  -8.65 kcal/mol
DOCKED: USER        Moving Ligand-Moving Receptor   =  +0.00 kcal/mol
DOCKED: USER    (2) Final Total Internal Energy     =  -3.59 kcal/mol
DOCKED: USER    (3) Torsional Free Energy           =  +2.68 kcal/mol
DOCKED: USER    (4) Unbound System's Energy         =  -3.59 kcal/mol
DOCKED: USER
DOCKED: USER
DOCKED: REMARK SMILES CCC(=O)N(c1ccccc1)C1CC[N+](=C(O)[C@@H]([NH3+])C2Cc3ccccc3C2)CC1
DOCKED: REMARK SMILES IDX 12 1 13 2 14 3 15 4 29 5 30 6 5 7 3 8 4 9 2 10 1 11 6 12
DOCKED: REMARK SMILES IDX 7 13 11 14 8 15 10 16 9 17 16 18 17 19 18 21 19 22 20 26
DOCKED: REMARK SMILES IDX 21 27 28 28 22 29 27 30 23 31 26 32 24 33 25 34
DOCKED: REMARK H PARENT 17 20 19 23 19 24 19 25
DOCKED: USER                              x       y       z     vdW  Elec       q    Type
DOCKED: USER                           _______ _______ _______ _____ _____    ______ ____
DOCKED: ROOT
DOCKED: ATOM      1  C   UNL     1     138.521  79.062 220.991 -0.09 -0.02    +0.103 C  
DOCKED: ATOM      2  C   UNL     1     137.819  78.438 219.772 -0.02 -0.02    +0.098 C  
DOCKED: ATOM      3  C   UNL     1     138.709  78.609 218.528 +0.00 -0.09    +0.356 C  
DOCKED: ATOM      4  N   UNL     1     139.354  79.942 218.482 -0.02 +0.06    -0.197 N  
DOCKED: ATOM      5  C   UNL     1     138.741  80.998 219.318 -0.01 -0.09    +0.356 C  
DOCKED: ATOM      6  C   UNL     1     138.724  80.591 220.802 -0.09 -0.02    +0.098 C  
DOCKED: ENDROOT
DOCKED: BRANCH   1   7
DOCKED: ATOM      7  N   UNL     1     137.826  78.705 222.252 -0.08 +0.05    -0.309 N  
DOCKED: BRANCH   7   8
DOCKED: ATOM      8  C   UNL     1     137.407  77.344 222.510 -0.16 -0.04    +0.226 C  
DOCKED: ATOM      9  O   UNL     1     136.173  77.072 222.530 -0.10 +0.05    -0.275 OA 
DOCKED: BRANCH   8  10
DOCKED: ATOM     10  C   UNL     1     138.414  76.239 222.726 -0.24 -0.02    +0.097 C  
DOCKED: ATOM     11  C   UNL     1     139.064  75.762 221.427 -0.24 -0.00    +0.014 C  
DOCKED: ENDBRANCH   8  10
DOCKED: ENDBRANCH   7   8
DOCKED: BRANCH   7  12
DOCKED: ATOM     12  C   UNL     1     137.441  79.706 223.213 -0.23 -0.01    +0.044 A  
DOCKED: ATOM     13  C   UNL     1     138.416  80.270 224.050 -0.38 -0.00    +0.026 A  
DOCKED: ATOM     14  C   UNL     1     136.103  80.115 223.336 -0.16 -0.00    +0.026 A  
DOCKED: ATOM     15  C   UNL     1     138.061  81.245 224.987 -0.35 -0.00    +0.002 A  
DOCKED: ATOM     16  C   UNL     1     135.751  81.090 224.276 -0.20 -0.00    +0.002 A  
DOCKED: ATOM     17  C   UNL     1     136.730  81.658 225.097 -0.34 -0.00    +0.000 A  
DOCKED: ENDBRANCH   7  12
DOCKED: ENDBRANCH   1   7
DOCKED: BRANCH   4  18
DOCKED: ATOM     18  C   UNL     1     140.385  80.189 217.690 -0.02 -0.17    +0.394 C  
DOCKED: BRANCH  18  19
DOCKED: ATOM     19  O   UNL     1     140.398  81.294 216.830 +0.00 +0.20    -0.459 OA 
DOCKED: ATOM     20  H   UNL     1     139.617  81.562 216.248 +0.03 -0.10    +0.299 HD 
DOCKED: ENDBRANCH  18  19
DOCKED: BRANCH  18  21
DOCKED: ATOM     21  C   UNL     1     141.625  79.298 217.628 -0.12 -0.22    +0.322 C  
DOCKED: BRANCH  21  22
DOCKED: ATOM     22  N   UNL     1     142.551  79.840 216.623 +0.10 +0.46    -0.343 N  
DOCKED: ATOM     23  H   UNL     1     143.331  80.348 217.102 -0.43 -0.67    +0.345 HD 
DOCKED: ATOM     24  H   UNL     1     142.060  80.522 216.002 +0.02 -0.35    +0.345 HD 
DOCKED: ATOM     25  H   UNL     1     142.953  79.072 216.037 -0.36 -0.60    +0.345 HD 
DOCKED: ENDBRANCH  21  22
DOCKED: BRANCH  21  26
DOCKED: ATOM     26  C   UNL     1     142.308  79.227 219.024 -0.14 -0.05    +0.071 C  
DOCKED: ATOM     27  C   UNL     1     141.728  78.114 219.933 -0.27 -0.03    +0.046 C  
DOCKED: ATOM     28  C   UNL     1     142.186  80.546 219.831 -0.19 -0.02    +0.046 C  
DOCKED: ATOM     29  C   UNL     1     141.713  78.737 221.278 -0.35 +0.02    -0.044 A  
DOCKED: ATOM     30  C   UNL     1     141.964  80.085 221.220 -0.37 +0.02    -0.044 A  
DOCKED: ATOM     31  C   UNL     1     141.445  78.103 222.494 -0.44 -0.00    +0.004 A  
DOCKED: ATOM     32  C   UNL     1     141.953  80.873 222.374 -0.53 -0.00    +0.004 A  
DOCKED: ATOM     33  C   UNL     1     141.442  78.874 223.668 -0.60 -0.00    +0.000 A  
DOCKED: ATOM     34  C   UNL     1     141.693  80.256 223.608 -0.59 -0.00    +0.000 A  
DOCKED: ENDBRANCH  21  26
DOCKED: ENDBRANCH  18  21
DOCKED: ENDBRANCH   4  18
DOCKED: TORSDOF 9
DOCKED: TER
DOCKED: ENDMDL
________________________________________________________________________________


    FINAL DOCKED STATE:
    ________________________


Run:   4 / 20
Time taken for this run:   0.062s

DOCKED: MODEL        4
DOCKED: USER    Run = 4
DOCKED: USER
DOCKED: USER    Estimated Free Energy of Binding    =  -6.73 kcal/mol  [=(1)+(2)+(3)-(4)]
DOCKED: USER
DOCKED: USER    (1) Final Intermolecular Energy     =  -9.41 kcal/mol
DOCKED: USER        vdW + Hbond + desolv Energy     =  -7.33 kcal/mol
DOCKED: USER        Electrostatic Energy            =  -2.08 kcal/mol
DOCKED: USER        Moving Ligand-Fixed Receptor    =  -9.41 kcal/mol
DOCKED: USER        Moving Ligand-Moving Receptor   =  +0.00 kcal/mol
DOCKED: USER    (2) Final Total Internal Energy     =  -3.06 kcal/mol
DOCKED: USER    (3) Torsional Free Energy           =  +2.68 kcal/mol
DOCKED: USER    (4) Unbound System's Energy         =  -3.06 kcal/mol
DOCKED: USER
DOCKED: USER
DOCKED: REMARK SMILES CCC(=O)N(c1ccccc1)C1CC[N+](=C(O)[C@@H]([NH3+])C2Cc3ccccc3C2)CC1
DOCKED: REMARK SMILES IDX 12 1 13 2 14 3 15 4 29 5 30 6 5 7 3 8 4 9 2 10 1 11 6 12
DOCKED: REMARK SMILES IDX 7 13 11 14 8 15 10 16 9 17 16 18 17 19 18 21 19 22 20 26
DOCKED: REMARK SMILES IDX 21 27 28 28 22 29 27 30 23 31 26 32 24 33 25 34
DOCKED: REMARK H PARENT 17 20 19 23 19 24 19 25
DOCKED: USER                              x       y       z     vdW  Elec       q    Type
DOCKED: USER                           _______ _______ _______ _____ _____    ______ ____
DOCKED: ROOT
DOCKED: ATOM      1  C   UNL     1     140.782  79.044 220.791 -0.22 -0.04    +0.103 C  
DOCKED: ATOM      2  C   UNL     1     139.559  79.523 219.988 -0.08 -0.03    +0.098 C  
DOCKED: ATOM      3  C   UNL     1     139.975  79.779 218.529 -0.02 -0.13    +0.356 C  
DOCKED: ATOM      4  N   UNL     1     141.301  80.435 218.432 -0.12 +0.10    -0.197 N  
DOCKED: ATOM      5  C   UNL     1     141.787  81.117 219.652 -0.11 -0.15    +0.356 C  
DOCKED: ATOM      6  C   UNL     1     141.890  80.134 220.833 -0.30 -0.04    +0.098 C  
DOCKED: ENDROOT
DOCKED: BRANCH   1   7
DOCKED: ATOM      7  N   UNL     1     140.385  78.548 222.130 -0.14 +0.09    -0.309 N  
DOCKED: BRANCH   7   8
DOCKED: ATOM      8  C   UNL     1     141.150  78.896 223.308 -0.39 -0.06    +0.226 C  
DOCKED: ATOM      9  O   UNL     1     141.830  78.002 223.890 -0.42 +0.10    -0.275 OA 
DOCKED: BRANCH   8  10
DOCKED: ATOM     10  C   UNL     1     141.176  80.310 223.839 -0.42 -0.02    +0.097 C  
DOCKED: ATOM     11  C   UNL     1     142.586  80.897 223.903 -0.66 -0.00    +0.014 C  
DOCKED: ENDBRANCH   8  10
DOCKED: ENDBRANCH   7   8
DOCKED: BRANCH   7  12
DOCKED: ATOM     12  C   UNL     1     139.301  77.615 222.301 -0.30 -0.01    +0.044 A  
DOCKED: ATOM     13  C   UNL     1     139.546  76.240 222.163 -0.33 -0.01    +0.026 A  
DOCKED: ATOM     14  C   UNL     1     138.001  78.061 222.589 -0.24 -0.00    +0.026 A  
DOCKED: ATOM     15  C   UNL     1     138.507  75.319 222.329 -0.23 -0.00    +0.002 A  
DOCKED: ATOM     16  C   UNL     1     136.963  77.136 222.753 -0.23 -0.00    +0.002 A  
DOCKED: ATOM     17  C   UNL     1     137.217  75.767 222.627 -0.25 -0.00    +0.000 A  
DOCKED: ENDBRANCH   7  12
DOCKED: ENDBRANCH   1   7
DOCKED: BRANCH   4  18
DOCKED: ATOM     18  C   UNL     1     141.983  80.461 217.298 -0.12 -0.33    +0.394 C  
DOCKED: BRANCH  18  19
DOCKED: ATOM     19  O   UNL     1     142.959  81.436 217.055 -0.14 +0.53    -0.459 OA 
DOCKED: ATOM     20  H   UNL     1     143.945  81.234 216.973 -0.29 -0.65    +0.299 HD 
DOCKED: ENDBRANCH  18  19
DOCKED: BRANCH  18  21
DOCKED: ATOM     21  C   UNL     1     141.760  79.462 216.165 -0.08 -0.28    +0.322 C  
DOCKED: BRANCH  21  22
DOCKED: ATOM     22  N   UNL     1     142.577  79.862 215.010 +0.08 +0.46    -0.343 N  
DOCKED: ATOM     23  H   UNL     1     143.275  79.112 214.797 -0.22 -0.62    +0.345 HD 
DOCKED: ATOM     24  H   UNL     1     143.105  80.738 215.220 -0.44 -0.64    +0.345 HD 
DOCKED: ATOM     25  H   UNL     1     141.977  80.018 214.168 +0.04 -0.28    +0.345 HD 
DOCKED: ENDBRANCH  21  22
DOCKED: BRANCH  21  26
DOCKED: ATOM     26  C   UNL     1     142.132  78.025 216.631 -0.17 -0.05    +0.071 C  
DOCKED: ATOM     27  C   UNL     1     140.896  77.136 216.921 -0.06 -0.02    +0.046 C  
DOCKED: ATOM     28  C   UNL     1     142.987  78.007 217.925 -0.22 -0.04    +0.046 C  
DOCKED: ATOM     29  C   UNL     1     141.300  76.361 218.118 -0.09 +0.02    -0.044 A  
DOCKED: ATOM     30  C   UNL     1     142.457  76.846 218.676 -0.28 +0.03    -0.044 A  
DOCKED: ATOM     31  C   UNL     1     140.618  75.285 218.691 -0.06 -0.00    +0.004 A  
DOCKED: ATOM     32  C   UNL     1     142.989  76.285 219.840 -0.35 -0.00    +0.004 A  
DOCKED: ATOM     33  C   UNL     1     141.142  74.697 219.854 -0.16 -0.00    +0.000 A  
DOCKED: ATOM     34  C   UNL     1     142.324  75.198 220.429 -0.31 -0.00    +0.000 A  
DOCKED: ENDBRANCH  21  26
DOCKED: ENDBRANCH  18  21
DOCKED: ENDBRANCH   4  18
DOCKED: TORSDOF 9
DOCKED: TER
DOCKED: ENDMDL
________________________________________________________________________________


    FINAL DOCKED STATE:
    ________________________


Run:   5 / 20
Time taken for this run:   0.062s

DOCKED: MODEL        5
DOCKED: USER    Run = 5
DOCKED: USER
DOCKED: USER    Estimated Free Energy of Binding    =  -7.68 kcal/mol  [=(1)+(2)+(3)-(4)]
DOCKED: USER
DOCKED: USER    (1) Final Intermolecular Energy     = -10.36 kcal/mol
DOCKED: USER        vdW + Hbond + desolv Energy     =  -8.68 kcal/mol
DOCKED: USER        Electrostatic Energy            =  -1.68 kcal/mol
DOCKED: USER        Moving Ligand-Fixed Receptor    = -10.36 kcal/mol
DOCKED: USER        Moving Ligand-Moving Receptor   =  +0.00 kcal/mol
DOCKED: USER    (2) Final Total Internal Energy     =  -2.14 kcal/mol
DOCKED: USER    (3) Torsional Free Energy           =  +2.68 kcal/mol
DOCKED: USER    (4) Unbound System's Energy         =  -2.14 kcal/mol
DOCKED: USER
DOCKED: USER
DOCKED: REMARK SMILES CCC(=O)N(c1ccccc1)C1CC[N+](=C(O)[C@@H]([NH3+])C2Cc3ccccc3C2)CC1
DOCKED: REMARK SMILES IDX 12 1 13 2 14 3 15 4 29 5 30 6 5 7 3 8 4 9 2 10 1 11 6 12
DOCKED: REMARK SMILES IDX 7 13 11 14 8 15 10 16 9 17 16 18 17 19 18 21 19 22 20 26
DOCKED: REMARK SMILES IDX 21 27 28 28 22 29 27 30 23 31 26 32 24 33 25 34
DOCKED: REMARK H PARENT 17 20 19 23 19 24 19 25
DOCKED: USER                              x       y       z     vdW  Elec       q    Type
DOCKED: USER                           _______ _______ _______ _____ _____    ______ ____
DOCKED: ROOT
DOCKED: ATOM      1  C   UNL     1     142.498  75.665 219.228 -0.24 -0.05    +0.103 C  
DOCKED: ATOM      2  C   UNL     1     143.185  75.437 217.869 -0.18 -0.04    +0.098 C  
DOCKED: ATOM      3  C   UNL     1     143.243  76.768 217.099 -0.13 -0.24    +0.356 C  
DOCKED: ATOM      4  N   UNL     1     141.993  77.552 217.240 -0.12 +0.12    -0.197 N  
DOCKED: ATOM      5  C   UNL     1     140.794  76.802 217.678 -0.01 -0.14    +0.356 C  
DOCKED: ATOM      6  C   UNL     1     141.027  76.132 219.044 -0.10 -0.04    +0.098 C  
DOCKED: ENDROOT
DOCKED: BRANCH   1   7
DOCKED: ATOM      7  N   UNL     1     142.640  74.479 220.106 -0.14 +0.10    -0.309 N  
DOCKED: BRANCH   7   8
DOCKED: ATOM      8  C   UNL     1     141.573  74.086 221.002 -0.18 -0.04    +0.226 C  
DOCKED: ATOM      9  O   UNL     1     141.154  74.912 221.863 -0.53 +0.04    -0.275 OA 
DOCKED: BRANCH   8  10
DOCKED: ATOM     10  C   UNL     1     140.931  72.722 220.909 -0.19 -0.01    +0.097 C  
DOCKED: ATOM     11  C   UNL     1     140.600  72.125 222.277 -0.31 -0.00    +0.014 C  
DOCKED: ENDBRANCH   8  10
DOCKED: ENDBRANCH   7   8
DOCKED: BRANCH   7  12
DOCKED: ATOM     12  C   UNL     1     143.874  73.742 220.190 -0.36 -0.01    +0.044 A  
DOCKED: ATOM     13  C   UNL     1     143.939  72.443 219.661 -0.25 -0.00    +0.026 A  
DOCKED: ATOM     14  C   UNL     1     145.008  74.295 220.807 -0.46 -0.01    +0.026 A  
DOCKED: ATOM     15  C   UNL     1     145.130  71.713 219.730 -0.33 +0.00    +0.002 A  
DOCKED: ATOM     16  C   UNL     1     146.198  73.561 220.875 -0.70 -0.00    +0.002 A  
DOCKED: ATOM     17  C   UNL     1     146.259  72.273 220.333 -0.29 +0.00    +0.000 A  
DOCKED: ENDBRANCH   7  12
DOCKED: ENDBRANCH   1   7
DOCKED: BRANCH   4  18
DOCKED: ATOM     18  C   UNL     1     141.940  78.838 216.933 -0.10 -0.32    +0.394 C  
DOCKED: BRANCH  18  19
DOCKED: ATOM     19  O   UNL     1     141.390  79.278 215.722 -0.03 +0.32    -0.459 OA 
DOCKED: ATOM     20  H   UNL     1     141.818  79.118 214.821 +0.03 -0.24    +0.299 HD 
DOCKED: ENDBRANCH  18  19
DOCKED: BRANCH  18  21
DOCKED: ATOM     21  C   UNL     1     142.479  79.939 217.845 -0.18 -0.30    +0.322 C  
DOCKED: BRANCH  21  22
DOCKED: ATOM     22  N   UNL     1     142.505  81.205 217.099 -0.13 +0.34    -0.343 N  
DOCKED: ATOM     23  H   UNL     1     143.364  81.243 216.502 -0.37 -0.62    +0.345 HD 
DOCKED: ATOM     24  H   UNL     1     142.538  82.017 217.756 +0.13 -0.23    +0.345 HD 
DOCKED: ATOM     25  H   UNL     1     141.660  81.294 216.489 +0.08 -0.24    +0.345 HD 
DOCKED: ENDBRANCH  21  22
DOCKED: BRANCH  21  26
DOCKED: ATOM     26  C   UNL     1     141.594  80.067 219.117 -0.25 -0.04    +0.071 C  
DOCKED: ATOM     27  C   UNL     1     141.828  81.387 219.895 -0.19 -0.02    +0.046 C  
DOCKED: ATOM     28  C   UNL     1     141.823  78.922 220.138 -0.26 -0.03    +0.046 C  
DOCKED: ATOM     29  C   UNL     1     141.752  80.971 221.316 -0.38 +0.01    -0.044 A  
DOCKED: ATOM     30  C   UNL     1     141.752  79.605 221.449 -0.39 +0.02    -0.044 A  
DOCKED: ATOM     31  C   UNL     1     141.721  81.806 222.435 -0.43 -0.00    +0.004 A  
DOCKED: ATOM     32  C   UNL     1     141.729  79.002 222.709 -0.53 -0.00    +0.004 A  
DOCKED: ATOM     33  C   UNL     1     141.684  81.221 223.711 -0.58 -0.00    +0.000 A  
DOCKED: ATOM     34  C   UNL     1     141.690  79.821 223.848 -0.60 -0.00    +0.000 A  
DOCKED: ENDBRANCH  21  26
DOCKED: ENDBRANCH  18  21
DOCKED: ENDBRANCH   4  18
DOCKED: TORSDOF 9
DOCKED: TER
DOCKED: ENDMDL
________________________________________________________________________________


    FINAL DOCKED STATE:
    ________________________


Run:   6 / 20
Time taken for this run:   0.062s

DOCKED: MODEL        6
DOCKED: USER    Run = 6
DOCKED: USER
DOCKED: USER    Estimated Free Energy of Binding    =  -6.74 kcal/mol  [=(1)+(2)+(3)-(4)]
DOCKED: USER
DOCKED: USER    (1) Final Intermolecular Energy     =  -9.43 kcal/mol
DOCKED: USER        vdW + Hbond + desolv Energy     =  -7.34 kcal/mol
DOCKED: USER        Electrostatic Energy            =  -2.09 kcal/mol
DOCKED: USER        Moving Ligand-Fixed Receptor    =  -9.43 kcal/mol
DOCKED: USER        Moving Ligand-Moving Receptor   =  +0.00 kcal/mol
DOCKED: USER    (2) Final Total Internal Energy     =  -3.04 kcal/mol
DOCKED: USER    (3) Torsional Free Energy           =  +2.68 kcal/mol
DOCKED: USER    (4) Unbound System's Energy         =  -3.04 kcal/mol
DOCKED: USER
DOCKED: USER
DOCKED: REMARK SMILES CCC(=O)N(c1ccccc1)C1CC[N+](=C(O)[C@@H]([NH3+])C2Cc3ccccc3C2)CC1
DOCKED: REMARK SMILES IDX 12 1 13 2 14 3 15 4 29 5 30 6 5 7 3 8 4 9 2 10 1 11 6 12
DOCKED: REMARK SMILES IDX 7 13 11 14 8 15 10 16 9 17 16 18 17 19 18 21 19 22 20 26
DOCKED: REMARK SMILES IDX 21 27 28 28 22 29 27 30 23 31 26 32 24 33 25 34
DOCKED: REMARK H PARENT 17 20 19 23 19 24 19 25
DOCKED: USER                              x       y       z     vdW  Elec       q    Type
DOCKED: USER                           _______ _______ _______ _____ _____    ______ ____
DOCKED: ROOT
DOCKED: ATOM      1  C   UNL     1     140.794  79.042 220.791 -0.22 -0.04    +0.103 C  
DOCKED: ATOM      2  C   UNL     1     139.568  79.533 219.999 -0.08 -0.03    +0.098 C  
DOCKED: ATOM      3  C   UNL     1     139.977  79.800 218.540 -0.02 -0.13    +0.356 C  
DOCKED: ATOM      4  N   UNL     1     141.305  80.452 218.442 -0.12 +0.10    -0.197 N  
DOCKED: ATOM      5  C   UNL     1     141.801  81.120 219.665 -0.10 -0.15    +0.356 C  
DOCKED: ATOM      6  C   UNL     1     141.906  80.126 220.836 -0.29 -0.05    +0.098 C  
DOCKED: ENDROOT
DOCKED: BRANCH   1   7
DOCKED: ATOM      7  N   UNL     1     140.402  78.535 222.128 -0.14 +0.09    -0.309 N  
DOCKED: BRANCH   7   8
DOCKED: ATOM      8  C   UNL     1     141.174  78.872 223.305 -0.39 -0.06    +0.226 C  
DOCKED: ATOM      9  O   UNL     1     141.850  77.970 223.878 -0.42 +0.10    -0.275 OA 
DOCKED: BRANCH   8  10
DOCKED: ATOM     10  C   UNL     1     141.210  80.283 223.844 -0.43 -0.02    +0.097 C  
DOCKED: ATOM     11  C   UNL     1     142.624  80.859 223.909 -0.65 -0.00    +0.014 C  
DOCKED: ENDBRANCH   8  10
DOCKED: ENDBRANCH   7   8
DOCKED: BRANCH   7  12
DOCKED: ATOM     12  C   UNL     1     139.317  77.604 222.296 -0.30 -0.01    +0.044 A  
DOCKED: ATOM     13  C   UNL     1     139.559  76.229 222.150 -0.33 -0.01    +0.026 A  
DOCKED: ATOM     14  C   UNL     1     138.017  78.050 222.589 -0.24 -0.00    +0.026 A  
DOCKED: ATOM     15  C   UNL     1     138.518  75.310 222.314 -0.24 -0.00    +0.002 A  
DOCKED: ATOM     16  C   UNL     1     136.978  77.127 222.750 -0.24 -0.00    +0.002 A  
DOCKED: ATOM     17  C   UNL     1     137.229  75.758 222.618 -0.25 -0.00    +0.000 A  
DOCKED: ENDBRANCH   7  12
DOCKED: ENDBRANCH   1   7
DOCKED: BRANCH   4  18
DOCKED: ATOM     18  C   UNL     1     141.981  80.485 217.304 -0.12 -0.33    +0.394 C  
DOCKED: BRANCH  18  19
DOCKED: ATOM     19  O   UNL     1     142.947  81.469 217.057 -0.14 +0.52    -0.459 OA 
DOCKED: ATOM     20  H   UNL     1     143.919  81.266 216.872 -0.30 -0.66    +0.299 HD 
DOCKED: ENDBRANCH  18  19
DOCKED: BRANCH  18  21
DOCKED: ATOM     21  C   UNL     1     141.761  79.485 216.171 -0.08 -0.28    +0.322 C  
DOCKED: BRANCH  21  22
DOCKED: ATOM     22  N   UNL     1     142.571  79.891 215.013 +0.07 +0.46    -0.343 N  
DOCKED: ATOM     23  H   UNL     1     143.280  79.150 214.804 -0.23 -0.63    +0.345 HD 
DOCKED: ATOM     24  H   UNL     1     143.087  80.776 215.219 -0.43 -0.62    +0.345 HD 
DOCKED: ATOM     25  H   UNL     1     141.969  80.034 214.171 +0.04 -0.28    +0.345 HD 
DOCKED: ENDBRANCH  21  22
DOCKED: BRANCH  21  26
DOCKED: ATOM     26  C   UNL     1     142.144  78.050 216.635 -0.18 -0.06    +0.071 C  
DOCKED: ATOM     27  C   UNL     1     140.915  77.157 216.942 -0.06 -0.02    +0.046 C  
DOCKED: ATOM     28  C   UNL     1     143.015  78.037 217.918 -0.19 -0.04    +0.046 C  
DOCKED: ATOM     29  C   UNL     1     141.337  76.386 218.135 -0.09 +0.02    -0.044 A  
DOCKED: ATOM     30  C   UNL     1     142.499  76.876 218.678 -0.28 +0.03    -0.044 A  
DOCKED: ATOM     31  C   UNL     1     140.666  75.308 218.718 -0.07 -0.00    +0.004 A  
DOCKED: ATOM     32  C   UNL     1     143.047  76.319 219.836 -0.35 -0.00    +0.004 A  
DOCKED: ATOM     33  C   UNL     1     141.207  74.724 219.875 -0.17 -0.00    +0.000 A  
DOCKED: ATOM     34  C   UNL     1     142.394  75.230 220.434 -0.31 -0.00    +0.000 A  
DOCKED: ENDBRANCH  21  26
DOCKED: ENDBRANCH  18  21
DOCKED: ENDBRANCH   4  18
DOCKED: TORSDOF 9
DOCKED: TER
DOCKED: ENDMDL
________________________________________________________________________________


    FINAL DOCKED STATE:
    ________________________


Run:   7 / 20
Time taken for this run:   0.062s

DOCKED: MODEL        7
DOCKED: USER    Run = 7
DOCKED: USER
DOCKED: USER    Estimated Free Energy of Binding    =  -8.00 kcal/mol  [=(1)+(2)+(3)-(4)]
DOCKED: USER
DOCKED: USER    (1) Final Intermolecular Energy     = -10.69 kcal/mol
DOCKED: USER        vdW + Hbond + desolv Energy     =  -9.96 kcal/mol
DOCKED: USER        Electrostatic Energy            =  -0.73 kcal/mol
DOCKED: USER        Moving Ligand-Fixed Receptor    = -10.69 kcal/mol
DOCKED: USER        Moving Ligand-Moving Receptor   =  +0.00 kcal/mol
DOCKED: USER    (2) Final Total Internal Energy     =  -1.73 kcal/mol
DOCKED: USER    (3) Torsional Free Energy           =  +2.68 kcal/mol
DOCKED: USER    (4) Unbound System's Energy         =  -1.73 kcal/mol
DOCKED: USER
DOCKED: USER
DOCKED: REMARK SMILES CCC(=O)N(c1ccccc1)C1CC[N+](=C(O)[C@@H]([NH3+])C2Cc3ccccc3C2)CC1
DOCKED: REMARK SMILES IDX 12 1 13 2 14 3 15 4 29 5 30 6 5 7 3 8 4 9 2 10 1 11 6 12
DOCKED: REMARK SMILES IDX 7 13 11 14 8 15 10 16 9 17 16 18 17 19 18 21 19 22 20 26
DOCKED: REMARK SMILES IDX 21 27 28 28 22 29 27 30 23 31 26 32 24 33 25 34
DOCKED: REMARK H PARENT 17 20 19 23 19 24 19 25
DOCKED: USER                              x       y       z     vdW  Elec       q    Type
DOCKED: USER                           _______ _______ _______ _____ _____    ______ ____
DOCKED: ROOT
DOCKED: ATOM      1  C   UNL     1     143.181  70.974 220.280 -0.13 -0.01    +0.103 C  
DOCKED: ATOM      2  C   UNL     1     142.702  72.419 220.053 -0.18 -0.01    +0.098 C  
DOCKED: ATOM      3  C   UNL     1     141.382  72.644 220.811 -0.10 -0.05    +0.356 C  
DOCKED: ATOM      4  N   UNL     1     140.474  71.477 220.710 -0.08 +0.03    -0.197 N  
DOCKED: ATOM      5  C   UNL     1     140.742  70.529 219.606 -0.03 -0.06    +0.356 C  
DOCKED: ATOM      6  C   UNL     1     142.164  69.947 219.707 -0.09 -0.01    +0.098 C  
DOCKED: ENDROOT
DOCKED: BRANCH   1   7
DOCKED: ATOM      7  N   UNL     1     144.564  70.781 219.782 -0.09 -0.03    -0.309 N  
DOCKED: BRANCH   7   8
DOCKED: ATOM      8  C   UNL     1     145.470  71.902 219.654 -0.22 +0.08    +0.226 C  
DOCKED: ATOM      9  O   UNL     1     145.853  72.258 218.503 -0.67 -0.29    -0.275 OA 
DOCKED: BRANCH   8  10
DOCKED: ATOM     10  C   UNL     1     145.943  72.673 220.865 -0.41 -0.00    +0.097 C  
DOCKED: ATOM     11  C   UNL     1     145.564  74.153 220.815 -0.58 -0.00    +0.014 C  
DOCKED: ENDBRANCH   8  10
DOCKED: ENDBRANCH   7   8
DOCKED: BRANCH   7  12
DOCKED: ATOM     12  C   UNL     1     145.025  69.504 219.301 -0.28 +0.01    +0.044 A  
DOCKED: ATOM     13  C   UNL     1     145.664  69.427 218.054 -0.26 +0.01    +0.026 A  
DOCKED: ATOM     14  C   UNL     1     144.832  68.334 220.054 -0.33 +0.01    +0.026 A  
DOCKED: ATOM     15  C   UNL     1     146.121  68.196 217.572 -0.28 -0.00    +0.002 A  
DOCKED: ATOM     16  C   UNL     1     145.289  67.104 219.568 -0.49 -0.00    +0.002 A  
DOCKED: ATOM     17  C   UNL     1     145.938  67.036 218.330 -0.49 -0.00    +0.000 A  
DOCKED: ENDBRANCH   7  12
DOCKED: ENDBRANCH   1   7
DOCKED: BRANCH   4  18
DOCKED: ATOM     18  C   UNL     1     139.443  71.325 221.527 -0.07 -0.07    +0.394 C  
DOCKED: BRANCH  18  19
DOCKED: ATOM     19  O   UNL     1     138.260  70.707 221.103 -0.00 +0.08    -0.459 OA 
DOCKED: ATOM     20  H   UNL     1     137.709  71.027 220.318 +0.03 -0.05    +0.299 HD 
DOCKED: ENDBRANCH  18  19
DOCKED: BRANCH  18  21
DOCKED: ATOM     21  C   UNL     1     139.443  71.816 222.973 -0.17 -0.07    +0.322 C  
DOCKED: BRANCH  21  22
DOCKED: ATOM     22  N   UNL     1     138.054  71.884 223.453 +0.00 +0.12    -0.343 N  
DOCKED: ATOM     23  H   UNL     1     138.041  71.828 224.498 -0.19 -0.14    +0.345 HD 
DOCKED: ATOM     24  H   UNL     1     137.500  71.078 223.084 +0.09 -0.07    +0.345 HD 
DOCKED: ATOM     25  H   UNL     1     137.601  72.777 223.152 -0.36 -0.17    +0.345 HD 
DOCKED: ENDBRANCH  21  22
DOCKED: BRANCH  21  26
DOCKED: ATOM     26  C   UNL     1     140.287  70.864 223.867 -0.31 -0.01    +0.071 C  
DOCKED: ATOM     27  C   UNL     1     139.546  69.554 224.238 -0.30 -0.01    +0.046 C  
DOCKED: ATOM     28  C   UNL     1     140.715  71.509 225.211 -0.51 -0.01    +0.046 C  
DOCKED: ATOM     29  C   UNL     1     139.945  69.316 225.645 -0.43 +0.01    -0.044 A  
DOCKED: ATOM     30  C   UNL     1     140.590  70.401 226.185 -0.53 +0.01    -0.044 A  
DOCKED: ATOM     31  C   UNL     1     139.695  68.172 226.407 -0.61 -0.00    +0.004 A  
DOCKED: ATOM     32  C   UNL     1     141.013  70.403 227.516 -0.61 -0.00    +0.004 A  
DOCKED: ATOM     33  C   UNL     1     140.123  68.147 227.745 -0.64 -0.00    +0.000 A  
DOCKED: ATOM     34  C   UNL     1     140.779  69.261 228.299 -0.63 -0.00    +0.000 A  
DOCKED: ENDBRANCH  21  26
DOCKED: ENDBRANCH  18  21
DOCKED: ENDBRANCH   4  18
DOCKED: TORSDOF 9
DOCKED: TER
DOCKED: ENDMDL
________________________________________________________________________________


    FINAL DOCKED STATE:
    ________________________


Run:   8 / 20
Time taken for this run:   0.062s

DOCKED: MODEL        8
DOCKED: USER    Run = 8
DOCKED: USER
DOCKED: USER    Estimated Free Energy of Binding    =  -6.72 kcal/mol  [=(1)+(2)+(3)-(4)]
DOCKED: USER
DOCKED: USER    (1) Final Intermolecular Energy     =  -9.41 kcal/mol
DOCKED: USER        vdW + Hbond + desolv Energy     =  -7.30 kcal/mol
DOCKED: USER        Electrostatic Energy            =  -2.10 kcal/mol
DOCKED: USER        Moving Ligand-Fixed Receptor    =  -9.41 kcal/mol
DOCKED: USER        Moving Ligand-Moving Receptor   =  +0.00 kcal/mol
DOCKED: USER    (2) Final Total Internal Energy     =  -3.06 kcal/mol
DOCKED: USER    (3) Torsional Free Energy           =  +2.68 kcal/mol
DOCKED: USER    (4) Unbound System's Energy         =  -3.06 kcal/mol
DOCKED: USER
DOCKED: USER
DOCKED: REMARK SMILES CCC(=O)N(c1ccccc1)C1CC[N+](=C(O)[C@@H]([NH3+])C2Cc3ccccc3C2)CC1
DOCKED: REMARK SMILES IDX 12 1 13 2 14 3 15 4 29 5 30 6 5 7 3 8 4 9 2 10 1 11 6 12
DOCKED: REMARK SMILES IDX 7 13 11 14 8 15 10 16 9 17 16 18 17 19 18 21 19 22 20 26
DOCKED: REMARK SMILES IDX 21 27 28 28 22 29 27 30 23 31 26 32 24 33 25 34
DOCKED: REMARK H PARENT 17 20 19 23 19 24 19 25
DOCKED: USER                              x       y       z     vdW  Elec       q    Type
DOCKED: USER                           _______ _______ _______ _____ _____    ______ ____
DOCKED: ROOT
DOCKED: ATOM      1  C   UNL     1     140.787  79.022 220.781 -0.22 -0.04    +0.103 C  
DOCKED: ATOM      2  C   UNL     1     139.569  79.551 220.002 -0.08 -0.03    +0.098 C  
DOCKED: ATOM      3  C   UNL     1     139.975  79.818 218.542 -0.02 -0.13    +0.356 C  
DOCKED: ATOM      4  N   UNL     1     141.319  80.435 218.439 -0.13 +0.10    -0.197 N  
DOCKED: ATOM      5  C   UNL     1     141.840  81.081 219.663 -0.09 -0.15    +0.356 C  
DOCKED: ATOM      6  C   UNL     1     141.928  80.076 220.827 -0.28 -0.05    +0.098 C  
DOCKED: ENDROOT
DOCKED: BRANCH   1   7
DOCKED: ATOM      7  N   UNL     1     140.391  78.516 222.117 -0.14 +0.09    -0.309 N  
DOCKED: BRANCH   7   8
DOCKED: ATOM      8  C   UNL     1     141.169  78.839 223.295 -0.39 -0.06    +0.226 C  
DOCKED: ATOM      9  O   UNL     1     141.833  77.927 223.865 -0.42 +0.10    -0.275 OA 
DOCKED: BRANCH   8  10
DOCKED: ATOM     10  C   UNL     1     141.225  80.248 223.837 -0.44 -0.02    +0.097 C  
DOCKED: ATOM     11  C   UNL     1     142.646  80.806 223.899 -0.66 -0.00    +0.014 C  
DOCKED: ENDBRANCH   8  10
DOCKED: ENDBRANCH   7   8
DOCKED: BRANCH   7  12
DOCKED: ATOM     12  C   UNL     1     139.294  77.598 222.285 -0.30 -0.01    +0.044 A  
DOCKED: ATOM     13  C   UNL     1     138.020  78.096 222.602 -0.24 -0.00    +0.026 A  
DOCKED: ATOM     14  C   UNL     1     139.482  76.212 222.152 -0.33 -0.01    +0.026 A  
DOCKED: ATOM     15  C   UNL     1     136.943  77.220 222.765 -0.23 -0.00    +0.002 A  
DOCKED: ATOM     16  C   UNL     1     138.401  75.339 222.318 -0.23 -0.00    +0.002 A  
DOCKED: ATOM     17  C   UNL     1     137.132  75.843 222.620 -0.26 -0.00    +0.000 A  
DOCKED: ENDBRANCH   7  12
DOCKED: ENDBRANCH   1   7
DOCKED: BRANCH   4  18
DOCKED: ATOM     18  C   UNL     1     141.988  80.459 217.297 -0.12 -0.33    +0.394 C  
DOCKED: BRANCH  18  19
DOCKED: ATOM     19  O   UNL     1     142.950  81.442 217.034 -0.14 +0.53    -0.459 OA 
DOCKED: ATOM     20  H   UNL     1     143.923  81.241 216.854 -0.29 -0.67    +0.299 HD 
DOCKED: ENDBRANCH  18  19
DOCKED: BRANCH  18  21
DOCKED: ATOM     21  C   UNL     1     141.764  79.446 216.175 -0.08 -0.28    +0.322 C  
DOCKED: BRANCH  21  22
DOCKED: ATOM     22  N   UNL     1     142.572  79.839 215.011 +0.07 +0.46    -0.343 N  
DOCKED: ATOM     23  H   UNL     1     143.276  79.092 214.805 -0.22 -0.62    +0.345 HD 
DOCKED: ATOM     24  H   UNL     1     143.094  80.722 215.208 -0.43 -0.64    +0.345 HD 
DOCKED: ATOM     25  H   UNL     1     141.967  79.979 214.170 +0.04 -0.28    +0.345 HD 
DOCKED: ENDBRANCH  21  22
DOCKED: BRANCH  21  26
DOCKED: ATOM     26  C   UNL     1     142.146  78.017 216.654 -0.18 -0.05    +0.071 C  
DOCKED: ATOM     27  C   UNL     1     140.917  77.111 216.919 -0.06 -0.02    +0.046 C  
DOCKED: ATOM     28  C   UNL     1     142.972  78.014 217.966 -0.23 -0.04    +0.046 C  
DOCKED: ATOM     29  C   UNL     1     141.305  76.345 218.127 -0.09 +0.02    -0.044 A  
DOCKED: ATOM     30  C   UNL     1     142.442  76.848 218.709 -0.28 +0.03    -0.044 A  
DOCKED: ATOM     31  C   UNL     1     140.626  75.260 218.687 -0.06 -0.00    +0.004 A  
DOCKED: ATOM     32  C   UNL     1     142.956  76.298 219.886 -0.34 -0.00    +0.004 A  
DOCKED: ATOM     33  C   UNL     1     141.133  74.683 219.864 -0.16 -0.00    +0.000 A  
DOCKED: ATOM     34  C   UNL     1     142.294  75.202 220.463 -0.31 -0.00    +0.000 A  
DOCKED: ENDBRANCH  21  26
DOCKED: ENDBRANCH  18  21
DOCKED: ENDBRANCH   4  18
DOCKED: TORSDOF 9
DOCKED: TER
DOCKED: ENDMDL
________________________________________________________________________________


    FINAL DOCKED STATE:
    ________________________


Run:   9 / 20
Time taken for this run:   0.062s

DOCKED: MODEL        9
DOCKED: USER    Run = 9
DOCKED: USER
DOCKED: USER    Estimated Free Energy of Binding    =  -8.05 kcal/mol  [=(1)+(2)+(3)-(4)]
DOCKED: USER
DOCKED: USER    (1) Final Intermolecular Energy     = -10.73 kcal/mol
DOCKED: USER        vdW + Hbond + desolv Energy     = -10.19 kcal/mol
DOCKED: USER        Electrostatic Energy            =  -0.54 kcal/mol
DOCKED: USER        Moving Ligand-Fixed Receptor    = -10.73 kcal/mol
DOCKED: USER        Moving Ligand-Moving Receptor   =  +0.00 kcal/mol
DOCKED: USER    (2) Final Total Internal Energy     =  -1.44 kcal/mol
DOCKED: USER    (3) Torsional Free Energy           =  +2.68 kcal/mol
DOCKED: USER    (4) Unbound System's Energy         =  -1.44 kcal/mol
DOCKED: USER
DOCKED: USER
DOCKED: REMARK SMILES CCC(=O)N(c1ccccc1)C1CC[N+](=C(O)[C@@H]([NH3+])C2Cc3ccccc3C2)CC1
DOCKED: REMARK SMILES IDX 12 1 13 2 14 3 15 4 29 5 30 6 5 7 3 8 4 9 2 10 1 11 6 12
DOCKED: REMARK SMILES IDX 7 13 11 14 8 15 10 16 9 17 16 18 17 19 18 21 19 22 20 26
DOCKED: REMARK SMILES IDX 21 27 28 28 22 29 27 30 23 31 26 32 24 33 25 34
DOCKED: REMARK H PARENT 17 20 19 23 19 24 19 25
DOCKED: USER                              x       y       z     vdW  Elec       q    Type
DOCKED: USER                           _______ _______ _______ _____ _____    ______ ____
DOCKED: ROOT
DOCKED: ATOM      1  C   UNL     1     139.529  71.451 223.660 -0.31 -0.02    +0.103 C  
DOCKED: ATOM      2  C   UNL     1     140.672  71.584 222.637 -0.24 -0.01    +0.098 C  
DOCKED: ATOM      3  C   UNL     1     140.672  73.009 222.057 -0.13 -0.02    +0.356 C  
DOCKED: ATOM      4  N   UNL     1     139.301  73.506 221.791 -0.17 +0.04    -0.197 N  
DOCKED: ATOM      5  C   UNL     1     138.239  72.480 221.690 -0.07 -0.08    +0.356 C  
DOCKED: ATOM      6  C   UNL     1     138.143  71.652 222.985 -0.16 -0.03    +0.098 C  
DOCKED: ENDROOT
DOCKED: BRANCH   1   7
DOCKED: ATOM      7  N   UNL     1     139.639  70.187 224.427 -0.17 +0.05    -0.309 N  
DOCKED: BRANCH   7   8
DOCKED: ATOM      8  C   UNL     1     139.086  68.954 223.909 -0.19 -0.04    +0.226 C  
DOCKED: ATOM      9  O   UNL     1     138.495  68.163 224.698 -0.51 -0.01    -0.275 OA 
DOCKED: BRANCH   8  10
DOCKED: ATOM     10  C   UNL     1     139.176  68.607 222.441 -0.13 -0.02    +0.097 C  
DOCKED: ATOM     11  C   UNL     1     138.778  67.161 222.145 -0.26 -0.00    +0.014 C  
DOCKED: ENDBRANCH   8  10
DOCKED: ENDBRANCH   7   8
DOCKED: BRANCH   7  12
DOCKED: ATOM     12  C   UNL     1     140.192  70.153 225.756 -0.47 -0.01    +0.044 A  
DOCKED: ATOM     13  C   UNL     1     140.518  68.917 226.336 -0.54 -0.01    +0.026 A  
DOCKED: ATOM     14  C   UNL     1     140.396  71.336 226.486 -0.60 -0.00    +0.026 A  
DOCKED: ATOM     15  C   UNL     1     141.059  68.865 227.624 -0.62 -0.00    +0.002 A  
DOCKED: ATOM     16  C   UNL     1     140.937  71.279 227.776 -0.76 -0.00    +0.002 A  
DOCKED: ATOM     17  C   UNL     1     141.272  70.045 228.342 -0.49 -0.00    +0.000 A  
DOCKED: ENDBRANCH   7  12
DOCKED: ENDBRANCH   1   7
DOCKED: BRANCH   4  18
DOCKED: ATOM     18  C   UNL     1     139.052  74.791 221.594 -0.13 -0.09    +0.394 C  
DOCKED: BRANCH  18  19
DOCKED: ATOM     19  O   UNL     1     138.083  75.470 222.343 -0.14 +0.13    -0.459 OA 
DOCKED: ATOM     20  H   UNL     1     137.806  75.204 223.277 -0.33 -0.16    +0.299 HD 
DOCKED: ENDBRANCH  18  19
DOCKED: BRANCH  18  21
DOCKED: ATOM     21  C   UNL     1     139.773  75.630 220.541 -0.08 -0.08    +0.322 C  
DOCKED: BRANCH  21  22
DOCKED: ATOM     22  N   UNL     1     138.812  76.569 219.941 -0.00 +0.08    -0.343 N  
DOCKED: ATOM     23  H   UNL     1     138.087  76.830 220.650 +0.06 -0.07    +0.345 HD 
DOCKED: ATOM     24  H   UNL     1     138.321  76.123 219.133 +0.03 -0.08    +0.345 HD 
DOCKED: ATOM     25  H   UNL     1     139.296  77.435 219.613 +0.07 -0.10    +0.345 HD 
DOCKED: ENDBRANCH  21  22
DOCKED: BRANCH  21  26
DOCKED: ATOM     26  C   UNL     1     140.963  76.397 221.184 -0.30 -0.03    +0.071 C  
DOCKED: ATOM     27  C   UNL     1     140.712  76.790 222.662 -0.29 -0.01    +0.046 C  
DOCKED: ATOM     28  C   UNL     1     141.310  77.715 220.443 -0.27 -0.02    +0.046 C  
DOCKED: ATOM     29  C   UNL     1     141.314  78.140 222.769 -0.46 +0.02    -0.044 A  
DOCKED: ATOM     30  C   UNL     1     141.642  78.654 221.539 -0.37 +0.02    -0.044 A  
DOCKED: ATOM     31  C   UNL     1     141.517  78.879 223.938 -0.58 -0.00    +0.004 A  
DOCKED: ATOM     32  C   UNL     1     142.184  79.935 221.412 -0.39 -0.00    +0.004 A  
DOCKED: ATOM     33  C   UNL     1     142.072  80.165 223.834 -0.63 -0.00    +0.000 A  
DOCKED: ATOM     34  C   UNL     1     142.403  80.693 222.573 -0.57 -0.00    +0.000 A  
DOCKED: ENDBRANCH  21  26
DOCKED: ENDBRANCH  18  21
DOCKED: ENDBRANCH   4  18
DOCKED: TORSDOF 9
DOCKED: TER
DOCKED: ENDMDL
________________________________________________________________________________


    FINAL DOCKED STATE:
    ________________________


Run:   10 / 20
Time taken for this run:   0.062s

DOCKED: MODEL        10
DOCKED: USER    Run = 10
DOCKED: USER
DOCKED: USER    Estimated Free Energy of Binding    =  -6.60 kcal/mol  [=(1)+(2)+(3)-(4)]
DOCKED: USER
DOCKED: USER    (1) Final Intermolecular Energy     =  -9.29 kcal/mol
DOCKED: USER        vdW + Hbond + desolv Energy     =  -7.11 kcal/mol
DOCKED: USER        Electrostatic Energy            =  -2.18 kcal/mol
DOCKED: USER        Moving Ligand-Fixed Receptor    =  -9.29 kcal/mol
DOCKED: USER        Moving Ligand-Moving Receptor   =  +0.00 kcal/mol
DOCKED: USER    (2) Final Total Internal Energy     =  -3.05 kcal/mol
DOCKED: USER    (3) Torsional Free Energy           =  +2.68 kcal/mol
DOCKED: USER    (4) Unbound System's Energy         =  -3.05 kcal/mol
DOCKED: USER
DOCKED: USER
DOCKED: REMARK SMILES CCC(=O)N(c1ccccc1)C1CC[N+](=C(O)[C@@H]([NH3+])C2Cc3ccccc3C2)CC1
DOCKED: REMARK SMILES IDX 12 1 13 2 14 3 15 4 29 5 30 6 5 7 3 8 4 9 2 10 1 11 6 12
DOCKED: REMARK SMILES IDX 7 13 11 14 8 15 10 16 9 17 16 18 17 19 18 21 19 22 20 26
DOCKED: REMARK SMILES IDX 21 27 28 28 22 29 27 30 23 31 26 32 24 33 25 34
DOCKED: REMARK H PARENT 17 20 19 23 19 24 19 25
DOCKED: USER                              x       y       z     vdW  Elec       q    Type
DOCKED: USER                           _______ _______ _______ _____ _____    ______ ____
DOCKED: ROOT
DOCKED: ATOM      1  C   UNL     1     140.840  79.082 220.671 -0.22 -0.04    +0.103 C  
DOCKED: ATOM      2  C   UNL     1     139.604  79.533 219.873 -0.08 -0.03    +0.098 C  
DOCKED: ATOM      3  C   UNL     1     140.004  79.774 218.406 -0.02 -0.13    +0.356 C  
DOCKED: ATOM      4  N   UNL     1     141.319  80.447 218.289 -0.12 +0.10    -0.197 N  
DOCKED: ATOM      5  C   UNL     1     141.806  81.153 219.496 -0.11 -0.15    +0.356 C  
DOCKED: ATOM      6  C   UNL     1     141.933  80.188 220.689 -0.27 -0.05    +0.098 C  
DOCKED: ENDROOT
DOCKED: BRANCH   1   7
DOCKED: ATOM      7  N   UNL     1     140.462  78.599 222.020 -0.13 +0.10    -0.309 N  
DOCKED: BRANCH   7   8
DOCKED: ATOM      8  C   UNL     1     141.194  79.023 223.194 -0.39 -0.06    +0.226 C  
DOCKED: ATOM      9  O   UNL     1     141.888  78.178 223.828 -0.44 +0.10    -0.275 OA 
DOCKED: BRANCH   8  10
DOCKED: ATOM     10  C   UNL     1     141.169  80.460 223.659 -0.45 -0.02    +0.097 C  
DOCKED: ATOM     11  C   UNL     1     142.566  81.035 223.894 -0.64 -0.00    +0.014 C  
DOCKED: ENDBRANCH   8  10
DOCKED: ENDBRANCH   7   8
DOCKED: BRANCH   7  12
DOCKED: ATOM     12  C   UNL     1     139.433  77.609 222.209 -0.30 -0.01    +0.044 A  
DOCKED: ATOM     13  C   UNL     1     139.742  76.251 222.030 -0.34 -0.01    +0.026 A  
DOCKED: ATOM     14  C   UNL     1     138.123  77.981 222.554 -0.25 -0.00    +0.026 A  
DOCKED: ATOM     15  C   UNL     1     138.757  75.275 222.212 -0.26 -0.00    +0.002 A  
DOCKED: ATOM     16  C   UNL     1     137.140  77.001 222.734 -0.25 -0.00    +0.002 A  
DOCKED: ATOM     17  C   UNL     1     137.458  75.650 222.568 -0.24 -0.00    +0.000 A  
DOCKED: ENDBRANCH   7  12
DOCKED: ENDBRANCH   1   7
DOCKED: BRANCH   4  18
DOCKED: ATOM     18  C   UNL     1     141.991  80.467 217.149 -0.11 -0.34    +0.394 C  
DOCKED: BRANCH  18  19
DOCKED: ATOM     19  O   UNL     1     142.938  81.463 216.876 -0.12 +0.55    -0.459 OA 
DOCKED: ATOM     20  H   UNL     1     143.872  81.273 216.542 -0.33 -0.72    +0.299 HD 
DOCKED: ENDBRANCH  18  19
DOCKED: BRANCH  18  21
DOCKED: ATOM     21  C   UNL     1     141.787  79.437 216.040 -0.07 -0.28    +0.322 C  
DOCKED: BRANCH  21  22
DOCKED: ATOM     22  N   UNL     1     142.561  79.849 214.859 +0.02 +0.44    -0.343 N  
DOCKED: ATOM     23  H   UNL     1     143.502  79.391 214.879 -0.27 -0.83    +0.345 HD 
DOCKED: ATOM     24  H   UNL     1     142.711  80.883 214.862 -0.10 -0.44    +0.345 HD 
DOCKED: ATOM     25  H   UNL     1     142.067  79.578 213.979 +0.04 -0.27    +0.345 HD 
DOCKED: ENDBRANCH  21  22
DOCKED: BRANCH  21  26
DOCKED: ATOM     26  C   UNL     1     142.231  78.027 216.524 -0.17 -0.06    +0.071 C  
DOCKED: ATOM     27  C   UNL     1     141.042  77.068 216.785 -0.06 -0.02    +0.046 C  
DOCKED: ATOM     28  C   UNL     1     143.049  78.065 217.841 -0.15 -0.04    +0.046 C  
DOCKED: ATOM     29  C   UNL     1     141.458  76.322 217.997 -0.10 +0.02    -0.044 A  
DOCKED: ATOM     30  C   UNL     1     142.568  76.877 218.583 -0.29 +0.03    -0.044 A  
DOCKED: ATOM     31  C   UNL     1     140.825  75.210 218.556 -0.06 -0.00    +0.004 A  
DOCKED: ATOM     32  C   UNL     1     143.099  76.354 219.764 -0.38 -0.00    +0.004 A  
DOCKED: ATOM     33  C   UNL     1     141.351  74.659 219.736 -0.16 -0.00    +0.000 A  
DOCKED: ATOM     34  C   UNL     1     142.484  75.231 220.341 -0.31 -0.00    +0.000 A  
DOCKED: ENDBRANCH  21  26
DOCKED: ENDBRANCH  18  21
DOCKED: ENDBRANCH   4  18
DOCKED: TORSDOF 9
DOCKED: TER
DOCKED: ENDMDL
________________________________________________________________________________


    FINAL DOCKED STATE:
    ________________________


Run:   11 / 20
Time taken for this run:   0.062s

DOCKED: MODEL        11
DOCKED: USER    Run = 11
DOCKED: USER
DOCKED: USER    Estimated Free Energy of Binding    =  -6.70 kcal/mol  [=(1)+(2)+(3)-(4)]
DOCKED: USER
DOCKED: USER    (1) Final Intermolecular Energy     =  -9.39 kcal/mol
DOCKED: USER        vdW + Hbond + desolv Energy     =  -7.31 kcal/mol
DOCKED: USER        Electrostatic Energy            =  -2.08 kcal/mol
DOCKED: USER        Moving Ligand-Fixed Receptor    =  -9.39 kcal/mol
DOCKED: USER        Moving Ligand-Moving Receptor   =  +0.00 kcal/mol
DOCKED: USER    (2) Final Total Internal Energy     =  -3.06 kcal/mol
DOCKED: USER    (3) Torsional Free Energy           =  +2.68 kcal/mol
DOCKED: USER    (4) Unbound System's Energy         =  -3.06 kcal/mol
DOCKED: USER
DOCKED: USER
DOCKED: REMARK SMILES CCC(=O)N(c1ccccc1)C1CC[N+](=C(O)[C@@H]([NH3+])C2Cc3ccccc3C2)CC1
DOCKED: REMARK SMILES IDX 12 1 13 2 14 3 15 4 29 5 30 6 5 7 3 8 4 9 2 10 1 11 6 12
DOCKED: REMARK SMILES IDX 7 13 11 14 8 15 10 16 9 17 16 18 17 19 18 21 19 22 20 26
DOCKED: REMARK SMILES IDX 21 27 28 28 22 29 27 30 23 31 26 32 24 33 25 34
DOCKED: REMARK H PARENT 17 20 19 23 19 24 19 25
DOCKED: USER                              x       y       z     vdW  Elec       q    Type
DOCKED: USER                           _______ _______ _______ _____ _____    ______ ____
DOCKED: ROOT
DOCKED: ATOM      1  C   UNL     1     140.766  79.106 220.784 -0.21 -0.04    +0.103 C  
DOCKED: ATOM      2  C   UNL     1     139.552  79.624 219.992 -0.08 -0.03    +0.098 C  
DOCKED: ATOM      3  C   UNL     1     139.967  79.878 218.532 -0.02 -0.13    +0.356 C  
DOCKED: ATOM      4  N   UNL     1     141.310  80.498 218.432 -0.13 +0.10    -0.197 N  
DOCKED: ATOM      5  C   UNL     1     141.821  81.158 219.654 -0.10 -0.15    +0.356 C  
DOCKED: ATOM      6  C   UNL     1     141.904  80.164 220.827 -0.29 -0.04    +0.098 C  
DOCKED: ENDROOT
DOCKED: BRANCH   1   7
DOCKED: ATOM      7  N   UNL     1     140.363  78.611 222.122 -0.13 +0.09    -0.309 N  
DOCKED: BRANCH   7   8
DOCKED: ATOM      8  C   UNL     1     141.137  78.940 223.300 -0.39 -0.06    +0.226 C  
DOCKED: ATOM      9  O   UNL     1     141.802  78.031 223.875 -0.42 +0.10    -0.275 OA 
DOCKED: BRANCH   8  10
DOCKED: ATOM     10  C   UNL     1     141.190  80.351 223.837 -0.42 -0.02    +0.097 C  
DOCKED: ATOM     11  C   UNL     1     142.611  80.912 223.897 -0.65 -0.00    +0.014 C  
DOCKED: ENDBRANCH   8  10
DOCKED: ENDBRANCH   7   8
DOCKED: BRANCH   7  12
DOCKED: ATOM     12  C   UNL     1     139.262  77.699 222.292 -0.29 -0.01    +0.044 A  
DOCKED: ATOM     13  C   UNL     1     137.988  78.204 222.599 -0.24 -0.00    +0.026 A  
DOCKED: ATOM     14  C   UNL     1     139.445  76.311 222.171 -0.33 -0.01    +0.026 A  
DOCKED: ATOM     15  C   UNL     1     136.907  77.333 222.765 -0.22 -0.00    +0.002 A  
DOCKED: ATOM     16  C   UNL     1     138.360  75.443 222.339 -0.25 -0.00    +0.002 A  
DOCKED: ATOM     17  C   UNL     1     137.091  75.954 222.631 -0.26 -0.00    +0.000 A  
DOCKED: ENDBRANCH   7  12
DOCKED: ENDBRANCH   1   7
DOCKED: BRANCH   4  18
DOCKED: ATOM     18  C   UNL     1     141.986  80.514 217.295 -0.12 -0.33    +0.394 C  
DOCKED: BRANCH  18  19
DOCKED: ATOM     19  O   UNL     1     142.964  81.483 217.039 -0.14 +0.53    -0.459 OA 
DOCKED: ATOM     20  H   UNL     1     143.934  81.266 216.858 -0.29 -0.67    +0.299 HD 
DOCKED: ENDBRANCH  18  19
DOCKED: BRANCH  18  21
DOCKED: ATOM     21  C   UNL     1     141.753  79.507 216.170 -0.08 -0.28    +0.322 C  
DOCKED: BRANCH  21  22
DOCKED: ATOM     22  N   UNL     1     142.571  79.891 215.009 +0.07 +0.46    -0.343 N  
DOCKED: ATOM     23  H   UNL     1     143.099  80.768 215.228 -0.43 -0.63    +0.345 HD 
DOCKED: ATOM     24  H   UNL     1     141.963  80.083 214.181 +0.04 -0.28    +0.345 HD 
DOCKED: ATOM     25  H   UNL     1     143.250  79.134 214.767 -0.22 -0.61    +0.345 HD 
DOCKED: ENDBRANCH  21  22
DOCKED: BRANCH  21  26
DOCKED: ATOM     26  C   UNL     1     142.115  78.071 216.647 -0.17 -0.05    +0.071 C  
DOCKED: ATOM     27  C   UNL     1     140.873  77.197 216.955 -0.06 -0.02    +0.046 C  
DOCKED: ATOM     28  C   UNL     1     142.980  78.056 217.934 -0.22 -0.04    +0.046 C  
DOCKED: ATOM     29  C   UNL     1     141.279  76.430 218.157 -0.09 +0.02    -0.044 A  
DOCKED: ATOM     30  C   UNL     1     142.445  76.908 218.700 -0.28 +0.03    -0.044 A  
DOCKED: ATOM     31  C   UNL     1     140.591  75.366 218.745 -0.07 -0.00    +0.004 A  
DOCKED: ATOM     32  C   UNL     1     142.981  76.354 219.865 -0.34 -0.00    +0.004 A  
DOCKED: ATOM     33  C   UNL     1     141.119  74.784 219.910 -0.17 -0.00    +0.000 A  
DOCKED: ATOM     34  C   UNL     1     142.311  75.278 220.470 -0.31 -0.00    +0.000 A  
DOCKED: ENDBRANCH  21  26
DOCKED: ENDBRANCH  18  21
DOCKED: ENDBRANCH   4  18
DOCKED: TORSDOF 9
DOCKED: TER
DOCKED: ENDMDL
________________________________________________________________________________


    FINAL DOCKED STATE:
    ________________________


Run:   12 / 20
Time taken for this run:   0.062s

DOCKED: MODEL        12
DOCKED: USER    Run = 12
DOCKED: USER
DOCKED: USER    Estimated Free Energy of Binding    =  -6.50 kcal/mol  [=(1)+(2)+(3)-(4)]
DOCKED: USER
DOCKED: USER    (1) Final Intermolecular Energy     =  -9.19 kcal/mol
DOCKED: USER        vdW + Hbond + desolv Energy     =  -6.94 kcal/mol
DOCKED: USER        Electrostatic Energy            =  -2.25 kcal/mol
DOCKED: USER        Moving Ligand-Fixed Receptor    =  -9.19 kcal/mol
DOCKED: USER        Moving Ligand-Moving Receptor   =  +0.00 kcal/mol
DOCKED: USER    (2) Final Total Internal Energy     =  -3.16 kcal/mol
DOCKED: USER    (3) Torsional Free Energy           =  +2.68 kcal/mol
DOCKED: USER    (4) Unbound System's Energy         =  -3.16 kcal/mol
DOCKED: USER
DOCKED: USER
DOCKED: REMARK SMILES CCC(=O)N(c1ccccc1)C1CC[N+](=C(O)[C@@H]([NH3+])C2Cc3ccccc3C2)CC1
DOCKED: REMARK SMILES IDX 12 1 13 2 14 3 15 4 29 5 30 6 5 7 3 8 4 9 2 10 1 11 6 12
DOCKED: REMARK SMILES IDX 7 13 11 14 8 15 10 16 9 17 16 18 17 19 18 21 19 22 20 26
DOCKED: REMARK SMILES IDX 21 27 28 28 22 29 27 30 23 31 26 32 24 33 25 34
DOCKED: REMARK H PARENT 17 20 19 23 19 24 19 25
DOCKED: USER                              x       y       z     vdW  Elec       q    Type
DOCKED: USER                           _______ _______ _______ _____ _____    ______ ____
DOCKED: ROOT
DOCKED: ATOM      1  C   UNL     1     140.629  79.528 220.574 -0.19 -0.04    +0.103 C  
DOCKED: ATOM      2  C   UNL     1     139.468  80.062 219.716 -0.07 -0.03    +0.098 C  
DOCKED: ATOM      3  C   UNL     1     139.948  80.242 218.265 -0.02 -0.13    +0.356 C  
DOCKED: ATOM      4  N   UNL     1     141.318  80.806 218.195 -0.12 +0.10    -0.197 N  
DOCKED: ATOM      5  C   UNL     1     141.808  81.492 219.411 -0.08 -0.15    +0.356 C  
DOCKED: ATOM      6  C   UNL     1     141.806  80.542 220.623 -0.30 -0.04    +0.098 C  
DOCKED: ENDROOT
DOCKED: BRANCH   1   7
DOCKED: ATOM      7  N   UNL     1     140.155  79.102 221.913 -0.09 +0.08    -0.309 N  
DOCKED: BRANCH   7   8
DOCKED: ATOM      8  C   UNL     1     140.586  79.794 223.108 -0.33 -0.05    +0.226 C  
DOCKED: ATOM      9  O   UNL     1     139.875  80.731 223.570 -0.27 +0.03    -0.275 OA 
DOCKED: BRANCH   8  10
DOCKED: ATOM     10  C   UNL     1     141.853  79.399 223.831 -0.55 -0.03    +0.097 C  
DOCKED: ATOM     11  C   UNL     1     142.929  80.483 223.783 -0.66 -0.00    +0.014 C  
DOCKED: ENDBRANCH   8  10
DOCKED: ENDBRANCH   7   8
DOCKED: BRANCH   7  12
DOCKED: ATOM     12  C   UNL     1     139.346  77.924 222.090 -0.26 -0.01    +0.044 A  
DOCKED: ATOM     13  C   UNL     1     137.955  78.056 222.224 -0.21 -0.00    +0.026 A  
DOCKED: ATOM     14  C   UNL     1     139.928  76.646 222.146 -0.36 -0.01    +0.026 A  
DOCKED: ATOM     15  C   UNL     1     137.153  76.923 222.394 -0.23 -0.00    +0.002 A  
DOCKED: ATOM     16  C   UNL     1     139.122  75.515 222.318 -0.31 -0.00    +0.002 A  
DOCKED: ATOM     17  C   UNL     1     137.735  75.654 222.437 -0.25 -0.00    +0.000 A  
DOCKED: ENDBRANCH   7  12
DOCKED: ENDBRANCH   1   7
DOCKED: BRANCH   4  18
DOCKED: ATOM     18  C   UNL     1     142.037  80.750 217.086 -0.11 -0.34    +0.394 C  
DOCKED: BRANCH  18  19
DOCKED: ATOM     19  O   UNL     1     143.071  81.663 216.839 -0.13 +0.55    -0.459 OA 
DOCKED: ATOM     20  H   UNL     1     143.988  81.396 216.512 -0.31 -0.72    +0.299 HD 
DOCKED: ENDBRANCH  18  19
DOCKED: BRANCH  18  21
DOCKED: ATOM     21  C   UNL     1     141.799  79.718 215.985 -0.07 -0.29    +0.322 C  
DOCKED: BRANCH  21  22
DOCKED: ATOM     22  N   UNL     1     142.574  80.102 214.796 +0.02 +0.43    -0.343 N  
DOCKED: ATOM     23  H   UNL     1     143.528  79.674 214.846 -0.34 -0.87    +0.345 HD 
DOCKED: ATOM     24  H   UNL     1     142.692  81.140 214.755 -0.03 -0.40    +0.345 HD 
DOCKED: ATOM     25  H   UNL     1     142.099  79.778 213.923 +0.04 -0.28    +0.345 HD 
DOCKED: ENDBRANCH  21  22
DOCKED: BRANCH  21  26
DOCKED: ATOM     26  C   UNL     1     142.211  78.301 216.476 -0.17 -0.06    +0.071 C  
DOCKED: ATOM     27  C   UNL     1     141.006  77.345 216.665 -0.06 -0.02    +0.046 C  
DOCKED: ATOM     28  C   UNL     1     142.960  78.320 217.834 -0.24 -0.04    +0.046 C  
DOCKED: ATOM     29  C   UNL     1     141.355  76.585 217.889 -0.09 +0.02    -0.044 A  
DOCKED: ATOM     30  C   UNL     1     142.436  77.127 218.538 -0.28 +0.03    -0.044 A  
DOCKED: ATOM     31  C   UNL     1     140.689  75.469 218.403 -0.06 -0.00    +0.004 A  
DOCKED: ATOM     32  C   UNL     1     142.904  76.589 219.738 -0.37 -0.00    +0.004 A  
DOCKED: ATOM     33  C   UNL     1     141.151  74.903 219.603 -0.14 -0.00    +0.000 A  
DOCKED: ATOM     34  C   UNL     1     142.255  75.463 220.270 -0.30 -0.00    +0.000 A  
DOCKED: ENDBRANCH  21  26
DOCKED: ENDBRANCH  18  21
DOCKED: ENDBRANCH   4  18
DOCKED: TORSDOF 9
DOCKED: TER
DOCKED: ENDMDL
________________________________________________________________________________


    FINAL DOCKED STATE:
    ________________________


Run:   13 / 20
Time taken for this run:   0.062s

DOCKED: MODEL        13
DOCKED: USER    Run = 13
DOCKED: USER
DOCKED: USER    Estimated Free Energy of Binding    =  -7.66 kcal/mol  [=(1)+(2)+(3)-(4)]
DOCKED: USER
DOCKED: USER    (1) Final Intermolecular Energy     = -10.35 kcal/mol
DOCKED: USER        vdW + Hbond + desolv Energy     =  -8.66 kcal/mol
DOCKED: USER        Electrostatic Energy            =  -1.69 kcal/mol
DOCKED: USER        Moving Ligand-Fixed Receptor    = -10.35 kcal/mol
DOCKED: USER        Moving Ligand-Moving Receptor   =  +0.00 kcal/mol
DOCKED: USER    (2) Final Total Internal Energy     =  -2.18 kcal/mol
DOCKED: USER    (3) Torsional Free Energy           =  +2.68 kcal/mol
DOCKED: USER    (4) Unbound System's Energy         =  -2.18 kcal/mol
DOCKED: USER
DOCKED: USER
DOCKED: REMARK SMILES CCC(=O)N(c1ccccc1)C1CC[N+](=C(O)[C@@H]([NH3+])C2Cc3ccccc3C2)CC1
DOCKED: REMARK SMILES IDX 12 1 13 2 14 3 15 4 29 5 30 6 5 7 3 8 4 9 2 10 1 11 6 12
DOCKED: REMARK SMILES IDX 7 13 11 14 8 15 10 16 9 17 16 18 17 19 18 21 19 22 20 26
DOCKED: REMARK SMILES IDX 21 27 28 28 22 29 27 30 23 31 26 32 24 33 25 34
DOCKED: REMARK H PARENT 17 20 19 23 19 24 19 25
DOCKED: USER                              x       y       z     vdW  Elec       q    Type
DOCKED: USER                           _______ _______ _______ _____ _____    ______ ____
DOCKED: ROOT
DOCKED: ATOM      1  C   UNL     1     142.550  75.667 219.245 -0.25 -0.05    +0.103 C  
DOCKED: ATOM      2  C   UNL     1     143.333  75.484 217.933 -0.19 -0.05    +0.098 C  
DOCKED: ATOM      3  C   UNL     1     143.371  76.821 217.172 -0.10 -0.25    +0.356 C  
DOCKED: ATOM      4  N   UNL     1     142.075  77.538 217.235 -0.12 +0.12    -0.197 N  
DOCKED: ATOM      5  C   UNL     1     140.892  76.724 217.592 -0.01 -0.14    +0.356 C  
DOCKED: ATOM      6  C   UNL     1     141.071  76.058 218.969 -0.10 -0.04    +0.098 C  
DOCKED: ENDROOT
DOCKED: BRANCH   1   7
DOCKED: ATOM      7  N   UNL     1     142.696  74.484 220.128 -0.14 +0.10    -0.309 N  
DOCKED: BRANCH   7   8
DOCKED: ATOM      8  C   UNL     1     141.632  74.091 221.026 -0.17 -0.04    +0.226 C  
DOCKED: ATOM      9  O   UNL     1     141.207  74.920 221.880 -0.51 +0.04    -0.275 OA 
DOCKED: BRANCH   8  10
DOCKED: ATOM     10  C   UNL     1     141.000  72.721 220.944 -0.20 -0.01    +0.097 C  
DOCKED: ATOM     11  C   UNL     1     140.715  72.113 222.317 -0.30 -0.00    +0.014 C  
DOCKED: ENDBRANCH   8  10
DOCKED: ENDBRANCH   7   8
DOCKED: BRANCH   7  12
DOCKED: ATOM     12  C   UNL     1     143.933  73.751 220.212 -0.37 -0.01    +0.044 A  
DOCKED: ATOM     13  C   UNL     1     143.997  72.445 219.700 -0.26 -0.00    +0.026 A  
DOCKED: ATOM     14  C   UNL     1     145.071  74.316 220.811 -0.47 -0.01    +0.026 A  
DOCKED: ATOM     15  C   UNL     1     145.190  71.720 219.771 -0.32 +0.00    +0.002 A  
DOCKED: ATOM     16  C   UNL     1     146.263  73.586 220.880 -0.70 -0.00    +0.002 A  
DOCKED: ATOM     17  C   UNL     1     146.323  72.291 220.356 -0.28 +0.00    +0.000 A  
DOCKED: ENDBRANCH   7  12
DOCKED: ENDBRANCH   1   7
DOCKED: BRANCH   4  18
DOCKED: ATOM     18  C   UNL     1     141.975  78.822 216.929 -0.10 -0.33    +0.394 C  
DOCKED: BRANCH  18  19
DOCKED: ATOM     19  O   UNL     1     141.398  79.243 215.724 -0.03 +0.32    -0.459 OA 
DOCKED: ATOM     20  H   UNL     1     141.857  79.169 214.827 +0.03 -0.24    +0.299 HD 
DOCKED: ENDBRANCH  18  19
DOCKED: BRANCH  18  21
DOCKED: ATOM     21  C   UNL     1     142.483  79.940 217.837 -0.18 -0.30    +0.322 C  
DOCKED: BRANCH  21  22
DOCKED: ATOM     22  N   UNL     1     142.486  81.202 217.082 -0.13 +0.34    -0.343 N  
DOCKED: ATOM     23  H   UNL     1     141.625  81.258 216.489 +0.08 -0.24    +0.345 HD 
DOCKED: ATOM     24  H   UNL     1     143.314  81.247 216.446 -0.37 -0.61    +0.345 HD 
DOCKED: ATOM     25  H   UNL     1     142.507  82.022 217.730 +0.13 -0.23    +0.345 HD 
DOCKED: ENDBRANCH  21  22
DOCKED: BRANCH  21  26
DOCKED: ATOM     26  C   UNL     1     141.588  80.058 219.103 -0.24 -0.04    +0.071 C  
DOCKED: ATOM     27  C   UNL     1     141.820  81.369 219.897 -0.20 -0.02    +0.046 C  
DOCKED: ATOM     28  C   UNL     1     141.805  78.901 220.113 -0.26 -0.03    +0.046 C  
DOCKED: ATOM     29  C   UNL     1     141.731  80.937 221.312 -0.38 +0.01    -0.044 A  
DOCKED: ATOM     30  C   UNL     1     141.726  79.570 221.431 -0.38 +0.02    -0.044 A  
DOCKED: ATOM     31  C   UNL     1     141.693  81.761 222.440 -0.44 -0.00    +0.004 A  
DOCKED: ATOM     32  C   UNL     1     141.690  78.953 222.684 -0.52 -0.00    +0.004 A  
DOCKED: ATOM     33  C   UNL     1     141.644  81.162 223.710 -0.57 -0.00    +0.000 A  
DOCKED: ATOM     34  C   UNL     1     141.645  79.761 223.832 -0.60 -0.00    +0.000 A  
DOCKED: ENDBRANCH  21  26
DOCKED: ENDBRANCH  18  21
DOCKED: ENDBRANCH   4  18
DOCKED: TORSDOF 9
DOCKED: TER
DOCKED: ENDMDL
________________________________________________________________________________


    FINAL DOCKED STATE:
    ________________________


Run:   14 / 20
Time taken for this run:   0.062s

DOCKED: MODEL        14
DOCKED: USER    Run = 14
DOCKED: USER
DOCKED: USER    Estimated Free Energy of Binding    =  -6.73 kcal/mol  [=(1)+(2)+(3)-(4)]
DOCKED: USER
DOCKED: USER    (1) Final Intermolecular Energy     =  -9.41 kcal/mol
DOCKED: USER        vdW + Hbond + desolv Energy     =  -7.31 kcal/mol
DOCKED: USER        Electrostatic Energy            =  -2.10 kcal/mol
DOCKED: USER        Moving Ligand-Fixed Receptor    =  -9.41 kcal/mol
DOCKED: USER        Moving Ligand-Moving Receptor   =  +0.00 kcal/mol
DOCKED: USER    (2) Final Total Internal Energy     =  -3.06 kcal/mol
DOCKED: USER    (3) Torsional Free Energy           =  +2.68 kcal/mol
DOCKED: USER    (4) Unbound System's Energy         =  -3.06 kcal/mol
DOCKED: USER
DOCKED: USER
DOCKED: REMARK SMILES CCC(=O)N(c1ccccc1)C1CC[N+](=C(O)[C@@H]([NH3+])C2Cc3ccccc3C2)CC1
DOCKED: REMARK SMILES IDX 12 1 13 2 14 3 15 4 29 5 30 6 5 7 3 8 4 9 2 10 1 11 6 12
DOCKED: REMARK SMILES IDX 7 13 11 14 8 15 10 16 9 17 16 18 17 19 18 21 19 22 20 26
DOCKED: REMARK SMILES IDX 21 27 28 28 22 29 27 30 23 31 26 32 24 33 25 34
DOCKED: REMARK H PARENT 17 20 19 23 19 24 19 25
DOCKED: USER                              x       y       z     vdW  Elec       q    Type
DOCKED: USER                           _______ _______ _______ _____ _____    ______ ____
DOCKED: ROOT
DOCKED: ATOM      1  C   UNL     1     140.781  79.073 220.770 -0.22 -0.04    +0.103 C  
DOCKED: ATOM      2  C   UNL     1     139.563  79.593 219.985 -0.08 -0.03    +0.098 C  
DOCKED: ATOM      3  C   UNL     1     139.971  79.850 218.523 -0.02 -0.13    +0.356 C  
DOCKED: ATOM      4  N   UNL     1     141.314  80.470 218.418 -0.12 +0.10    -0.197 N  
DOCKED: ATOM      5  C   UNL     1     141.831  81.127 219.639 -0.10 -0.15    +0.356 C  
DOCKED: ATOM      6  C   UNL     1     141.919  80.131 220.810 -0.29 -0.05    +0.098 C  
DOCKED: ENDROOT
DOCKED: BRANCH   1   7
DOCKED: ATOM      7  N   UNL     1     140.384  78.576 222.109 -0.14 +0.09    -0.309 N  
DOCKED: BRANCH   7   8
DOCKED: ATOM      8  C   UNL     1     141.160  78.908 223.285 -0.39 -0.06    +0.226 C  
DOCKED: ATOM      9  O   UNL     1     141.836  78.004 223.854 -0.43 +0.10    -0.275 OA 
DOCKED: BRANCH   8  10
DOCKED: ATOM     10  C   UNL     1     141.200  80.317 223.828 -0.43 -0.02    +0.097 C  
DOCKED: ATOM     11  C   UNL     1     142.617  80.885 223.907 -0.65 -0.00    +0.014 C  
DOCKED: ENDBRANCH   8  10
DOCKED: ENDBRANCH   7   8
DOCKED: BRANCH   7  12
DOCKED: ATOM     12  C   UNL     1     139.288  77.658 222.282 -0.29 -0.01    +0.044 A  
DOCKED: ATOM     13  C   UNL     1     138.015  78.155 222.602 -0.24 -0.00    +0.026 A  
DOCKED: ATOM     14  C   UNL     1     139.476  76.272 222.150 -0.33 -0.01    +0.026 A  
DOCKED: ATOM     15  C   UNL     1     136.939  77.279 222.770 -0.22 -0.00    +0.002 A  
DOCKED: ATOM     16  C   UNL     1     138.396  75.398 222.321 -0.24 -0.00    +0.002 A  
DOCKED: ATOM     17  C   UNL     1     137.128  75.902 222.625 -0.26 -0.00    +0.000 A  
DOCKED: ENDBRANCH   7  12
DOCKED: ENDBRANCH   1   7
DOCKED: BRANCH   4  18
DOCKED: ATOM     18  C   UNL     1     141.985  80.487 217.277 -0.12 -0.33    +0.394 C  
DOCKED: BRANCH  18  19
DOCKED: ATOM     19  O   UNL     1     142.955  81.463 217.015 -0.14 +0.53    -0.459 OA 
DOCKED: ATOM     20  H   UNL     1     143.926  81.253 216.831 -0.29 -0.68    +0.299 HD 
DOCKED: ENDBRANCH  18  19
DOCKED: BRANCH  18  21
DOCKED: ATOM     21  C   UNL     1     141.754  79.476 216.156 -0.08 -0.28    +0.322 C  
DOCKED: BRANCH  21  22
DOCKED: ATOM     22  N   UNL     1     142.570  79.858 214.994 +0.07 +0.45    -0.343 N  
DOCKED: ATOM     23  H   UNL     1     143.264  79.101 214.788 -0.22 -0.62    +0.345 HD 
DOCKED: ATOM     24  H   UNL     1     143.105  80.733 215.194 -0.43 -0.64    +0.345 HD 
DOCKED: ATOM     25  H   UNL     1     141.970  80.009 214.153 +0.04 -0.27    +0.345 HD 
DOCKED: ENDBRANCH  21  22
DOCKED: BRANCH  21  26
DOCKED: ATOM     26  C   UNL     1     142.120  78.043 216.638 -0.17 -0.05    +0.071 C  
DOCKED: ATOM     27  C   UNL     1     140.880  77.164 216.940 -0.06 -0.02    +0.046 C  
DOCKED: ATOM     28  C   UNL     1     142.977  78.035 217.931 -0.23 -0.04    +0.046 C  
DOCKED: ATOM     29  C   UNL     1     141.282  76.400 218.145 -0.09 +0.02    -0.044 A  
DOCKED: ATOM     30  C   UNL     1     142.442  76.885 218.696 -0.28 +0.03    -0.044 A  
DOCKED: ATOM     31  C   UNL     1     140.595  75.334 218.731 -0.06 -0.00    +0.004 A  
DOCKED: ATOM     32  C   UNL     1     142.973  76.335 219.865 -0.34 -0.00    +0.004 A  
DOCKED: ATOM     33  C   UNL     1     141.118  74.757 219.900 -0.16 -0.00    +0.000 A  
DOCKED: ATOM     34  C   UNL     1     142.304  75.258 220.467 -0.31 -0.00    +0.000 A  
DOCKED: ENDBRANCH  21  26
DOCKED: ENDBRANCH  18  21
DOCKED: ENDBRANCH   4  18
DOCKED: TORSDOF 9
DOCKED: TER
DOCKED: ENDMDL
________________________________________________________________________________


    FINAL DOCKED STATE:
    ________________________


Run:   15 / 20
Time taken for this run:   0.062s

DOCKED: MODEL        15
DOCKED: USER    Run = 15
DOCKED: USER
DOCKED: USER    Estimated Free Energy of Binding    =  -6.63 kcal/mol  [=(1)+(2)+(3)-(4)]
DOCKED: USER
DOCKED: USER    (1) Final Intermolecular Energy     =  -9.31 kcal/mol
DOCKED: USER        vdW + Hbond + desolv Energy     =  -7.18 kcal/mol
DOCKED: USER        Electrostatic Energy            =  -2.13 kcal/mol
DOCKED: USER        Moving Ligand-Fixed Receptor    =  -9.31 kcal/mol
DOCKED: USER        Moving Ligand-Moving Receptor   =  +0.00 kcal/mol
DOCKED: USER    (2) Final Total Internal Energy     =  -3.08 kcal/mol
DOCKED: USER    (3) Torsional Free Energy           =  +2.68 kcal/mol
DOCKED: USER    (4) Unbound System's Energy         =  -3.08 kcal/mol
DOCKED: USER
DOCKED: USER
DOCKED: REMARK SMILES CCC(=O)N(c1ccccc1)C1CC[N+](=C(O)[C@@H]([NH3+])C2Cc3ccccc3C2)CC1
DOCKED: REMARK SMILES IDX 12 1 13 2 14 3 15 4 29 5 30 6 5 7 3 8 4 9 2 10 1 11 6 12
DOCKED: REMARK SMILES IDX 7 13 11 14 8 15 10 16 9 17 16 18 17 19 18 21 19 22 20 26
DOCKED: REMARK SMILES IDX 21 27 28 28 22 29 27 30 23 31 26 32 24 33 25 34
DOCKED: REMARK H PARENT 17 20 19 23 19 24 19 25
DOCKED: USER                              x       y       z     vdW  Elec       q    Type
DOCKED: USER                           _______ _______ _______ _____ _____    ______ ____
DOCKED: ROOT
DOCKED: ATOM      1  C   UNL     1     140.633  79.384 220.748 -0.20 -0.04    +0.103 C  
DOCKED: ATOM      2  C   UNL     1     139.467  79.917 219.895 -0.08 -0.03    +0.098 C  
DOCKED: ATOM      3  C   UNL     1     139.943  80.108 218.444 -0.02 -0.13    +0.356 C  
DOCKED: ATOM      4  N   UNL     1     141.309  80.678 218.374 -0.12 +0.10    -0.197 N  
DOCKED: ATOM      5  C   UNL     1     141.800  81.360 219.593 -0.08 -0.14    +0.356 C  
DOCKED: ATOM      6  C   UNL     1     141.805  80.403 220.799 -0.32 -0.04    +0.098 C  
DOCKED: ENDROOT
DOCKED: BRANCH   1   7
DOCKED: ATOM      7  N   UNL     1     140.165  78.948 222.085 -0.11 +0.08    -0.309 N  
DOCKED: BRANCH   7   8
DOCKED: ATOM      8  C   UNL     1     140.685  79.559 223.290 -0.35 -0.05    +0.226 C  
DOCKED: ATOM      9  O   UNL     1     139.946  80.340 223.955 -0.27 +0.04    -0.275 OA 
DOCKED: BRANCH   8  10
DOCKED: ATOM     10  C   UNL     1     142.081  79.259 223.784 -0.51 -0.03    +0.097 C  
DOCKED: ATOM     11  C   UNL     1     142.970  80.500 223.846 -0.66 -0.00    +0.014 C  
DOCKED: ENDBRANCH   8  10
DOCKED: ENDBRANCH   7   8
DOCKED: BRANCH   7  12
DOCKED: ATOM     12  C   UNL     1     139.268  77.833 222.247 -0.28 -0.01    +0.044 A  
DOCKED: ATOM     13  C   UNL     1     139.772  76.525 222.164 -0.35 -0.01    +0.026 A  
DOCKED: ATOM     14  C   UNL     1     137.896  78.032 222.472 -0.23 -0.00    +0.026 A  
DOCKED: ATOM     15  C   UNL     1     138.917  75.430 222.322 -0.28 -0.00    +0.002 A  
DOCKED: ATOM     16  C   UNL     1     137.044  76.934 222.628 -0.24 -0.00    +0.002 A  
DOCKED: ATOM     17  C   UNL     1     137.555  75.634 222.558 -0.24 -0.00    +0.000 A  
DOCKED: ENDBRANCH   7  12
DOCKED: ENDBRANCH   1   7
DOCKED: BRANCH   4  18
DOCKED: ATOM     18  C   UNL     1     142.026  80.633 217.263 -0.12 -0.33    +0.394 C  
DOCKED: BRANCH  18  19
DOCKED: ATOM     19  O   UNL     1     143.060  81.546 217.022 -0.13 +0.54    -0.459 OA 
DOCKED: ATOM     20  H   UNL     1     144.012  81.276 216.820 -0.28 -0.70    +0.299 HD 
DOCKED: ENDBRANCH  18  19
DOCKED: BRANCH  18  21
DOCKED: ATOM     21  C   UNL     1     141.784  79.612 216.153 -0.08 -0.28    +0.322 C  
DOCKED: BRANCH  21  22
DOCKED: ATOM     22  N   UNL     1     142.560  80.004 214.967 +0.05 +0.45    -0.343 N  
DOCKED: ATOM     23  H   UNL     1     143.092  80.882 215.171 -0.40 -0.60    +0.345 HD 
DOCKED: ATOM     24  H   UNL     1     141.924  80.197 214.161 +0.04 -0.27    +0.345 HD 
DOCKED: ATOM     25  H   UNL     1     143.233  79.251 214.699 -0.23 -0.61    +0.345 HD 
DOCKED: ENDBRANCH  21  22
DOCKED: BRANCH  21  26
DOCKED: ATOM     26  C   UNL     1     142.190  78.188 216.631 -0.18 -0.06    +0.071 C  
DOCKED: ATOM     27  C   UNL     1     140.980  77.240 216.828 -0.06 -0.02    +0.046 C  
DOCKED: ATOM     28  C   UNL     1     142.955  78.194 217.980 -0.24 -0.04    +0.046 C  
DOCKED: ATOM     29  C   UNL     1     141.337  76.470 218.043 -0.09 +0.02    -0.044 A  
DOCKED: ATOM     30  C   UNL     1     142.430  77.001 218.683 -0.28 +0.03    -0.044 A  
DOCKED: ATOM     31  C   UNL     1     140.669  75.357 218.558 -0.06 -0.00    +0.004 A  
DOCKED: ATOM     32  C   UNL     1     142.906  76.451 219.875 -0.33 -0.00    +0.004 A  
DOCKED: ATOM     33  C   UNL     1     141.139  74.780 219.749 -0.15 -0.00    +0.000 A  
DOCKED: ATOM     34  C   UNL     1     142.255  75.328 220.408 -0.30 -0.00    +0.000 A  
DOCKED: ENDBRANCH  21  26
DOCKED: ENDBRANCH  18  21
DOCKED: ENDBRANCH   4  18
DOCKED: TORSDOF 9
DOCKED: TER
DOCKED: ENDMDL
________________________________________________________________________________


    FINAL DOCKED STATE:
    ________________________


Run:   16 / 20
Time taken for this run:   0.062s

DOCKED: MODEL        16
DOCKED: USER    Run = 16
DOCKED: USER
DOCKED: USER    Estimated Free Energy of Binding    =  -5.96 kcal/mol  [=(1)+(2)+(3)-(4)]
DOCKED: USER
DOCKED: USER    (1) Final Intermolecular Energy     =  -8.64 kcal/mol
DOCKED: USER        vdW + Hbond + desolv Energy     =  -6.97 kcal/mol
DOCKED: USER        Electrostatic Energy            =  -1.67 kcal/mol
DOCKED: USER        Moving Ligand-Fixed Receptor    =  -8.64 kcal/mol
DOCKED: USER        Moving Ligand-Moving Receptor   =  +0.00 kcal/mol
DOCKED: USER    (2) Final Total Internal Energy     =  -3.58 kcal/mol
DOCKED: USER    (3) Torsional Free Energy           =  +2.68 kcal/mol
DOCKED: USER    (4) Unbound System's Energy         =  -3.58 kcal/mol
DOCKED: USER
DOCKED: USER
DOCKED: REMARK SMILES CCC(=O)N(c1ccccc1)C1CC[N+](=C(O)[C@@H]([NH3+])C2Cc3ccccc3C2)CC1
DOCKED: REMARK SMILES IDX 12 1 13 2 14 3 15 4 29 5 30 6 5 7 3 8 4 9 2 10 1 11 6 12
DOCKED: REMARK SMILES IDX 7 13 11 14 8 15 10 16 9 17 16 18 17 19 18 21 19 22 20 26
DOCKED: REMARK SMILES IDX 21 27 28 28 22 29 27 30 23 31 26 32 24 33 25 34
DOCKED: REMARK H PARENT 17 20 19 23 19 24 19 25
DOCKED: USER                              x       y       z     vdW  Elec       q    Type
DOCKED: USER                           _______ _______ _______ _____ _____    ______ ____
DOCKED: ROOT
DOCKED: ATOM      1  C   UNL     1     138.480  79.118 220.964 -0.09 -0.02    +0.103 C  
DOCKED: ATOM      2  C   UNL     1     137.750  78.576 219.721 -0.02 -0.02    +0.098 C  
DOCKED: ATOM      3  C   UNL     1     138.651  78.748 218.485 +0.00 -0.09    +0.356 C  
DOCKED: ATOM      4  N   UNL     1     139.364  80.048 218.489 -0.02 +0.06    -0.197 N  
DOCKED: ATOM      5  C   UNL     1     138.803  81.102 219.363 -0.01 -0.09    +0.356 C  
DOCKED: ATOM      6  C   UNL     1     138.762  80.641 220.832 -0.09 -0.02    +0.098 C  
DOCKED: ENDROOT
DOCKED: BRANCH   1   7
DOCKED: ATOM      7  N   UNL     1     137.766  78.751 222.210 -0.08 +0.05    -0.309 N  
DOCKED: BRANCH   7   8
DOCKED: ATOM      8  C   UNL     1     137.302  77.398 222.429 -0.16 -0.04    +0.226 C  
DOCKED: ATOM      9  O   UNL     1     136.065  77.149 222.350 -0.09 +0.05    -0.275 OA 
DOCKED: BRANCH   8  10
DOCKED: ATOM     10  C   UNL     1     138.268  76.273 222.721 -0.25 -0.02    +0.097 C  
DOCKED: ATOM     11  C   UNL     1     139.108  75.879 221.506 -0.25 -0.00    +0.014 C  
DOCKED: ENDBRANCH   8  10
DOCKED: ENDBRANCH   7   8
DOCKED: BRANCH   7  12
DOCKED: ATOM     12  C   UNL     1     137.405  79.738 223.194 -0.23 -0.01    +0.044 A  
DOCKED: ATOM     13  C   UNL     1     138.400  80.287 224.018 -0.38 -0.00    +0.026 A  
DOCKED: ATOM     14  C   UNL     1     136.071  80.148 223.354 -0.16 -0.00    +0.026 A  
DOCKED: ATOM     15  C   UNL     1     138.069  81.249 224.977 -0.35 -0.00    +0.002 A  
DOCKED: ATOM     16  C   UNL     1     135.743  81.110 224.316 -0.20 -0.00    +0.002 A  
DOCKED: ATOM     17  C   UNL     1     136.742  81.663 225.124 -0.35 -0.00    +0.000 A  
DOCKED: ENDBRANCH   7  12
DOCKED: ENDBRANCH   1   7
DOCKED: BRANCH   4  18
DOCKED: ATOM     18  C   UNL     1     140.408  80.271 217.707 -0.02 -0.17    +0.394 C  
DOCKED: BRANCH  18  19
DOCKED: ATOM     19  O   UNL     1     140.459  81.381 216.855 -0.00 +0.20    -0.459 OA 
DOCKED: ATOM     20  H   UNL     1     139.750  81.595 216.168 +0.03 -0.11    +0.299 HD 
DOCKED: ENDBRANCH  18  19
DOCKED: BRANCH  18  21
DOCKED: ATOM     21  C   UNL     1     141.622  79.346 217.650 -0.12 -0.22    +0.322 C  
DOCKED: BRANCH  21  22
DOCKED: ATOM     22  N   UNL     1     142.559  79.852 216.635 +0.09 +0.46    -0.343 N  
DOCKED: ATOM     23  H   UNL     1     142.045  80.463 215.958 +0.01 -0.35    +0.345 HD 
DOCKED: ATOM     24  H   UNL     1     142.977  79.061 216.096 -0.36 -0.60    +0.345 HD 
DOCKED: ATOM     25  H   UNL     1     143.325  80.405 217.081 -0.43 -0.67    +0.345 HD 
DOCKED: ENDBRANCH  21  22
DOCKED: BRANCH  21  26
DOCKED: ATOM     26  C   UNL     1     142.309  79.269 219.043 -0.13 -0.05    +0.071 C  
DOCKED: ATOM     27  C   UNL     1     141.732  78.152 219.949 -0.27 -0.03    +0.046 C  
DOCKED: ATOM     28  C   UNL     1     142.189  80.585 219.855 -0.18 -0.02    +0.046 C  
DOCKED: ATOM     29  C   UNL     1     141.720  78.769 221.296 -0.35 +0.02    -0.044 A  
DOCKED: ATOM     30  C   UNL     1     141.971  80.118 221.243 -0.37 +0.02    -0.044 A  
DOCKED: ATOM     31  C   UNL     1     141.455  78.131 222.510 -0.44 -0.00    +0.004 A  
DOCKED: ATOM     32  C   UNL     1     141.962  80.901 222.400 -0.53 -0.00    +0.004 A  
DOCKED: ATOM     33  C   UNL     1     141.455  78.897 223.688 -0.60 -0.00    +0.000 A  
DOCKED: ATOM     34  C   UNL     1     141.706  80.280 223.633 -0.59 -0.00    +0.000 A  
DOCKED: ENDBRANCH  21  26
DOCKED: ENDBRANCH  18  21
DOCKED: ENDBRANCH   4  18
DOCKED: TORSDOF 9
DOCKED: TER
DOCKED: ENDMDL
________________________________________________________________________________


    FINAL DOCKED STATE:
    ________________________


Run:   17 / 20
Time taken for this run:   0.062s

DOCKED: MODEL        17
DOCKED: USER    Run = 17
DOCKED: USER
DOCKED: USER    Estimated Free Energy of Binding    =  -6.72 kcal/mol  [=(1)+(2)+(3)-(4)]
DOCKED: USER
DOCKED: USER    (1) Final Intermolecular Energy     =  -9.40 kcal/mol
DOCKED: USER        vdW + Hbond + desolv Energy     =  -7.32 kcal/mol
DOCKED: USER        Electrostatic Energy            =  -2.08 kcal/mol
DOCKED: USER        Moving Ligand-Fixed Receptor    =  -9.40 kcal/mol
DOCKED: USER        Moving Ligand-Moving Receptor   =  +0.00 kcal/mol
DOCKED: USER    (2) Final Total Internal Energy     =  -3.05 kcal/mol
DOCKED: USER    (3) Torsional Free Energy           =  +2.68 kcal/mol
DOCKED: USER    (4) Unbound System's Energy         =  -3.05 kcal/mol
DOCKED: USER
DOCKED: USER
DOCKED: REMARK SMILES CCC(=O)N(c1ccccc1)C1CC[N+](=C(O)[C@@H]([NH3+])C2Cc3ccccc3C2)CC1
DOCKED: REMARK SMILES IDX 12 1 13 2 14 3 15 4 29 5 30 6 5 7 3 8 4 9 2 10 1 11 6 12
DOCKED: REMARK SMILES IDX 7 13 11 14 8 15 10 16 9 17 16 18 17 19 18 21 19 22 20 26
DOCKED: REMARK SMILES IDX 21 27 28 28 22 29 27 30 23 31 26 32 24 33 25 34
DOCKED: REMARK H PARENT 17 20 19 23 19 24 19 25
DOCKED: USER                              x       y       z     vdW  Elec       q    Type
DOCKED: USER                           _______ _______ _______ _____ _____    ______ ____
DOCKED: ROOT
DOCKED: ATOM      1  C   UNL     1     140.785  79.021 220.770 -0.22 -0.04    +0.103 C  
DOCKED: ATOM      2  C   UNL     1     139.561  79.509 219.974 -0.08 -0.03    +0.098 C  
DOCKED: ATOM      3  C   UNL     1     139.974  79.776 218.516 -0.02 -0.13    +0.356 C  
DOCKED: ATOM      4  N   UNL     1     141.301  80.431 218.422 -0.12 +0.10    -0.197 N  
DOCKED: ATOM      5  C   UNL     1     141.790  81.102 219.647 -0.11 -0.15    +0.356 C  
DOCKED: ATOM      6  C   UNL     1     141.894  80.109 220.820 -0.29 -0.05    +0.098 C  
DOCKED: ENDROOT
DOCKED: BRANCH   1   7
DOCKED: ATOM      7  N   UNL     1     140.390  78.514 222.106 -0.14 +0.09    -0.309 N  
DOCKED: BRANCH   7   8
DOCKED: ATOM      8  C   UNL     1     141.153  78.858 223.287 -0.39 -0.06    +0.226 C  
DOCKED: ATOM      9  O   UNL     1     141.831  77.962 223.867 -0.42 +0.10    -0.275 OA 
DOCKED: BRANCH   8  10
DOCKED: ATOM     10  C   UNL     1     141.178  80.271 223.822 -0.43 -0.02    +0.097 C  
DOCKED: ATOM     11  C   UNL     1     142.590  80.852 223.902 -0.66 -0.00    +0.014 C  
DOCKED: ENDBRANCH   8  10
DOCKED: ENDBRANCH   7   8
DOCKED: BRANCH   7  12
DOCKED: ATOM     12  C   UNL     1     139.310  77.576 222.271 -0.30 -0.01    +0.044 A  
DOCKED: ATOM     13  C   UNL     1     139.561  76.202 222.122 -0.33 -0.01    +0.026 A  
DOCKED: ATOM     14  C   UNL     1     138.007  78.013 222.562 -0.24 -0.00    +0.026 A  
DOCKED: ATOM     15  C   UNL     1     138.525  75.276 222.282 -0.23 -0.00    +0.002 A  
DOCKED: ATOM     16  C   UNL     1     136.974  77.083 222.719 -0.24 -0.00    +0.002 A  
DOCKED: ATOM     17  C   UNL     1     137.234  75.716 222.584 -0.25 -0.00    +0.000 A  
DOCKED: ENDBRANCH   7  12
DOCKED: ENDBRANCH   1   7
DOCKED: BRANCH   4  18
DOCKED: ATOM     18  C   UNL     1     141.981  80.466 217.288 -0.12 -0.33    +0.394 C  
DOCKED: BRANCH  18  19
DOCKED: ATOM     19  O   UNL     1     142.946  81.452 217.044 -0.14 +0.53    -0.459 OA 
DOCKED: ATOM     20  H   UNL     1     143.920  81.252 216.869 -0.29 -0.66    +0.299 HD 
DOCKED: ENDBRANCH  18  19
DOCKED: BRANCH  18  21
DOCKED: ATOM     21  C   UNL     1     141.767  79.465 216.154 -0.08 -0.28    +0.322 C  
DOCKED: BRANCH  21  22
DOCKED: ATOM     22  N   UNL     1     142.575  79.877 214.996 +0.07 +0.46    -0.343 N  
DOCKED: ATOM     23  H   UNL     1     143.094  80.757 215.226 -0.43 -0.63    +0.345 HD 
DOCKED: ATOM     24  H   UNL     1     141.961  80.076 214.174 +0.04 -0.27    +0.345 HD 
DOCKED: ATOM     25  H   UNL     1     143.261  79.133 214.738 -0.21 -0.61    +0.345 HD 
DOCKED: ENDBRANCH  21  22
DOCKED: BRANCH  21  26
DOCKED: ATOM     26  C   UNL     1     142.161  78.033 216.617 -0.18 -0.06    +0.071 C  
DOCKED: ATOM     27  C   UNL     1     140.938  77.122 216.895 -0.06 -0.02    +0.046 C  
DOCKED: ATOM     28  C   UNL     1     143.006  78.023 217.917 -0.20 -0.04    +0.046 C  
DOCKED: ATOM     29  C   UNL     1     141.346  76.349 218.091 -0.09 +0.02    -0.044 A  
DOCKED: ATOM     30  C   UNL     1     142.491  76.851 218.659 -0.28 +0.03    -0.044 A  
DOCKED: ATOM     31  C   UNL     1     140.678  75.259 218.655 -0.06 -0.00    +0.004 A  
DOCKED: ATOM     32  C   UNL     1     143.024  76.294 219.824 -0.35 -0.00    +0.004 A  
DOCKED: ATOM     33  C   UNL     1     141.204  74.675 219.819 -0.16 -0.00    +0.000 A  
DOCKED: ATOM     34  C   UNL     1     142.374  75.193 220.404 -0.31 -0.00    +0.000 A  
DOCKED: ENDBRANCH  21  26
DOCKED: ENDBRANCH  18  21
DOCKED: ENDBRANCH   4  18
DOCKED: TORSDOF 9
DOCKED: TER
DOCKED: ENDMDL
________________________________________________________________________________


    FINAL DOCKED STATE:
    ________________________


Run:   18 / 20
Time taken for this run:   0.062s

DOCKED: MODEL        18
DOCKED: USER    Run = 18
DOCKED: USER
DOCKED: USER    Estimated Free Energy of Binding    =  -6.75 kcal/mol  [=(1)+(2)+(3)-(4)]
DOCKED: USER
DOCKED: USER    (1) Final Intermolecular Energy     =  -9.44 kcal/mol
DOCKED: USER        vdW + Hbond + desolv Energy     =  -7.35 kcal/mol
DOCKED: USER        Electrostatic Energy            =  -2.09 kcal/mol
DOCKED: USER        Moving Ligand-Fixed Receptor    =  -9.44 kcal/mol
DOCKED: USER        Moving Ligand-Moving Receptor   =  +0.00 kcal/mol
DOCKED: USER    (2) Final Total Internal Energy     =  -3.03 kcal/mol
DOCKED: USER    (3) Torsional Free Energy           =  +2.68 kcal/mol
DOCKED: USER    (4) Unbound System's Energy         =  -3.03 kcal/mol
DOCKED: USER
DOCKED: USER
DOCKED: REMARK SMILES CCC(=O)N(c1ccccc1)C1CC[N+](=C(O)[C@@H]([NH3+])C2Cc3ccccc3C2)CC1
DOCKED: REMARK SMILES IDX 12 1 13 2 14 3 15 4 29 5 30 6 5 7 3 8 4 9 2 10 1 11 6 12
DOCKED: REMARK SMILES IDX 7 13 11 14 8 15 10 16 9 17 16 18 17 19 18 21 19 22 20 26
DOCKED: REMARK SMILES IDX 21 27 28 28 22 29 27 30 23 31 26 32 24 33 25 34
DOCKED: REMARK H PARENT 17 20 19 23 19 24 19 25
DOCKED: USER                              x       y       z     vdW  Elec       q    Type
DOCKED: USER                           _______ _______ _______ _____ _____    ______ ____
DOCKED: ROOT
DOCKED: ATOM      1  C   UNL     1     140.801  79.047 220.799 -0.22 -0.04    +0.103 C  
DOCKED: ATOM      2  C   UNL     1     139.571  79.511 219.999 -0.08 -0.03    +0.098 C  
DOCKED: ATOM      3  C   UNL     1     139.982  79.771 218.538 -0.02 -0.13    +0.356 C  
DOCKED: ATOM      4  N   UNL     1     141.299  80.442 218.439 -0.12 +0.10    -0.197 N  
DOCKED: ATOM      5  C   UNL     1     141.780  81.130 219.658 -0.11 -0.15    +0.356 C  
DOCKED: ATOM      6  C   UNL     1     141.897  80.149 220.839 -0.30 -0.04    +0.098 C  
DOCKED: ENDROOT
DOCKED: BRANCH   1   7
DOCKED: ATOM      7  N   UNL     1     140.412  78.546 222.139 -0.14 +0.09    -0.309 N  
DOCKED: BRANCH   7   8
DOCKED: ATOM      8  C   UNL     1     141.179  78.899 223.315 -0.39 -0.06    +0.226 C  
DOCKED: ATOM      9  O   UNL     1     141.858  78.008 223.900 -0.42 +0.10    -0.275 OA 
DOCKED: BRANCH   8  10
DOCKED: ATOM     10  C   UNL     1     141.206  80.316 223.839 -0.43 -0.02    +0.097 C  
DOCKED: ATOM     11  C   UNL     1     142.619  80.894 223.920 -0.65 -0.00    +0.014 C  
DOCKED: ENDBRANCH   8  10
DOCKED: ENDBRANCH   7   8
DOCKED: BRANCH   7  12
DOCKED: ATOM     12  C   UNL     1     139.336  77.606 222.314 -0.30 -0.01    +0.044 A  
DOCKED: ATOM     13  C   UNL     1     139.590  76.233 222.172 -0.34 -0.01    +0.026 A  
DOCKED: ATOM     14  C   UNL     1     138.033  78.042 222.607 -0.24 -0.00    +0.026 A  
DOCKED: ATOM     15  C   UNL     1     138.557  75.305 222.341 -0.24 -0.00    +0.002 A  
DOCKED: ATOM     16  C   UNL     1     137.002  77.110 222.774 -0.23 -0.00    +0.002 A  
DOCKED: ATOM     17  C   UNL     1     137.266  75.743 222.645 -0.25 -0.00    +0.000 A  
DOCKED: ENDBRANCH   7  12
DOCKED: ENDBRANCH   1   7
DOCKED: BRANCH   4  18
DOCKED: ATOM     18  C   UNL     1     141.979  80.476 217.304 -0.12 -0.33    +0.394 C  
DOCKED: BRANCH  18  19
DOCKED: ATOM     19  O   UNL     1     142.949  81.457 217.061 -0.14 +0.52    -0.459 OA 
DOCKED: ATOM     20  H   UNL     1     143.921  81.253 216.881 -0.29 -0.66    +0.299 HD 
DOCKED: ENDBRANCH  18  19
DOCKED: BRANCH  18  21
DOCKED: ATOM     21  C   UNL     1     141.761  79.477 216.168 -0.08 -0.28    +0.322 C  
DOCKED: BRANCH  21  22
DOCKED: ATOM     22  N   UNL     1     142.569  79.888 215.011 +0.07 +0.46    -0.343 N  
DOCKED: ATOM     23  H   UNL     1     143.273  79.144 214.793 -0.23 -0.63    +0.345 HD 
DOCKED: ATOM     24  H   UNL     1     143.092  80.768 215.223 -0.43 -0.63    +0.345 HD 
DOCKED: ATOM     25  H   UNL     1     141.965  80.042 214.172 +0.04 -0.28    +0.345 HD 
DOCKED: ENDBRANCH  21  22
DOCKED: BRANCH  21  26
DOCKED: ATOM     26  C   UNL     1     142.147  78.043 216.629 -0.17 -0.05    +0.071 C  
DOCKED: ATOM     27  C   UNL     1     140.919  77.143 216.920 -0.06 -0.02    +0.046 C  
DOCKED: ATOM     28  C   UNL     1     143.006  78.028 217.920 -0.20 -0.04    +0.046 C  
DOCKED: ATOM     29  C   UNL     1     141.334  76.367 218.114 -0.09 +0.02    -0.044 A  
DOCKED: ATOM     30  C   UNL     1     142.489  76.860 218.669 -0.28 +0.03    -0.044 A  
DOCKED: ATOM     31  C   UNL     1     140.663  75.283 218.685 -0.06 -0.00    +0.004 A  
DOCKED: ATOM     32  C   UNL     1     143.029  76.301 219.829 -0.35 -0.00    +0.004 A  
DOCKED: ATOM     33  C   UNL     1     141.196  74.697 219.845 -0.16 -0.00    +0.000 A  
DOCKED: ATOM     34  C   UNL     1     142.376  75.206 220.417 -0.31 -0.00    +0.000 A  
DOCKED: ENDBRANCH  21  26
DOCKED: ENDBRANCH  18  21
DOCKED: ENDBRANCH   4  18
DOCKED: TORSDOF 9
DOCKED: TER
DOCKED: ENDMDL
________________________________________________________________________________


    FINAL DOCKED STATE:
    ________________________


Run:   19 / 20
Time taken for this run:   0.062s

DOCKED: MODEL        19
DOCKED: USER    Run = 19
DOCKED: USER
DOCKED: USER    Estimated Free Energy of Binding    =  -7.68 kcal/mol  [=(1)+(2)+(3)-(4)]
DOCKED: USER
DOCKED: USER    (1) Final Intermolecular Energy     = -10.37 kcal/mol
DOCKED: USER        vdW + Hbond + desolv Energy     =  -8.70 kcal/mol
DOCKED: USER        Electrostatic Energy            =  -1.66 kcal/mol
DOCKED: USER        Moving Ligand-Fixed Receptor    = -10.37 kcal/mol
DOCKED: USER        Moving Ligand-Moving Receptor   =  +0.00 kcal/mol
DOCKED: USER    (2) Final Total Internal Energy     =  -2.20 kcal/mol
DOCKED: USER    (3) Torsional Free Energy           =  +2.68 kcal/mol
DOCKED: USER    (4) Unbound System's Energy         =  -2.20 kcal/mol
DOCKED: USER
DOCKED: USER
DOCKED: REMARK SMILES CCC(=O)N(c1ccccc1)C1CC[N+](=C(O)[C@@H]([NH3+])C2Cc3ccccc3C2)CC1
DOCKED: REMARK SMILES IDX 12 1 13 2 14 3 15 4 29 5 30 6 5 7 3 8 4 9 2 10 1 11 6 12
DOCKED: REMARK SMILES IDX 7 13 11 14 8 15 10 16 9 17 16 18 17 19 18 21 19 22 20 26
DOCKED: REMARK SMILES IDX 21 27 28 28 22 29 27 30 23 31 26 32 24 33 25 34
DOCKED: REMARK H PARENT 17 20 19 23 19 24 19 25
DOCKED: USER                              x       y       z     vdW  Elec       q    Type
DOCKED: USER                           _______ _______ _______ _____ _____    ______ ____
DOCKED: ROOT
DOCKED: ATOM      1  C   UNL     1     142.487  75.635 219.257 -0.24 -0.05    +0.103 C  
DOCKED: ATOM      2  C   UNL     1     143.303  75.473 217.962 -0.19 -0.05    +0.098 C  
DOCKED: ATOM      3  C   UNL     1     143.342  76.817 217.212 -0.11 -0.25    +0.356 C  
DOCKED: ATOM      4  N   UNL     1     142.035  77.516 217.251 -0.12 +0.12    -0.197 N  
DOCKED: ATOM      5  C   UNL     1     140.854  76.685 217.573 -0.01 -0.14    +0.356 C  
DOCKED: ATOM      6  C   UNL     1     141.010  76.010 218.949 -0.09 -0.03    +0.098 C  
DOCKED: ENDROOT
DOCKED: BRANCH   1   7
DOCKED: ATOM      7  N   UNL     1     142.628  74.448 220.133 -0.14 +0.10    -0.309 N  
DOCKED: BRANCH   7   8
DOCKED: ATOM      8  C   UNL     1     141.567  74.061 221.038 -0.17 -0.04    +0.226 C  
DOCKED: ATOM      9  O   UNL     1     141.134  74.902 221.877 -0.54 +0.04    -0.275 OA 
DOCKED: BRANCH   8  10
DOCKED: ATOM     10  C   UNL     1     140.947  72.685 220.980 -0.20 -0.01    +0.097 C  
DOCKED: ATOM     11  C   UNL     1     140.657  72.104 222.364 -0.31 -0.00    +0.014 C  
DOCKED: ENDBRANCH   8  10
DOCKED: ENDBRANCH   7   8
DOCKED: BRANCH   7  12
DOCKED: ATOM     12  C   UNL     1     143.858  73.702 220.205 -0.36 -0.01    +0.044 A  
DOCKED: ATOM     13  C   UNL     1     144.978  74.277 220.827 -0.46 -0.01    +0.026 A  
DOCKED: ATOM     14  C   UNL     1     143.960  72.416 219.649 -0.25 -0.00    +0.026 A  
DOCKED: ATOM     15  C   UNL     1     146.180  73.567 220.910 -0.71 -0.00    +0.002 A  
DOCKED: ATOM     16  C   UNL     1     145.165  71.709 219.733 -0.33 +0.00    +0.002 A  
DOCKED: ATOM     17  C   UNL     1     146.272  72.283 220.366 -0.29 +0.00    +0.000 A  
DOCKED: ENDBRANCH   7  12
DOCKED: ENDBRANCH   1   7
DOCKED: BRANCH   4  18
DOCKED: ATOM     18  C   UNL     1     141.925  78.801 216.952 -0.10 -0.32    +0.394 C  
DOCKED: BRANCH  18  19
DOCKED: ATOM     19  O   UNL     1     141.321  79.225 215.762 -0.03 +0.31    -0.459 OA 
DOCKED: ATOM     20  H   UNL     1     141.778  79.202 214.861 +0.03 -0.24    +0.299 HD 
DOCKED: ENDBRANCH  18  19
DOCKED: BRANCH  18  21
DOCKED: ATOM     21  C   UNL     1     142.452  79.917 217.852 -0.18 -0.30    +0.322 C  
DOCKED: BRANCH  21  22
DOCKED: ATOM     22  N   UNL     1     142.439  81.181 217.101 -0.13 +0.33    -0.343 N  
DOCKED: ATOM     23  H   UNL     1     143.298  81.243 216.505 -0.35 -0.60    +0.345 HD 
DOCKED: ATOM     24  H   UNL     1     142.446  81.995 217.755 +0.13 -0.23    +0.345 HD 
DOCKED: ATOM     25  H   UNL     1     141.594  81.240 216.489 +0.07 -0.24    +0.345 HD 
DOCKED: ENDBRANCH  21  22
DOCKED: BRANCH  21  26
DOCKED: ATOM     26  C   UNL     1     141.582  80.031 219.136 -0.24 -0.04    +0.071 C  
DOCKED: ATOM     27  C   UNL     1     141.831  81.338 219.930 -0.19 -0.02    +0.046 C  
DOCKED: ATOM     28  C   UNL     1     141.817  78.870 220.138 -0.26 -0.03    +0.046 C  
DOCKED: ATOM     29  C   UNL     1     141.769  80.902 221.346 -0.38 +0.01    -0.044 A  
DOCKED: ATOM     30  C   UNL     1     141.764  79.534 221.460 -0.39 +0.02    -0.044 A  
DOCKED: ATOM     31  C   UNL     1     141.755  81.722 222.477 -0.45 -0.00    +0.004 A  
DOCKED: ATOM     32  C   UNL     1     141.753  78.913 222.711 -0.53 -0.00    +0.004 A  
DOCKED: ATOM     33  C   UNL     1     141.730  81.118 223.745 -0.59 -0.00    +0.000 A  
DOCKED: ATOM     34  C   UNL     1     141.731  79.717 223.862 -0.60 -0.00    +0.000 A  
DOCKED: ENDBRANCH  21  26
DOCKED: ENDBRANCH  18  21
DOCKED: ENDBRANCH   4  18
DOCKED: TORSDOF 9
DOCKED: TER
DOCKED: ENDMDL
________________________________________________________________________________


    FINAL DOCKED STATE:
    ________________________


Run:   20 / 20
Time taken for this run:   0.062s

DOCKED: MODEL        20
DOCKED: USER    Run = 20
DOCKED: USER
DOCKED: USER    Estimated Free Energy of Binding    =  -5.96 kcal/mol  [=(1)+(2)+(3)-(4)]
DOCKED: USER
DOCKED: USER    (1) Final Intermolecular Energy     =  -8.65 kcal/mol
DOCKED: USER        vdW + Hbond + desolv Energy     =  -6.96 kcal/mol
DOCKED: USER        Electrostatic Energy            =  -1.69 kcal/mol
DOCKED: USER        Moving Ligand-Fixed Receptor    =  -8.65 kcal/mol
DOCKED: USER        Moving Ligand-Moving Receptor   =  +0.00 kcal/mol
DOCKED: USER    (2) Final Total Internal Energy     =  -3.58 kcal/mol
DOCKED: USER    (3) Torsional Free Energy           =  +2.68 kcal/mol
DOCKED: USER    (4) Unbound System's Energy         =  -3.58 kcal/mol
DOCKED: USER
DOCKED: USER
DOCKED: REMARK SMILES CCC(=O)N(c1ccccc1)C1CC[N+](=C(O)[C@@H]([NH3+])C2Cc3ccccc3C2)CC1
DOCKED: REMARK SMILES IDX 12 1 13 2 14 3 15 4 29 5 30 6 5 7 3 8 4 9 2 10 1 11 6 12
DOCKED: REMARK SMILES IDX 7 13 11 14 8 15 10 16 9 17 16 18 17 19 18 21 19 22 20 26
DOCKED: REMARK SMILES IDX 21 27 28 28 22 29 27 30 23 31 26 32 24 33 25 34
DOCKED: REMARK H PARENT 17 20 19 23 19 24 19 25
DOCKED: USER                              x       y       z     vdW  Elec       q    Type
DOCKED: USER                           _______ _______ _______ _____ _____    ______ ____
DOCKED: ROOT
DOCKED: ATOM      1  C   UNL     1     138.478  79.082 220.958 -0.09 -0.02    +0.103 C  
DOCKED: ATOM      2  C   UNL     1     137.802  78.456 219.725 -0.02 -0.02    +0.098 C  
DOCKED: ATOM      3  C   UNL     1     138.714  78.633 218.499 +0.00 -0.09    +0.356 C  
DOCKED: ATOM      4  N   UNL     1     139.354  79.970 218.466 -0.02 +0.06    -0.197 N  
DOCKED: ATOM      5  C   UNL     1     138.720  81.022 219.292 -0.01 -0.08    +0.356 C  
DOCKED: ATOM      6  C   UNL     1     138.678  80.613 220.775 -0.08 -0.02    +0.098 C  
DOCKED: ENDROOT
DOCKED: BRANCH   1   7
DOCKED: ATOM      7  N   UNL     1     137.762  78.721 222.205 -0.08 +0.05    -0.309 N  
DOCKED: BRANCH   7   8
DOCKED: ATOM      8  C   UNL     1     137.270  77.376 222.416 -0.16 -0.04    +0.226 C  
DOCKED: ATOM      9  O   UNL     1     136.030  77.150 222.316 -0.08 +0.05    -0.275 OA 
DOCKED: BRANCH   8  10
DOCKED: ATOM     10  C   UNL     1     138.210  76.234 222.724 -0.24 -0.02    +0.097 C  
DOCKED: ATOM     11  C   UNL     1     139.078  75.838 221.530 -0.26 -0.00    +0.014 C  
DOCKED: ENDBRANCH   8  10
DOCKED: ENDBRANCH   7   8
DOCKED: BRANCH   7  12
DOCKED: ATOM     12  C   UNL     1     137.428  79.707 223.199 -0.23 -0.01    +0.044 A  
DOCKED: ATOM     13  C   UNL     1     136.094  80.121 223.339 -0.16 -0.00    +0.026 A  
DOCKED: ATOM     14  C   UNL     1     138.417  80.273 224.020 -0.38 -0.00    +0.026 A  
DOCKED: ATOM     15  C   UNL     1     135.750  81.075 224.302 -0.20 -0.00    +0.002 A  
DOCKED: ATOM     16  C   UNL     1     138.069  81.229 224.981 -0.35 -0.00    +0.002 A  
DOCKED: ATOM     17  C   UNL     1     136.736  81.626 225.124 -0.35 -0.00    +0.000 A  
DOCKED: ENDBRANCH   7  12
DOCKED: ENDBRANCH   1   7
DOCKED: BRANCH   4  18
DOCKED: ATOM     18  C   UNL     1     140.399  80.222 217.694 -0.02 -0.17    +0.394 C  
DOCKED: BRANCH  18  19
DOCKED: ATOM     19  O   UNL     1     140.432  81.343 216.853 -0.00 +0.20    -0.459 OA 
DOCKED: ATOM     20  H   UNL     1     139.696  81.579 216.204 +0.03 -0.10    +0.299 HD 
DOCKED: ENDBRANCH  18  19
DOCKED: BRANCH  18  21
DOCKED: ATOM     21  C   UNL     1     141.633  79.324 217.635 -0.12 -0.22    +0.322 C  
DOCKED: BRANCH  21  22
DOCKED: ATOM     22  N   UNL     1     142.564  79.858 216.630 +0.10 +0.46    -0.343 N  
DOCKED: ATOM     23  H   UNL     1     142.973  79.068 216.078 -0.36 -0.60    +0.345 HD 
DOCKED: ATOM     24  H   UNL     1     143.352  80.364 217.093 -0.43 -0.68    +0.345 HD 
DOCKED: ATOM     25  H   UNL     1     142.072  80.511 215.979 +0.01 -0.35    +0.345 HD 
DOCKED: ENDBRANCH  21  22
DOCKED: BRANCH  21  26
DOCKED: ATOM     26  C   UNL     1     142.314  79.250 219.032 -0.13 -0.05    +0.071 C  
DOCKED: ATOM     27  C   UNL     1     141.735  78.133 219.937 -0.27 -0.03    +0.046 C  
DOCKED: ATOM     28  C   UNL     1     142.187  80.566 219.842 -0.18 -0.02    +0.046 C  
DOCKED: ATOM     29  C   UNL     1     141.716  78.752 221.283 -0.35 +0.02    -0.044 A  
DOCKED: ATOM     30  C   UNL     1     141.964  80.101 221.230 -0.37 +0.02    -0.044 A  
DOCKED: ATOM     31  C   UNL     1     141.447  78.114 222.497 -0.44 -0.00    +0.004 A  
DOCKED: ATOM     32  C   UNL     1     141.948  80.885 222.386 -0.53 -0.00    +0.004 A  
DOCKED: ATOM     33  C   UNL     1     141.440  78.881 223.673 -0.60 -0.00    +0.000 A  
DOCKED: ATOM     34  C   UNL     1     141.688  80.264 223.618 -0.59 -0.00    +0.000 A  
DOCKED: ENDBRANCH  21  26
DOCKED: ENDBRANCH  18  21
DOCKED: ENDBRANCH   4  18
DOCKED: TORSDOF 9
DOCKED: TER
DOCKED: ENDMDL
________________________________________________________________________________


    CLUSTERING HISTOGRAM
    ____________________


________________________________________________________________________________
     |           |     |           |     |
Clus | Lowest    | Run | Mean      | Num | Histogram
-ter | Binding   |     | Binding   | in  |
Rank | Energy    |     | Energy    | Clus|    5    10   15   20   25   30   35
_____|___________|_____|___________|_____|____:____|____:____|____:____|____:___
   1 |     -8.05 |   9 |     -8.05 |   1 |#
   2 |     -8.04 |   1 |     -8.02 |   2 |##
   3 |     -7.68 |  19 |     -7.67 |   3 |###
   4 |     -6.75 |  18 |     -6.69 |  11 |###########
   5 |     -5.96 |  20 |     -5.96 |   3 |###
_____|___________|_____|___________|_____|______________________________________


    RMSD TABLE
    __________


_______________________________________________________________________
     |      |      |           |         |                 |
Rank | Sub- | Run  | Binding   | Cluster | Reference       | Grep
     | Rank |      | Energy    | RMSD    | RMSD            | Pattern
_____|______|______|___________|_________|_________________|___________
   1      1      9       -8.05      0.00    269.27           RANKING
   2      1      1       -8.04      0.00    268.51           RANKING
   2      2      7       -8.00      0.16    268.47           RANKING
   3      1     19       -7.68      0.00    268.70           RANKING
   3      2      5       -7.68      0.09    268.70           RANKING
   3      3     13       -7.66      0.07    268.71           RANKING
   4      1     18       -6.75      0.00    268.37           RANKING
   4      2      6       -6.74      0.03    268.37           RANKING
   4      3     14       -6.73      0.08    268.36           RANKING
   4      4      4       -6.73      0.04    268.36           RANKING
   4      5      8       -6.72      0.07    268.35           RANKING
   4      6      2       -6.72      0.05    268.35           RANKING
   4      7     17       -6.72      0.04    268.34           RANKING
   4      8     11       -6.70      0.11    268.37           RANKING
   4      9     15       -6.63      0.62    268.36           RANKING
   4     10     10       -6.60      0.22    268.30           RANKING
   4     11     12       -6.50      0.76    268.28           RANKING
   5      1     20       -5.96      0.00    268.84           RANKING
   5      2      3       -5.96      0.08    268.85           RANKING
   5      3     16       -5.96      0.06    268.86           RANKING

Run time 1.204 sec
Idle time 0.000 sec
