AutoDock-GPU version: v1.6

**********************************************************
**    AutoDock-GPU AUTODOCKTOOLS-COMPATIBLE DLG FILE    **
**********************************************************


    DOCKING PARAMETERS
    ________________________


Ligand file:                               /home/a/REINVENT4/ReinventStudies/scoringData/graph-dock-h4r84i/graph-DockGPU/node-autodockgpu/inputs/OOSPKVZPLIIQRF-UTVOXLHVNA-N.pdbqt
Grid fld file:                             /home/a/REINVENT4/ReinventStudies/mols/Rad51/maps/rad51_receptor.maps.fld

Random seed:                               42
Number of runs:                            20
Number of energy evaluations:              1132076
Number of generations:                     42000
Size of population:                        150
Rate of crossover:                         80.000000%
Tournament selection probability limit:    60.000000%
Rate of mutation:                          2.000000%
Maximal allowed delta movement:            +/- 6.000000A
Maximal allowed delta angle:               +/- 90.000000

Rate of local search:                      100.000000%
Maximal number of local search iterations: 300
Rho lower bound:                           0.010000
Spread of local search delta movement:     2.000000A
Spread of local search delta angle:        74.999999
Limit of consecutive successes/failures:   4

Handle symmetry during clustering:         YES
RMSD tolerance:                            2.000000A

Program call in command line was:          /home/a/REINVENT4/ReinventStudies/adgpu-v1.6_linux_x64_cuda12_128wi --filelist batch.txt --heuristics 1 --nrun 20 --psize 150 --lsit 300 --seed 42 --heurmax 12000000 


    GRID PARAMETERS
    ________________________


Receptor name:                             rad51_receptor
Number of grid points (x, y, z):           53, 53, 53
Grid center (x, y, z):                     139.950000, 75.640000, 221.970000A
Grid size (x, y, z):                       19.500000, 19.500000, 19.500000A
Grid spacing:                              0.375000A


    LIGAND PARAMETERS
    ________________________


Ligand name:                               /home/a/REINVENT4/ReinventStudies/scoringData/graph-dock-h4r84i/graph-DockGPU/node-autodockgpu/inputs/OOSPKVZPLIIQRF-UTVOXLHVNA-N
Number of atoms:                           30
Number of rotatable bonds:                 6
Number of atom types:                      6


    DUMMY DATA (only for ADT-compatibility)
    ________________________


DPF> outlev 1
DPF> ga_run 20
DPF> fld /home/a/REINVENT4/ReinventStudies/mols/Rad51/maps/rad51_receptor.maps.fld
DPF> move /home/a/REINVENT4/ReinventStudies/scoringData/graph-dock-h4r84i/graph-DockGPU/node-autodockgpu/inputs/OOSPKVZPLIIQRF-UTVOXLHVNA-N.pdbqt


    COUNTER STATES
    ________________________


Number of energy evaluations performed:    777424
Number of generations used:                35


    INPUT LIGAND PDBQT FILE:
    ________________________


INPUT-LIGAND-PDBQT: REMARK SMILES [H]/N=c1\[nH]c2nc3ccccn3c(=O)c2cc1/C(O)=N/[C@@H](C)c1ccccc1
INPUT-LIGAND-PDBQT: REMARK SMILES IDX 18 1 17 2 3 3 4 4 16 5 5 6 15 7 6 8 13 9 7 10 12 11 8 12
INPUT-LIGAND-PDBQT: REMARK SMILES IDX 11 13 9 14 10 15 14 17 2 18 1 19 20 20 21 21 22 22 23 23
INPUT-LIGAND-PDBQT: REMARK SMILES IDX 24 24 28 25 25 26 27 27 26 28 19 29
INPUT-LIGAND-PDBQT: REMARK H PARENT 4 16 19 30
INPUT-LIGAND-PDBQT: ROOT
INPUT-LIGAND-PDBQT: ATOM      1  C   UNL     1      -0.352   0.655  -1.980  1.00  0.00     0.218 C 
INPUT-LIGAND-PDBQT: ENDROOT
INPUT-LIGAND-PDBQT: BRANCH   1   2
INPUT-LIGAND-PDBQT: ATOM      2  C   UNL     1       0.486   0.849  -0.763  1.00  0.00     0.079 A 
INPUT-LIGAND-PDBQT: ATOM      3  C   UNL     1       1.828   1.299  -0.834  1.00  0.00     0.136 A 
INPUT-LIGAND-PDBQT: ATOM      4  N   UNL     1       2.560   1.444   0.311  1.00  0.00    -0.324 N 
INPUT-LIGAND-PDBQT: ATOM      5  C   UNL     1      -0.057   0.573   0.505  1.00  0.00     0.035 A 
INPUT-LIGAND-PDBQT: ATOM      6  C   UNL     1       2.040   1.175   1.539  1.00  0.00     0.146 A 
INPUT-LIGAND-PDBQT: ATOM      7  C   UNL     1       0.716   0.734   1.664  1.00  0.00     0.084 A 
INPUT-LIGAND-PDBQT: ATOM      8  N   UNL     1       2.803   1.335   2.647  1.00  0.00    -0.212 NA
INPUT-LIGAND-PDBQT: ATOM      9  C   UNL     1       0.215   0.466   2.952  1.00  0.00     0.267 A 
INPUT-LIGAND-PDBQT: ATOM     10  C   UNL     1       2.318   1.076   3.888  1.00  0.00     0.142 A 
INPUT-LIGAND-PDBQT: ATOM     11  N   UNL     1       1.020   0.640   4.053  1.00  0.00    -0.267 N 
INPUT-LIGAND-PDBQT: ATOM     12  C   UNL     1       3.153   1.259   4.995  1.00  0.00     0.048 A 
INPUT-LIGAND-PDBQT: ATOM     13  C   UNL     1       0.544   0.383   5.316  1.00  0.00     0.096 A 
INPUT-LIGAND-PDBQT: ATOM     14  C   UNL     1       2.668   0.998   6.273  1.00  0.00     0.005 A 
INPUT-LIGAND-PDBQT: ATOM     15  C   UNL     1       1.358   0.558   6.437  1.00  0.00     0.019 A 
INPUT-LIGAND-PDBQT: ATOM     16  H   UNL     1       3.550   1.776   0.252  1.00  0.00     0.170 HD
INPUT-LIGAND-PDBQT: ATOM     17  O   UNL     1      -0.976   0.066   3.087  1.00  0.00    -0.268 OA
INPUT-LIGAND-PDBQT: BRANCH   3  18
INPUT-LIGAND-PDBQT: ATOM     18  N   UNL     1       2.365   1.592  -1.978  1.00  0.00    -0.284 NA
INPUT-LIGAND-PDBQT: ATOM     19  H   UNL     1       3.349   1.933  -2.064  1.00  0.00     0.189 HD
INPUT-LIGAND-PDBQT: ENDBRANCH   3  18
INPUT-LIGAND-PDBQT: ENDBRANCH   1   2
INPUT-LIGAND-PDBQT: BRANCH   1  20
INPUT-LIGAND-PDBQT: ATOM     20  N   UNL     1      -1.652   0.606  -1.853  1.00  0.00    -0.243 NA
INPUT-LIGAND-PDBQT: BRANCH  20  21
INPUT-LIGAND-PDBQT: ATOM     21  C   UNL     1      -2.673   0.429  -2.893  1.00  0.00     0.136 C 
INPUT-LIGAND-PDBQT: ATOM     22  C   UNL     1      -2.780   1.690  -3.765  1.00  0.00     0.038 C 
INPUT-LIGAND-PDBQT: BRANCH  21  23
INPUT-LIGAND-PDBQT: ATOM     23  C   UNL     1      -2.493  -0.890  -3.634  1.00  0.00    -0.024 A 
INPUT-LIGAND-PDBQT: ATOM     24  C   UNL     1      -2.400  -2.076  -2.882  1.00  0.00     0.006 A 
INPUT-LIGAND-PDBQT: ATOM     25  C   UNL     1      -2.455  -0.980  -5.043  1.00  0.00     0.006 A 
INPUT-LIGAND-PDBQT: ATOM     26  C   UNL     1      -2.249  -3.313  -3.515  1.00  0.00     0.000 A 
INPUT-LIGAND-PDBQT: ATOM     27  C   UNL     1      -2.303  -2.220  -5.670  1.00  0.00     0.000 A 
INPUT-LIGAND-PDBQT: ATOM     28  C   UNL     1      -2.199  -3.385  -4.908  1.00  0.00     0.000 A 
INPUT-LIGAND-PDBQT: ENDBRANCH  21  23
INPUT-LIGAND-PDBQT: ENDBRANCH  20  21
INPUT-LIGAND-PDBQT: ENDBRANCH   1  20
INPUT-LIGAND-PDBQT: BRANCH   1  29
INPUT-LIGAND-PDBQT: ATOM     29  O   UNL     1       0.272   0.514  -3.224  1.00  0.00    -0.493 OA
INPUT-LIGAND-PDBQT: ATOM     30  H   UNL     1      -0.219   0.347  -4.089  1.00  0.00     0.295 HD
INPUT-LIGAND-PDBQT: ENDBRANCH   1  29
INPUT-LIGAND-PDBQT: TORSDOF 6


    FINAL DOCKED STATE:
    ________________________


Run:   1 / 20
Time taken for this run:   0.029s

DOCKED: MODEL        1
DOCKED: USER    Run = 1
DOCKED: USER
DOCKED: USER    Estimated Free Energy of Binding    =  -6.57 kcal/mol  [=(1)+(2)+(3)-(4)]
DOCKED: USER
DOCKED: USER    (1) Final Intermolecular Energy     =  -8.35 kcal/mol
DOCKED: USER        vdW + Hbond + desolv Energy     =  -8.37 kcal/mol
DOCKED: USER        Electrostatic Energy            =  +0.01 kcal/mol
DOCKED: USER        Moving Ligand-Fixed Receptor    =  -8.35 kcal/mol
DOCKED: USER        Moving Ligand-Moving Receptor   =  +0.00 kcal/mol
DOCKED: USER    (2) Final Total Internal Energy     =  -2.25 kcal/mol
DOCKED: USER    (3) Torsional Free Energy           =  +1.79 kcal/mol
DOCKED: USER    (4) Unbound System's Energy         =  -2.25 kcal/mol
DOCKED: USER
DOCKED: USER
DOCKED: REMARK SMILES [H]/N=c1\[nH]c2nc3ccccn3c(=O)c2cc1/C(O)=N/[C@@H](C)c1ccccc1
DOCKED: REMARK SMILES IDX 18 1 17 2 3 3 4 4 16 5 5 6 15 7 6 8 13 9 7 10 12 11 8 12
DOCKED: REMARK SMILES IDX 11 13 9 14 10 15 14 17 2 18 1 19 20 20 21 21 22 22 23 23
DOCKED: REMARK SMILES IDX 24 24 28 25 25 26 27 27 26 28 19 29
DOCKED: REMARK H PARENT 4 16 19 30
DOCKED: USER                              x       y       z     vdW  Elec       q    Type
DOCKED: USER                           _______ _______ _______ _____ _____    ______ ____
DOCKED: ROOT
DOCKED: ATOM      1  C   UNL     1     137.398  78.994 222.272 -0.12 -0.03    +0.218 C  
DOCKED: ENDROOT
DOCKED: BRANCH   1   2
DOCKED: ATOM      2  C   UNL     1     138.242  77.778 222.103 -0.20 -0.01    +0.079 A  
DOCKED: ATOM      3  C   UNL     1     137.869  76.519 222.637 -0.25 -0.03    +0.136 A  
DOCKED: ATOM      4  N   UNL     1     138.688  75.438 222.470 -0.12 +0.09    -0.324 N  
DOCKED: ATOM      5  C   UNL     1     139.457  77.868 221.399 -0.19 -0.01    +0.035 A  
DOCKED: ATOM      6  C   UNL     1     139.865  75.521 221.792 -0.27 -0.03    +0.146 A  
DOCKED: ATOM      7  C   UNL     1     140.276  76.741 221.239 -0.24 -0.03    +0.084 A  
DOCKED: ATOM      8  N   UNL     1     140.643  74.422 221.650 -0.57 +0.02    -0.212 NA 
DOCKED: ATOM      9  C   UNL     1     141.500  76.787 220.546 -0.17 -0.13    +0.267 A  
DOCKED: ATOM     10  C   UNL     1     141.823  74.468 220.981 -0.22 -0.04    +0.142 A  
DOCKED: ATOM     11  N   UNL     1     142.263  75.649 220.422 -0.17 +0.13    -0.267 N  
DOCKED: ATOM     12  C   UNL     1     142.585  73.300 220.866 -0.25 -0.01    +0.048 A  
DOCKED: ATOM     13  C   UNL     1     143.460  75.679 219.747 -0.36 -0.06    +0.096 A  
DOCKED: ATOM     14  C   UNL     1     143.796  73.333 220.182 -0.35 -0.00    +0.005 A  
DOCKED: ATOM     15  C   UNL     1     144.238  74.527 219.619 -0.35 -0.01    +0.019 A  
DOCKED: ATOM     16  H   UNL     1     138.407  74.512 222.867 -0.54 -0.09    +0.170 HD 
DOCKED: ATOM     17  O   UNL     1     141.890  77.877 220.040 -0.20 +0.17    -0.268 OA 
DOCKED: BRANCH   3  18
DOCKED: ATOM     18  N   UNL     1     136.746  76.379 223.272 -0.14 +0.06    -0.284 NA 
DOCKED: ATOM     19  H   UNL     1     136.310  77.157 223.816 +0.06 -0.03    +0.189 HD 
DOCKED: ENDBRANCH   3  18
DOCKED: ENDBRANCH   1   2
DOCKED: BRANCH   1  20
DOCKED: ATOM     20  N   UNL     1     137.963  80.171 222.214 -0.08 +0.04    -0.243 NA 
DOCKED: BRANCH  20  21
DOCKED: ATOM     21  C   UNL     1     138.767  80.858 223.232 -0.28 -0.02    +0.136 C  
DOCKED: ATOM     22  C   UNL     1     138.083  80.777 224.606 -0.37 -0.00    +0.038 C  
DOCKED: BRANCH  21  23
DOCKED: ATOM     23  C   UNL     1     140.226  80.424 223.179 -0.41 +0.00    -0.024 A  
DOCKED: ATOM     24  C   UNL     1     141.122  81.172 222.391 -0.43 -0.00    +0.006 A  
DOCKED: ATOM     25  C   UNL     1     140.729  79.329 223.916 -0.48 -0.00    +0.006 A  
DOCKED: ATOM     26  C   UNL     1     142.473  80.823 222.321 -0.52 -0.00    +0.000 A  
DOCKED: ATOM     27  C   UNL     1     142.082  78.985 223.840 -0.57 -0.00    +0.000 A  
DOCKED: ATOM     28  C   UNL     1     142.953  79.730 223.043 -0.62 -0.00    +0.000 A  
DOCKED: ENDBRANCH  21  23
DOCKED: ENDBRANCH  20  21
DOCKED: ENDBRANCH   1  20
DOCKED: BRANCH   1  29
DOCKED: ATOM     29  O   UNL     1     136.026  78.847 222.505 -0.03 +0.07    -0.493 OA 
DOCKED: ATOM     30  H   UNL     1     135.533  77.969 222.449 +0.06 -0.04    +0.295 HD 
DOCKED: ENDBRANCH   1  29
DOCKED: TORSDOF 6
DOCKED: TER
DOCKED: ENDMDL
________________________________________________________________________________


    FINAL DOCKED STATE:
    ________________________


Run:   2 / 20
Time taken for this run:   0.029s

DOCKED: MODEL        2
DOCKED: USER    Run = 2
DOCKED: USER
DOCKED: USER    Estimated Free Energy of Binding    =  -7.43 kcal/mol  [=(1)+(2)+(3)-(4)]
DOCKED: USER
DOCKED: USER    (1) Final Intermolecular Energy     =  -9.22 kcal/mol
DOCKED: USER        vdW + Hbond + desolv Energy     =  -9.16 kcal/mol
DOCKED: USER        Electrostatic Energy            =  -0.05 kcal/mol
DOCKED: USER        Moving Ligand-Fixed Receptor    =  -9.22 kcal/mol
DOCKED: USER        Moving Ligand-Moving Receptor   =  +0.00 kcal/mol
DOCKED: USER    (2) Final Total Internal Energy     =  -1.48 kcal/mol
DOCKED: USER    (3) Torsional Free Energy           =  +1.79 kcal/mol
DOCKED: USER    (4) Unbound System's Energy         =  -1.48 kcal/mol
DOCKED: USER
DOCKED: USER
DOCKED: REMARK SMILES [H]/N=c1\[nH]c2nc3ccccn3c(=O)c2cc1/C(O)=N/[C@@H](C)c1ccccc1
DOCKED: REMARK SMILES IDX 18 1 17 2 3 3 4 4 16 5 5 6 15 7 6 8 13 9 7 10 12 11 8 12
DOCKED: REMARK SMILES IDX 11 13 9 14 10 15 14 17 2 18 1 19 20 20 21 21 22 22 23 23
DOCKED: REMARK SMILES IDX 24 24 28 25 25 26 27 27 26 28 19 29
DOCKED: REMARK H PARENT 4 16 19 30
DOCKED: USER                              x       y       z     vdW  Elec       q    Type
DOCKED: USER                           _______ _______ _______ _____ _____    ______ ____
DOCKED: ROOT
DOCKED: ATOM      1  C   UNL     1     135.633  69.438 224.458 -0.15 -0.01    +0.218 C  
DOCKED: ENDROOT
DOCKED: BRANCH   1   2
DOCKED: ATOM      2  C   UNL     1     134.848  70.462 225.204 -0.20 -0.01    +0.079 A  
DOCKED: ATOM      3  C   UNL     1     133.871  70.110 226.168 -0.26 -0.01    +0.136 A  
DOCKED: ATOM      4  N   UNL     1     133.165  71.087 226.812 -0.19 +0.03    -0.324 N  
DOCKED: ATOM      5  C   UNL     1     135.068  71.827 224.947 -0.15 -0.00    +0.035 A  
DOCKED: ATOM      6  C   UNL     1     133.372  72.409 226.565 -0.31 -0.01    +0.146 A  
DOCKED: ATOM      7  C   UNL     1     134.332  72.810 225.626 -0.25 -0.00    +0.084 A  
DOCKED: ATOM      8  N   UNL     1     132.650  73.343 227.229 -0.57 +0.02    -0.212 NA 
DOCKED: ATOM      9  C   UNL     1     134.517  74.187 225.398 -0.21 -0.01    +0.267 A  
DOCKED: ATOM     10  C   UNL     1     132.830  74.670 227.008 -0.31 +0.00    +0.142 A  
DOCKED: ATOM     11  N   UNL     1     133.764  75.105 226.092 -0.22 -0.00    -0.267 N  
DOCKED: ATOM     12  C   UNL     1     132.054  75.588 227.724 -0.34 +0.00    +0.048 A  
DOCKED: ATOM     13  C   UNL     1     133.934  76.452 225.881 -0.27 -0.01    +0.096 A  
DOCKED: ATOM     14  C   UNL     1     132.229  76.952 227.508 -0.33 -0.00    +0.005 A  
DOCKED: ATOM     15  C   UNL     1     133.172  77.388 226.583 -0.28 -0.00    +0.019 A  
DOCKED: ATOM     16  H   UNL     1     132.445  70.821 227.522 +0.08 -0.02    +0.170 HD 
DOCKED: ATOM     17  O   UNL     1     135.376  74.570 224.555 -0.25 +0.05    -0.268 OA 
DOCKED: BRANCH   3  18
DOCKED: ATOM     18  N   UNL     1     133.650  68.865 226.458 -0.71 -0.02    -0.284 NA 
DOCKED: ATOM     19  H   UNL     1     134.318  68.103 226.201 +0.07 -0.01    +0.189 HD 
DOCKED: ENDBRANCH   3  18
DOCKED: ENDBRANCH   1   2
DOCKED: BRANCH   1  20
DOCKED: ATOM     20  N   UNL     1     136.854  69.721 224.089 -0.12 +0.03    -0.243 NA 
DOCKED: BRANCH  20  21
DOCKED: ATOM     21  C   UNL     1     138.087  68.959 224.325 -0.26 -0.01    +0.136 C  
DOCKED: ATOM     22  C   UNL     1     138.749  68.576 222.991 -0.24 -0.01    +0.038 C  
DOCKED: BRANCH  21  23
DOCKED: ATOM     23  C   UNL     1     138.982  69.648 225.348 -0.39 +0.00    -0.024 A  
DOCKED: ATOM     24  C   UNL     1     139.237  68.992 226.567 -0.50 -0.00    +0.006 A  
DOCKED: ATOM     25  C   UNL     1     139.598  70.896 225.112 -0.44 -0.00    +0.006 A  
DOCKED: ATOM     26  C   UNL     1     140.063  69.574 227.532 -0.61 -0.00    +0.000 A  
DOCKED: ATOM     27  C   UNL     1     140.422  71.474 226.082 -0.59 -0.00    +0.000 A  
DOCKED: ATOM     28  C   UNL     1     140.654  70.815 227.291 -0.68 -0.00    +0.000 A  
DOCKED: ENDBRANCH  21  23
DOCKED: ENDBRANCH  20  21
DOCKED: ENDBRANCH   1  20
DOCKED: BRANCH   1  29
DOCKED: ATOM     29  O   UNL     1     135.039  68.207 224.157 -0.57 -0.04    -0.493 OA 
DOCKED: ATOM     30  H   UNL     1     134.152  67.901 224.526 +0.08 -0.01    +0.295 HD 
DOCKED: ENDBRANCH   1  29
DOCKED: TORSDOF 6
DOCKED: TER
DOCKED: ENDMDL
________________________________________________________________________________


    FINAL DOCKED STATE:
    ________________________


Run:   3 / 20
Time taken for this run:   0.029s

DOCKED: MODEL        3
DOCKED: USER    Run = 3
DOCKED: USER
DOCKED: USER    Estimated Free Energy of Binding    =  -6.56 kcal/mol  [=(1)+(2)+(3)-(4)]
DOCKED: USER
DOCKED: USER    (1) Final Intermolecular Energy     =  -8.35 kcal/mol
DOCKED: USER        vdW + Hbond + desolv Energy     =  -8.37 kcal/mol
DOCKED: USER        Electrostatic Energy            =  +0.02 kcal/mol
DOCKED: USER        Moving Ligand-Fixed Receptor    =  -8.35 kcal/mol
DOCKED: USER        Moving Ligand-Moving Receptor   =  +0.00 kcal/mol
DOCKED: USER    (2) Final Total Internal Energy     =  -2.27 kcal/mol
DOCKED: USER    (3) Torsional Free Energy           =  +1.79 kcal/mol
DOCKED: USER    (4) Unbound System's Energy         =  -2.27 kcal/mol
DOCKED: USER
DOCKED: USER
DOCKED: REMARK SMILES [H]/N=c1\[nH]c2nc3ccccn3c(=O)c2cc1/C(O)=N/[C@@H](C)c1ccccc1
DOCKED: REMARK SMILES IDX 18 1 17 2 3 3 4 4 16 5 5 6 15 7 6 8 13 9 7 10 12 11 8 12
DOCKED: REMARK SMILES IDX 11 13 9 14 10 15 14 17 2 18 1 19 20 20 21 21 22 22 23 23
DOCKED: REMARK SMILES IDX 24 24 28 25 25 26 27 27 26 28 19 29
DOCKED: REMARK H PARENT 4 16 19 30
DOCKED: USER                              x       y       z     vdW  Elec       q    Type
DOCKED: USER                           _______ _______ _______ _____ _____    ______ ____
DOCKED: ROOT
DOCKED: ATOM      1  C   UNL     1     137.439  79.014 222.143 -0.11 -0.04    +0.218 C  
DOCKED: ENDROOT
DOCKED: BRANCH   1   2
DOCKED: ATOM      2  C   UNL     1     138.289  77.799 221.993 -0.19 -0.02    +0.079 A  
DOCKED: ATOM      3  C   UNL     1     137.911  76.542 222.528 -0.24 -0.03    +0.136 A  
DOCKED: ATOM      4  N   UNL     1     138.735  75.462 222.378 -0.15 +0.08    -0.324 N  
DOCKED: ATOM      5  C   UNL     1     139.513  77.889 221.306 -0.18 -0.01    +0.035 A  
DOCKED: ATOM      6  C   UNL     1     139.921  75.545 221.718 -0.27 -0.03    +0.146 A  
DOCKED: ATOM      7  C   UNL     1     140.337  76.763 221.164 -0.23 -0.03    +0.084 A  
DOCKED: ATOM      8  N   UNL     1     140.705  74.447 221.592 -0.54 +0.03    -0.212 NA 
DOCKED: ATOM      9  C   UNL     1     141.572  76.808 220.489 -0.17 -0.14    +0.267 A  
DOCKED: ATOM     10  C   UNL     1     141.895  74.493 220.941 -0.22 -0.04    +0.142 A  
DOCKED: ATOM     11  N   UNL     1     142.339  75.673 220.382 -0.16 +0.14    -0.267 N  
DOCKED: ATOM     12  C   UNL     1     142.661  73.327 220.844 -0.26 -0.01    +0.048 A  
DOCKED: ATOM     13  C   UNL     1     143.546  75.702 219.726 -0.37 -0.06    +0.096 A  
DOCKED: ATOM     14  C   UNL     1     143.882  73.359 220.178 -0.36 -0.00    +0.005 A  
DOCKED: ATOM     15  C   UNL     1     144.329  74.551 219.615 -0.32 -0.01    +0.019 A  
DOCKED: ATOM     16  H   UNL     1     138.451  74.537 222.776 -0.54 -0.08    +0.170 HD 
DOCKED: ATOM     17  O   UNL     1     141.967  77.897 219.984 -0.20 +0.17    -0.268 OA 
DOCKED: BRANCH   3  18
DOCKED: ATOM     18  N   UNL     1     136.779  76.403 223.146 -0.16 +0.06    -0.284 NA 
DOCKED: ATOM     19  H   UNL     1     136.302  77.198 223.627 +0.05 -0.03    +0.189 HD 
DOCKED: ENDBRANCH   3  18
DOCKED: ENDBRANCH   1   2
DOCKED: BRANCH   1  20
DOCKED: ATOM     20  N   UNL     1     138.010  80.190 222.155 -0.08 +0.04    -0.243 NA 
DOCKED: BRANCH  20  21
DOCKED: ATOM     21  C   UNL     1     138.775  80.831 223.232 -0.28 -0.02    +0.136 C  
DOCKED: ATOM     22  C   UNL     1     138.102  80.587 224.592 -0.36 -0.00    +0.038 C  
DOCKED: BRANCH  21  23
DOCKED: ATOM     23  C   UNL     1     140.258  80.491 223.143 -0.41 +0.00    -0.024 A  
DOCKED: ATOM     24  C   UNL     1     140.734  79.371 223.851 -0.52 -0.00    +0.006 A  
DOCKED: ATOM     25  C   UNL     1     141.168  81.226 222.351 -0.43 -0.00    +0.006 A  
DOCKED: ATOM     26  C   UNL     1     142.082  79.009 223.790 -0.58 -0.00    +0.000 A  
DOCKED: ATOM     27  C   UNL     1     142.515  80.859 222.296 -0.51 -0.00    +0.000 A  
DOCKED: ATOM     28  C   UNL     1     142.973  79.753 223.014 -0.62 -0.00    +0.000 A  
DOCKED: ENDBRANCH  21  23
DOCKED: ENDBRANCH  20  21
DOCKED: ENDBRANCH   1  20
DOCKED: BRANCH   1  29
DOCKED: ATOM     29  O   UNL     1     136.055  78.867 222.283 -0.02 +0.07    -0.493 OA 
DOCKED: ATOM     30  H   UNL     1     135.576  77.979 222.277 +0.05 -0.04    +0.295 HD 
DOCKED: ENDBRANCH   1  29
DOCKED: TORSDOF 6
DOCKED: TER
DOCKED: ENDMDL
________________________________________________________________________________


    FINAL DOCKED STATE:
    ________________________


Run:   4 / 20
Time taken for this run:   0.029s

DOCKED: MODEL        4
DOCKED: USER    Run = 4
DOCKED: USER
DOCKED: USER    Estimated Free Energy of Binding    =  -7.42 kcal/mol  [=(1)+(2)+(3)-(4)]
DOCKED: USER
DOCKED: USER    (1) Final Intermolecular Energy     =  -9.21 kcal/mol
DOCKED: USER        vdW + Hbond + desolv Energy     =  -9.17 kcal/mol
DOCKED: USER        Electrostatic Energy            =  -0.05 kcal/mol
DOCKED: USER        Moving Ligand-Fixed Receptor    =  -9.21 kcal/mol
DOCKED: USER        Moving Ligand-Moving Receptor   =  +0.00 kcal/mol
DOCKED: USER    (2) Final Total Internal Energy     =  -1.46 kcal/mol
DOCKED: USER    (3) Torsional Free Energy           =  +1.79 kcal/mol
DOCKED: USER    (4) Unbound System's Energy         =  -1.46 kcal/mol
DOCKED: USER
DOCKED: USER
DOCKED: REMARK SMILES [H]/N=c1\[nH]c2nc3ccccn3c(=O)c2cc1/C(O)=N/[C@@H](C)c1ccccc1
DOCKED: REMARK SMILES IDX 18 1 17 2 3 3 4 4 16 5 5 6 15 7 6 8 13 9 7 10 12 11 8 12
DOCKED: REMARK SMILES IDX 11 13 9 14 10 15 14 17 2 18 1 19 20 20 21 21 22 22 23 23
DOCKED: REMARK SMILES IDX 24 24 28 25 25 26 27 27 26 28 19 29
DOCKED: REMARK H PARENT 4 16 19 30
DOCKED: USER                              x       y       z     vdW  Elec       q    Type
DOCKED: USER                           _______ _______ _______ _____ _____    ______ ____
DOCKED: ROOT
DOCKED: ATOM      1  C   UNL     1     135.678  69.452 224.496 -0.15 -0.01    +0.218 C  
DOCKED: ENDROOT
DOCKED: BRANCH   1   2
DOCKED: ATOM      2  C   UNL     1     134.877  70.467 225.237 -0.20 -0.01    +0.079 A  
DOCKED: ATOM      3  C   UNL     1     133.878  70.103 226.175 -0.26 -0.01    +0.136 A  
DOCKED: ATOM      4  N   UNL     1     133.159  71.072 226.816 -0.19 +0.03    -0.324 N  
DOCKED: ATOM      5  C   UNL     1     135.104  71.836 225.004 -0.10 -0.00    +0.035 A  
DOCKED: ATOM      6  C   UNL     1     133.373  72.397 226.591 -0.32 -0.01    +0.146 A  
DOCKED: ATOM      7  C   UNL     1     134.353  72.809 225.679 -0.24 -0.00    +0.084 A  
DOCKED: ATOM      8  N   UNL     1     132.637  73.323 227.251 -0.55 +0.02    -0.212 NA 
DOCKED: ATOM      9  C   UNL     1     134.544  74.189 225.474 -0.20 -0.00    +0.267 A  
DOCKED: ATOM     10  C   UNL     1     132.821  74.653 227.052 -0.31 +0.00    +0.142 A  
DOCKED: ATOM     11  N   UNL     1     133.777  75.099 226.163 -0.22 -0.00    -0.267 N  
DOCKED: ATOM     12  C   UNL     1     132.031  75.562 227.762 -0.33 +0.00    +0.048 A  
DOCKED: ATOM     13  C   UNL     1     133.952  76.448 225.973 -0.27 -0.01    +0.096 A  
DOCKED: ATOM     14  C   UNL     1     132.211  76.928 227.568 -0.34 +0.00    +0.005 A  
DOCKED: ATOM     15  C   UNL     1     133.175  77.376 226.670 -0.29 -0.00    +0.019 A  
DOCKED: ATOM     16  H   UNL     1     132.423  70.798 227.506 +0.08 -0.02    +0.170 HD 
DOCKED: ATOM     17  O   UNL     1     135.422  74.583 224.655 -0.27 +0.05    -0.268 OA 
DOCKED: BRANCH   3  18
DOCKED: ATOM     18  N   UNL     1     133.651  68.855 226.444 -0.72 -0.02    -0.284 NA 
DOCKED: ATOM     19  H   UNL     1     134.301  68.091 226.150 +0.07 -0.01    +0.189 HD 
DOCKED: ENDBRANCH   3  18
DOCKED: ENDBRANCH   1   2
DOCKED: BRANCH   1  20
DOCKED: ATOM     20  N   UNL     1     136.917  69.727 224.184 -0.13 +0.03    -0.243 NA 
DOCKED: BRANCH  20  21
DOCKED: ATOM     21  C   UNL     1     138.127  68.935 224.433 -0.26 -0.01    +0.136 C  
DOCKED: ATOM     22  C   UNL     1     138.748  68.465 223.107 -0.25 -0.01    +0.038 C  
DOCKED: BRANCH  21  23
DOCKED: ATOM     23  C   UNL     1     139.066  69.638 225.405 -0.39 +0.00    -0.024 A  
DOCKED: ATOM     24  C   UNL     1     139.719  70.810 224.979 -0.46 -0.00    +0.006 A  
DOCKED: ATOM     25  C   UNL     1     139.279  69.189 226.727 -0.49 -0.00    +0.006 A  
DOCKED: ATOM     26  C   UNL     1     140.579  71.500 225.838 -0.60 -0.00    +0.000 A  
DOCKED: ATOM     27  C   UNL     1     140.141  69.884 227.581 -0.61 -0.00    +0.000 A  
DOCKED: ATOM     28  C   UNL     1     140.791  71.037 227.137 -0.70 -0.00    +0.000 A  
DOCKED: ENDBRANCH  21  23
DOCKED: ENDBRANCH  20  21
DOCKED: ENDBRANCH   1  20
DOCKED: BRANCH   1  29
DOCKED: ATOM     29  O   UNL     1     135.081  68.239 224.138 -0.56 -0.04    -0.493 OA 
DOCKED: ATOM     30  H   UNL     1     134.233  67.880 224.551 +0.08 -0.01    +0.295 HD 
DOCKED: ENDBRANCH   1  29
DOCKED: TORSDOF 6
DOCKED: TER
DOCKED: ENDMDL
________________________________________________________________________________


    FINAL DOCKED STATE:
    ________________________


Run:   5 / 20
Time taken for this run:   0.029s

DOCKED: MODEL        5
DOCKED: USER    Run = 5
DOCKED: USER
DOCKED: USER    Estimated Free Energy of Binding    =  -6.59 kcal/mol  [=(1)+(2)+(3)-(4)]
DOCKED: USER
DOCKED: USER    (1) Final Intermolecular Energy     =  -8.38 kcal/mol
DOCKED: USER        vdW + Hbond + desolv Energy     =  -8.40 kcal/mol
DOCKED: USER        Electrostatic Energy            =  +0.02 kcal/mol
DOCKED: USER        Moving Ligand-Fixed Receptor    =  -8.38 kcal/mol
DOCKED: USER        Moving Ligand-Moving Receptor   =  +0.00 kcal/mol
DOCKED: USER    (2) Final Total Internal Energy     =  -2.26 kcal/mol
DOCKED: USER    (3) Torsional Free Energy           =  +1.79 kcal/mol
DOCKED: USER    (4) Unbound System's Energy         =  -2.26 kcal/mol
DOCKED: USER
DOCKED: USER
DOCKED: REMARK SMILES [H]/N=c1\[nH]c2nc3ccccn3c(=O)c2cc1/C(O)=N/[C@@H](C)c1ccccc1
DOCKED: REMARK SMILES IDX 18 1 17 2 3 3 4 4 16 5 5 6 15 7 6 8 13 9 7 10 12 11 8 12
DOCKED: REMARK SMILES IDX 11 13 9 14 10 15 14 17 2 18 1 19 20 20 21 21 22 22 23 23
DOCKED: REMARK SMILES IDX 24 24 28 25 25 26 27 27 26 28 19 29
DOCKED: REMARK H PARENT 4 16 19 30
DOCKED: USER                              x       y       z     vdW  Elec       q    Type
DOCKED: USER                           _______ _______ _______ _____ _____    ______ ____
DOCKED: ROOT
DOCKED: ATOM      1  C   UNL     1     137.438  78.985 222.178 -0.11 -0.04    +0.218 C  
DOCKED: ENDROOT
DOCKED: BRANCH   1   2
DOCKED: ATOM      2  C   UNL     1     138.287  77.770 222.024 -0.20 -0.02    +0.079 A  
DOCKED: ATOM      3  C   UNL     1     137.909  76.512 222.557 -0.24 -0.03    +0.136 A  
DOCKED: ATOM      4  N   UNL     1     138.731  75.432 222.403 -0.14 +0.08    -0.324 N  
DOCKED: ATOM      5  C   UNL     1     139.511  77.860 221.337 -0.19 -0.01    +0.035 A  
DOCKED: ATOM      6  C   UNL     1     139.917  75.515 221.742 -0.27 -0.03    +0.146 A  
DOCKED: ATOM      7  C   UNL     1     140.334  76.734 221.191 -0.24 -0.03    +0.084 A  
DOCKED: ATOM      8  N   UNL     1     140.699  74.416 221.613 -0.55 +0.03    -0.212 NA 
DOCKED: ATOM      9  C   UNL     1     141.567  76.780 220.514 -0.17 -0.14    +0.267 A  
DOCKED: ATOM     10  C   UNL     1     141.888  74.463 220.960 -0.22 -0.04    +0.142 A  
DOCKED: ATOM     11  N   UNL     1     142.334  75.643 220.404 -0.16 +0.13    -0.267 N  
DOCKED: ATOM     12  C   UNL     1     142.653  73.296 220.859 -0.25 -0.01    +0.048 A  
DOCKED: ATOM     13  C   UNL     1     143.539  75.673 219.746 -0.36 -0.06    +0.096 A  
DOCKED: ATOM     14  C   UNL     1     143.873  73.329 220.192 -0.36 -0.00    +0.005 A  
DOCKED: ATOM     15  C   UNL     1     144.321  74.522 219.631 -0.34 -0.01    +0.019 A  
DOCKED: ATOM     16  H   UNL     1     138.446  74.506 222.799 -0.54 -0.09    +0.170 HD 
DOCKED: ATOM     17  O   UNL     1     141.963  77.869 220.011 -0.20 +0.17    -0.268 OA 
DOCKED: BRANCH   3  18
DOCKED: ATOM     18  N   UNL     1     136.777  76.372 223.176 -0.16 +0.06    -0.284 NA 
DOCKED: ATOM     19  H   UNL     1     136.312  77.162 223.678 +0.05 -0.03    +0.189 HD 
DOCKED: ENDBRANCH   3  18
DOCKED: ENDBRANCH   1   2
DOCKED: BRANCH   1  20
DOCKED: ATOM     20  N   UNL     1     138.008  80.162 222.167 -0.08 +0.04    -0.243 NA 
DOCKED: BRANCH  20  21
DOCKED: ATOM     21  C   UNL     1     138.761  80.831 223.235 -0.28 -0.02    +0.136 C  
DOCKED: ATOM     22  C   UNL     1     138.078  80.613 224.595 -0.36 -0.00    +0.038 C  
DOCKED: BRANCH  21  23
DOCKED: ATOM     23  C   UNL     1     140.246  80.498 223.166 -0.41 +0.00    -0.024 A  
DOCKED: ATOM     24  C   UNL     1     140.718  79.379 223.876 -0.51 -0.00    +0.006 A  
DOCKED: ATOM     25  C   UNL     1     141.163  81.239 222.388 -0.44 -0.00    +0.006 A  
DOCKED: ATOM     26  C   UNL     1     142.069  79.023 223.833 -0.58 -0.00    +0.000 A  
DOCKED: ATOM     27  C   UNL     1     142.513  80.879 222.350 -0.51 -0.00    +0.000 A  
DOCKED: ATOM     28  C   UNL     1     142.966  79.773 223.072 -0.63 -0.00    +0.000 A  
DOCKED: ENDBRANCH  21  23
DOCKED: ENDBRANCH  20  21
DOCKED: ENDBRANCH   1  20
DOCKED: BRANCH   1  29
DOCKED: ATOM     29  O   UNL     1     136.058  78.838 222.347 -0.02 +0.07    -0.493 OA 
DOCKED: ATOM     30  H   UNL     1     135.574  77.953 222.319 +0.06 -0.04    +0.295 HD 
DOCKED: ENDBRANCH   1  29
DOCKED: TORSDOF 6
DOCKED: TER
DOCKED: ENDMDL
________________________________________________________________________________


    FINAL DOCKED STATE:
    ________________________


Run:   6 / 20
Time taken for this run:   0.029s

DOCKED: MODEL        6
DOCKED: USER    Run = 6
DOCKED: USER
DOCKED: USER    Estimated Free Energy of Binding    =  -6.59 kcal/mol  [=(1)+(2)+(3)-(4)]
DOCKED: USER
DOCKED: USER    (1) Final Intermolecular Energy     =  -8.38 kcal/mol
DOCKED: USER        vdW + Hbond + desolv Energy     =  -8.39 kcal/mol
DOCKED: USER        Electrostatic Energy            =  +0.01 kcal/mol
DOCKED: USER        Moving Ligand-Fixed Receptor    =  -8.38 kcal/mol
DOCKED: USER        Moving Ligand-Moving Receptor   =  +0.00 kcal/mol
DOCKED: USER    (2) Final Total Internal Energy     =  -2.24 kcal/mol
DOCKED: USER    (3) Torsional Free Energy           =  +1.79 kcal/mol
DOCKED: USER    (4) Unbound System's Energy         =  -2.24 kcal/mol
DOCKED: USER
DOCKED: USER
DOCKED: REMARK SMILES [H]/N=c1\[nH]c2nc3ccccn3c(=O)c2cc1/C(O)=N/[C@@H](C)c1ccccc1
DOCKED: REMARK SMILES IDX 18 1 17 2 3 3 4 4 16 5 5 6 15 7 6 8 13 9 7 10 12 11 8 12
DOCKED: REMARK SMILES IDX 11 13 9 14 10 15 14 17 2 18 1 19 20 20 21 21 22 22 23 23
DOCKED: REMARK SMILES IDX 24 24 28 25 25 26 27 27 26 28 19 29
DOCKED: REMARK H PARENT 4 16 19 30
DOCKED: USER                              x       y       z     vdW  Elec       q    Type
DOCKED: USER                           _______ _______ _______ _____ _____    ______ ____
DOCKED: ROOT
DOCKED: ATOM      1  C   UNL     1     137.394  78.994 222.299 -0.12 -0.03    +0.218 C  
DOCKED: ENDROOT
DOCKED: BRANCH   1   2
DOCKED: ATOM      2  C   UNL     1     138.238  77.779 222.121 -0.20 -0.01    +0.079 A  
DOCKED: ATOM      3  C   UNL     1     137.867  76.517 222.649 -0.25 -0.03    +0.136 A  
DOCKED: ATOM      4  N   UNL     1     138.685  75.437 222.474 -0.12 +0.09    -0.324 N  
DOCKED: ATOM      5  C   UNL     1     139.451  77.874 221.415 -0.19 -0.01    +0.035 A  
DOCKED: ATOM      6  C   UNL     1     139.861  75.525 221.795 -0.27 -0.03    +0.146 A  
DOCKED: ATOM      7  C   UNL     1     140.270  76.748 221.248 -0.24 -0.03    +0.084 A  
DOCKED: ATOM      8  N   UNL     1     140.639  74.426 221.645 -0.57 +0.02    -0.212 NA 
DOCKED: ATOM      9  C   UNL     1     141.494  76.798 220.552 -0.17 -0.13    +0.267 A  
DOCKED: ATOM     10  C   UNL     1     141.818  74.477 220.974 -0.22 -0.04    +0.142 A  
DOCKED: ATOM     11  N   UNL     1     142.257  75.662 220.421 -0.17 +0.13    -0.267 N  
DOCKED: ATOM     12  C   UNL     1     142.580  73.310 220.851 -0.25 -0.01    +0.048 A  
DOCKED: ATOM     13  C   UNL     1     143.452  75.695 219.744 -0.36 -0.06    +0.096 A  
DOCKED: ATOM     14  C   UNL     1     143.790  73.347 220.166 -0.35 -0.00    +0.005 A  
DOCKED: ATOM     15  C   UNL     1     144.230  74.544 219.608 -0.34 -0.01    +0.019 A  
DOCKED: ATOM     16  H   UNL     1     138.406  74.509 222.866 -0.54 -0.09    +0.170 HD 
DOCKED: ATOM     17  O   UNL     1     141.882  77.891 220.052 -0.20 +0.17    -0.268 OA 
DOCKED: BRANCH   3  18
DOCKED: ATOM     18  N   UNL     1     136.745  76.374 223.284 -0.14 +0.06    -0.284 NA 
DOCKED: ATOM     19  H   UNL     1     136.309  77.148 223.834 +0.06 -0.03    +0.189 HD 
DOCKED: ENDBRANCH   3  18
DOCKED: ENDBRANCH   1   2
DOCKED: BRANCH   1  20
DOCKED: ATOM     20  N   UNL     1     137.954  80.172 222.217 -0.08 +0.04    -0.243 NA 
DOCKED: BRANCH  20  21
DOCKED: ATOM     21  C   UNL     1     138.757  80.882 223.221 -0.27 -0.02    +0.136 C  
DOCKED: ATOM     22  C   UNL     1     138.081  80.814 224.600 -0.38 -0.00    +0.038 C  
DOCKED: BRANCH  21  23
DOCKED: ATOM     23  C   UNL     1     140.220  80.460 223.166 -0.41 +0.00    -0.024 A  
DOCKED: ATOM     24  C   UNL     1     141.107  81.212 222.374 -0.43 -0.00    +0.006 A  
DOCKED: ATOM     25  C   UNL     1     140.733  79.371 223.905 -0.50 -0.00    +0.006 A  
DOCKED: ATOM     26  C   UNL     1     142.461  80.875 222.301 -0.51 -0.00    +0.000 A  
DOCKED: ATOM     27  C   UNL     1     142.089  79.039 223.828 -0.57 -0.00    +0.000 A  
DOCKED: ATOM     28  C   UNL     1     142.952  79.788 223.027 -0.63 -0.00    +0.000 A  
DOCKED: ENDBRANCH  21  23
DOCKED: ENDBRANCH  20  21
DOCKED: ENDBRANCH   1  20
DOCKED: BRANCH   1  29
DOCKED: ATOM     29  O   UNL     1     136.028  78.844 222.563 -0.03 +0.07    -0.493 OA 
DOCKED: ATOM     30  H   UNL     1     135.528  77.972 222.485 +0.06 -0.04    +0.295 HD 
DOCKED: ENDBRANCH   1  29
DOCKED: TORSDOF 6
DOCKED: TER
DOCKED: ENDMDL
________________________________________________________________________________


    FINAL DOCKED STATE:
    ________________________


Run:   7 / 20
Time taken for this run:   0.029s

DOCKED: MODEL        7
DOCKED: USER    Run = 7
DOCKED: USER
DOCKED: USER    Estimated Free Energy of Binding    =  -6.58 kcal/mol  [=(1)+(2)+(3)-(4)]
DOCKED: USER
DOCKED: USER    (1) Final Intermolecular Energy     =  -8.37 kcal/mol
DOCKED: USER        vdW + Hbond + desolv Energy     =  -8.38 kcal/mol
DOCKED: USER        Electrostatic Energy            =  +0.02 kcal/mol
DOCKED: USER        Moving Ligand-Fixed Receptor    =  -8.37 kcal/mol
DOCKED: USER        Moving Ligand-Moving Receptor   =  +0.00 kcal/mol
DOCKED: USER    (2) Final Total Internal Energy     =  -2.27 kcal/mol
DOCKED: USER    (3) Torsional Free Energy           =  +1.79 kcal/mol
DOCKED: USER    (4) Unbound System's Energy         =  -2.27 kcal/mol
DOCKED: USER
DOCKED: USER
DOCKED: REMARK SMILES [H]/N=c1\[nH]c2nc3ccccn3c(=O)c2cc1/C(O)=N/[C@@H](C)c1ccccc1
DOCKED: REMARK SMILES IDX 18 1 17 2 3 3 4 4 16 5 5 6 15 7 6 8 13 9 7 10 12 11 8 12
DOCKED: REMARK SMILES IDX 11 13 9 14 10 15 14 17 2 18 1 19 20 20 21 21 22 22 23 23
DOCKED: REMARK SMILES IDX 24 24 28 25 25 26 27 27 26 28 19 29
DOCKED: REMARK H PARENT 4 16 19 30
DOCKED: USER                              x       y       z     vdW  Elec       q    Type
DOCKED: USER                           _______ _______ _______ _____ _____    ______ ____
DOCKED: ROOT
DOCKED: ATOM      1  C   UNL     1     137.439  79.006 222.151 -0.11 -0.04    +0.218 C  
DOCKED: ENDROOT
DOCKED: BRANCH   1   2
DOCKED: ATOM      2  C   UNL     1     138.288  77.791 222.004 -0.19 -0.02    +0.079 A  
DOCKED: ATOM      3  C   UNL     1     137.913  76.537 222.547 -0.24 -0.03    +0.136 A  
DOCKED: ATOM      4  N   UNL     1     138.736  75.456 222.400 -0.14 +0.08    -0.324 N  
DOCKED: ATOM      5  C   UNL     1     139.510  77.877 221.313 -0.18 -0.01    +0.035 A  
DOCKED: ATOM      6  C   UNL     1     139.920  75.535 221.735 -0.27 -0.03    +0.146 A  
DOCKED: ATOM      7  C   UNL     1     140.334  76.750 221.174 -0.24 -0.03    +0.084 A  
DOCKED: ATOM      8  N   UNL     1     140.702  74.436 221.613 -0.55 +0.03    -0.212 NA 
DOCKED: ATOM      9  C   UNL     1     141.566  76.792 220.493 -0.17 -0.14    +0.267 A  
DOCKED: ATOM     10  C   UNL     1     141.890  74.478 220.957 -0.22 -0.04    +0.142 A  
DOCKED: ATOM     11  N   UNL     1     142.333  75.655 220.390 -0.16 +0.14    -0.267 N  
DOCKED: ATOM     12  C   UNL     1     142.655  73.312 220.863 -0.25 -0.01    +0.048 A  
DOCKED: ATOM     13  C   UNL     1     143.537  75.681 219.729 -0.36 -0.06    +0.096 A  
DOCKED: ATOM     14  C   UNL     1     143.874  73.341 220.192 -0.36 -0.00    +0.005 A  
DOCKED: ATOM     15  C   UNL     1     144.319  74.529 219.622 -0.33 -0.01    +0.019 A  
DOCKED: ATOM     16  H   UNL     1     138.453  74.533 222.804 -0.54 -0.09    +0.170 HD 
DOCKED: ATOM     17  O   UNL     1     141.959  77.878 219.981 -0.20 +0.17    -0.268 OA 
DOCKED: BRANCH   3  18
DOCKED: ATOM     18  N   UNL     1     136.783  76.401 223.171 -0.16 +0.06    -0.284 NA 
DOCKED: ATOM     19  H   UNL     1     136.309  77.198 223.651 +0.05 -0.03    +0.189 HD 
DOCKED: ENDBRANCH   3  18
DOCKED: ENDBRANCH   1   2
DOCKED: BRANCH   1  20
DOCKED: ATOM     20  N   UNL     1     138.010  80.182 222.148 -0.08 +0.04    -0.243 NA 
DOCKED: BRANCH  20  21
DOCKED: ATOM     21  C   UNL     1     138.768  80.841 223.219 -0.28 -0.02    +0.136 C  
DOCKED: ATOM     22  C   UNL     1     138.083  80.624 224.577 -0.36 -0.00    +0.038 C  
DOCKED: BRANCH  21  23
DOCKED: ATOM     23  C   UNL     1     140.250  80.495 223.148 -0.41 +0.00    -0.024 A  
DOCKED: ATOM     24  C   UNL     1     140.712  79.369 223.855 -0.51 -0.00    +0.006 A  
DOCKED: ATOM     25  C   UNL     1     141.174  81.231 222.374 -0.44 -0.00    +0.006 A  
DOCKED: ATOM     26  C   UNL     1     142.060  79.001 223.811 -0.58 -0.00    +0.000 A  
DOCKED: ATOM     27  C   UNL     1     142.521  80.858 222.334 -0.51 -0.00    +0.000 A  
DOCKED: ATOM     28  C   UNL     1     142.964  79.746 223.052 -0.62 -0.00    +0.000 A  
DOCKED: ENDBRANCH  21  23
DOCKED: ENDBRANCH  20  21
DOCKED: ENDBRANCH   1  20
DOCKED: BRANCH   1  29
DOCKED: ATOM     29  O   UNL     1     136.056  78.860 222.304 -0.02 +0.07    -0.493 OA 
DOCKED: ATOM     30  H   UNL     1     135.576  77.973 222.299 +0.06 -0.04    +0.295 HD 
DOCKED: ENDBRANCH   1  29
DOCKED: TORSDOF 6
DOCKED: TER
DOCKED: ENDMDL
________________________________________________________________________________


    FINAL DOCKED STATE:
    ________________________


Run:   8 / 20
Time taken for this run:   0.029s

DOCKED: MODEL        8
DOCKED: USER    Run = 8
DOCKED: USER
DOCKED: USER    Estimated Free Energy of Binding    =  -6.60 kcal/mol  [=(1)+(2)+(3)-(4)]
DOCKED: USER
DOCKED: USER    (1) Final Intermolecular Energy     =  -8.39 kcal/mol
DOCKED: USER        vdW + Hbond + desolv Energy     =  -8.40 kcal/mol
DOCKED: USER        Electrostatic Energy            =  +0.01 kcal/mol
DOCKED: USER        Moving Ligand-Fixed Receptor    =  -8.39 kcal/mol
DOCKED: USER        Moving Ligand-Moving Receptor   =  +0.00 kcal/mol
DOCKED: USER    (2) Final Total Internal Energy     =  -2.24 kcal/mol
DOCKED: USER    (3) Torsional Free Energy           =  +1.79 kcal/mol
DOCKED: USER    (4) Unbound System's Energy         =  -2.24 kcal/mol
DOCKED: USER
DOCKED: USER
DOCKED: REMARK SMILES [H]/N=c1\[nH]c2nc3ccccn3c(=O)c2cc1/C(O)=N/[C@@H](C)c1ccccc1
DOCKED: REMARK SMILES IDX 18 1 17 2 3 3 4 4 16 5 5 6 15 7 6 8 13 9 7 10 12 11 8 12
DOCKED: REMARK SMILES IDX 11 13 9 14 10 15 14 17 2 18 1 19 20 20 21 21 22 22 23 23
DOCKED: REMARK SMILES IDX 24 24 28 25 25 26 27 27 26 28 19 29
DOCKED: REMARK H PARENT 4 16 19 30
DOCKED: USER                              x       y       z     vdW  Elec       q    Type
DOCKED: USER                           _______ _______ _______ _____ _____    ______ ____
DOCKED: ROOT
DOCKED: ATOM      1  C   UNL     1     137.403  78.999 222.279 -0.12 -0.03    +0.218 C  
DOCKED: ENDROOT
DOCKED: BRANCH   1   2
DOCKED: ATOM      2  C   UNL     1     138.243  77.779 222.114 -0.20 -0.01    +0.079 A  
DOCKED: ATOM      3  C   UNL     1     137.860  76.521 222.644 -0.25 -0.03    +0.136 A  
DOCKED: ATOM      4  N   UNL     1     138.675  75.436 222.480 -0.11 +0.09    -0.324 N  
DOCKED: ATOM      5  C   UNL     1     139.462  77.865 221.418 -0.19 -0.01    +0.035 A  
DOCKED: ATOM      6  C   UNL     1     139.857  75.516 221.811 -0.27 -0.03    +0.146 A  
DOCKED: ATOM      7  C   UNL     1     140.277  76.734 221.262 -0.24 -0.03    +0.084 A  
DOCKED: ATOM      8  N   UNL     1     140.631  74.413 221.672 -0.58 +0.02    -0.212 NA 
DOCKED: ATOM      9  C   UNL     1     141.507  76.775 220.577 -0.17 -0.13    +0.267 A  
DOCKED: ATOM     10  C   UNL     1     141.816  74.454 221.011 -0.22 -0.03    +0.142 A  
DOCKED: ATOM     11  N   UNL     1     142.265  75.635 220.457 -0.17 +0.13    -0.267 N  
DOCKED: ATOM     12  C   UNL     1     142.573  73.284 220.901 -0.22 -0.01    +0.048 A  
DOCKED: ATOM     13  C   UNL     1     143.467  75.660 219.791 -0.35 -0.06    +0.096 A  
DOCKED: ATOM     14  C   UNL     1     143.790  73.312 220.225 -0.36 -0.00    +0.005 A  
DOCKED: ATOM     15  C   UNL     1     144.240  74.504 219.667 -0.36 -0.01    +0.019 A  
DOCKED: ATOM     16  H   UNL     1     138.388  74.511 222.874 -0.54 -0.09    +0.170 HD 
DOCKED: ATOM     17  O   UNL     1     141.905  77.865 220.076 -0.20 +0.17    -0.268 OA 
DOCKED: BRANCH   3  18
DOCKED: ATOM     18  N   UNL     1     136.732  76.386 223.270 -0.14 +0.06    -0.284 NA 
DOCKED: ATOM     19  H   UNL     1     136.295  77.165 223.811 +0.06 -0.03    +0.189 HD 
DOCKED: ENDBRANCH   3  18
DOCKED: ENDBRANCH   1   2
DOCKED: BRANCH   1  20
DOCKED: ATOM     20  N   UNL     1     137.972  80.174 222.217 -0.08 +0.04    -0.243 NA 
DOCKED: BRANCH  20  21
DOCKED: ATOM     21  C   UNL     1     138.744  80.879 223.248 -0.28 -0.02    +0.136 C  
DOCKED: ATOM     22  C   UNL     1     138.066  80.738 224.620 -0.37 -0.00    +0.038 C  
DOCKED: BRANCH  21  23
DOCKED: ATOM     23  C   UNL     1     140.222  80.516 223.186 -0.41 +0.00    -0.024 A  
DOCKED: ATOM     24  C   UNL     1     140.667  79.384 223.894 -0.49 -0.00    +0.006 A  
DOCKED: ATOM     25  C   UNL     1     141.159  81.241 222.417 -0.44 -0.00    +0.006 A  
DOCKED: ATOM     26  C   UNL     1     142.011  79.000 223.857 -0.58 -0.00    +0.000 A  
DOCKED: ATOM     27  C   UNL     1     142.501  80.853 222.384 -0.53 -0.00    +0.000 A  
DOCKED: ATOM     28  C   UNL     1     142.928  79.735 223.104 -0.63 -0.00    +0.000 A  
DOCKED: ENDBRANCH  21  23
DOCKED: ENDBRANCH  20  21
DOCKED: ENDBRANCH   1  20
DOCKED: BRANCH   1  29
DOCKED: ATOM     29  O   UNL     1     136.031  78.857 222.512 -0.03 +0.07    -0.493 OA 
DOCKED: ATOM     30  H   UNL     1     135.532  77.983 222.450 +0.06 -0.04    +0.295 HD 
DOCKED: ENDBRANCH   1  29
DOCKED: TORSDOF 6
DOCKED: TER
DOCKED: ENDMDL
________________________________________________________________________________


    FINAL DOCKED STATE:
    ________________________


Run:   9 / 20
Time taken for this run:   0.029s

DOCKED: MODEL        9
DOCKED: USER    Run = 9
DOCKED: USER
DOCKED: USER    Estimated Free Energy of Binding    =  -6.57 kcal/mol  [=(1)+(2)+(3)-(4)]
DOCKED: USER
DOCKED: USER    (1) Final Intermolecular Energy     =  -8.36 kcal/mol
DOCKED: USER        vdW + Hbond + desolv Energy     =  -8.37 kcal/mol
DOCKED: USER        Electrostatic Energy            =  +0.01 kcal/mol
DOCKED: USER        Moving Ligand-Fixed Receptor    =  -8.36 kcal/mol
DOCKED: USER        Moving Ligand-Moving Receptor   =  +0.00 kcal/mol
DOCKED: USER    (2) Final Total Internal Energy     =  -2.26 kcal/mol
DOCKED: USER    (3) Torsional Free Energy           =  +1.79 kcal/mol
DOCKED: USER    (4) Unbound System's Energy         =  -2.26 kcal/mol
DOCKED: USER
DOCKED: USER
DOCKED: REMARK SMILES [H]/N=c1\[nH]c2nc3ccccn3c(=O)c2cc1/C(O)=N/[C@@H](C)c1ccccc1
DOCKED: REMARK SMILES IDX 18 1 17 2 3 3 4 4 16 5 5 6 15 7 6 8 13 9 7 10 12 11 8 12
DOCKED: REMARK SMILES IDX 11 13 9 14 10 15 14 17 2 18 1 19 20 20 21 21 22 22 23 23
DOCKED: REMARK SMILES IDX 24 24 28 25 25 26 27 27 26 28 19 29
DOCKED: REMARK H PARENT 4 16 19 30
DOCKED: USER                              x       y       z     vdW  Elec       q    Type
DOCKED: USER                           _______ _______ _______ _____ _____    ______ ____
DOCKED: ROOT
DOCKED: ATOM      1  C   UNL     1     137.395  78.997 222.241 -0.12 -0.03    +0.218 C  
DOCKED: ENDROOT
DOCKED: BRANCH   1   2
DOCKED: ATOM      2  C   UNL     1     138.238  77.778 222.084 -0.20 -0.01    +0.079 A  
DOCKED: ATOM      3  C   UNL     1     137.862  76.524 222.625 -0.24 -0.03    +0.136 A  
DOCKED: ATOM      4  N   UNL     1     138.680  75.440 222.468 -0.12 +0.09    -0.324 N  
DOCKED: ATOM      5  C   UNL     1     139.455  77.862 221.383 -0.19 -0.01    +0.035 A  
DOCKED: ATOM      6  C   UNL     1     139.859  75.518 221.795 -0.27 -0.03    +0.146 A  
DOCKED: ATOM      7  C   UNL     1     140.274  76.733 221.234 -0.24 -0.03    +0.084 A  
DOCKED: ATOM      8  N   UNL     1     140.637  74.417 221.663 -0.57 +0.02    -0.212 NA 
DOCKED: ATOM      9  C   UNL     1     141.501  76.773 220.545 -0.17 -0.13    +0.267 A  
DOCKED: ATOM     10  C   UNL     1     141.820  74.456 220.998 -0.22 -0.03    +0.142 A  
DOCKED: ATOM     11  N   UNL     1     142.263  75.634 220.433 -0.17 +0.13    -0.267 N  
DOCKED: ATOM     12  C   UNL     1     142.580  73.287 220.895 -0.23 -0.01    +0.048 A  
DOCKED: ATOM     13  C   UNL     1     143.462  75.657 219.762 -0.35 -0.06    +0.096 A  
DOCKED: ATOM     14  C   UNL     1     143.794  73.314 220.215 -0.36 -0.00    +0.005 A  
DOCKED: ATOM     15  C   UNL     1     144.239  74.503 219.645 -0.36 -0.01    +0.019 A  
DOCKED: ATOM     16  H   UNL     1     138.396  74.518 222.871 -0.54 -0.09    +0.170 HD 
DOCKED: ATOM     17  O   UNL     1     141.894  77.859 220.034 -0.20 +0.17    -0.268 OA 
DOCKED: BRANCH   3  18
DOCKED: ATOM     18  N   UNL     1     136.736  76.390 223.256 -0.15 +0.06    -0.284 NA 
DOCKED: ATOM     19  H   UNL     1     136.284  77.180 223.770 +0.06 -0.03    +0.189 HD 
DOCKED: ENDBRANCH   3  18
DOCKED: ENDBRANCH   1   2
DOCKED: BRANCH   1  20
DOCKED: ATOM     20  N   UNL     1     137.966  80.172 222.206 -0.08 +0.04    -0.243 NA 
DOCKED: BRANCH  20  21
DOCKED: ATOM     21  C   UNL     1     138.742  80.850 223.251 -0.28 -0.02    +0.136 C  
DOCKED: ATOM     22  C   UNL     1     138.070  80.677 224.622 -0.36 -0.00    +0.038 C  
DOCKED: BRANCH  21  23
DOCKED: ATOM     23  C   UNL     1     140.220  80.487 223.174 -0.41 +0.00    -0.024 A  
DOCKED: ATOM     24  C   UNL     1     140.675  79.368 223.896 -0.49 -0.00    +0.006 A  
DOCKED: ATOM     25  C   UNL     1     141.145  81.200 222.379 -0.43 -0.00    +0.006 A  
DOCKED: ATOM     26  C   UNL     1     142.019  78.985 223.846 -0.58 -0.00    +0.000 A  
DOCKED: ATOM     27  C   UNL     1     142.487  80.812 222.335 -0.52 -0.00    +0.000 A  
DOCKED: ATOM     28  C   UNL     1     142.924  79.707 223.068 -0.62 -0.00    +0.000 A  
DOCKED: ENDBRANCH  21  23
DOCKED: ENDBRANCH  20  21
DOCKED: ENDBRANCH   1  20
DOCKED: BRANCH   1  29
DOCKED: ATOM     29  O   UNL     1     136.017  78.853 222.438 -0.03 +0.07    -0.493 OA 
DOCKED: ATOM     30  H   UNL     1     135.528  77.972 222.404 +0.06 -0.04    +0.295 HD 
DOCKED: ENDBRANCH   1  29
DOCKED: TORSDOF 6
DOCKED: TER
DOCKED: ENDMDL
________________________________________________________________________________


    FINAL DOCKED STATE:
    ________________________


Run:   10 / 20
Time taken for this run:   0.029s

DOCKED: MODEL        10
DOCKED: USER    Run = 10
DOCKED: USER
DOCKED: USER    Estimated Free Energy of Binding    =  -7.40 kcal/mol  [=(1)+(2)+(3)-(4)]
DOCKED: USER
DOCKED: USER    (1) Final Intermolecular Energy     =  -9.19 kcal/mol
DOCKED: USER        vdW + Hbond + desolv Energy     =  -9.13 kcal/mol
DOCKED: USER        Electrostatic Energy            =  -0.06 kcal/mol
DOCKED: USER        Moving Ligand-Fixed Receptor    =  -9.19 kcal/mol
DOCKED: USER        Moving Ligand-Moving Receptor   =  +0.00 kcal/mol
DOCKED: USER    (2) Final Total Internal Energy     =  -1.51 kcal/mol
DOCKED: USER    (3) Torsional Free Energy           =  +1.79 kcal/mol
DOCKED: USER    (4) Unbound System's Energy         =  -1.51 kcal/mol
DOCKED: USER
DOCKED: USER
DOCKED: REMARK SMILES [H]/N=c1\[nH]c2nc3ccccn3c(=O)c2cc1/C(O)=N/[C@@H](C)c1ccccc1
DOCKED: REMARK SMILES IDX 18 1 17 2 3 3 4 4 16 5 5 6 15 7 6 8 13 9 7 10 12 11 8 12
DOCKED: REMARK SMILES IDX 11 13 9 14 10 15 14 17 2 18 1 19 20 20 21 21 22 22 23 23
DOCKED: REMARK SMILES IDX 24 24 28 25 25 26 27 27 26 28 19 29
DOCKED: REMARK H PARENT 4 16 19 30
DOCKED: USER                              x       y       z     vdW  Elec       q    Type
DOCKED: USER                           _______ _______ _______ _____ _____    ______ ____
DOCKED: ROOT
DOCKED: ATOM      1  C   UNL     1     135.633  69.452 224.452 -0.15 -0.01    +0.218 C  
DOCKED: ENDROOT
DOCKED: BRANCH   1   2
DOCKED: ATOM      2  C   UNL     1     134.840  70.467 225.201 -0.20 -0.01    +0.079 A  
DOCKED: ATOM      3  C   UNL     1     133.841  70.104 226.139 -0.25 -0.01    +0.136 A  
DOCKED: ATOM      4  N   UNL     1     133.129  71.074 226.787 -0.19 +0.03    -0.324 N  
DOCKED: ATOM      5  C   UNL     1     135.074  71.836 224.975 -0.15 -0.00    +0.035 A  
DOCKED: ATOM      6  C   UNL     1     133.349  72.398 226.569 -0.31 -0.01    +0.146 A  
DOCKED: ATOM      7  C   UNL     1     134.330  72.810 225.657 -0.25 -0.00    +0.084 A  
DOCKED: ATOM      8  N   UNL     1     132.620  73.325 227.236 -0.54 +0.02    -0.212 NA 
DOCKED: ATOM      9  C   UNL     1     134.528  74.190 225.460 -0.21 -0.01    +0.267 A  
DOCKED: ATOM     10  C   UNL     1     132.812  74.655 227.044 -0.31 +0.00    +0.142 A  
DOCKED: ATOM     11  N   UNL     1     133.768  75.100 226.155 -0.22 -0.00    -0.267 N  
DOCKED: ATOM     12  C   UNL     1     132.028  75.564 227.761 -0.33 +0.00    +0.048 A  
DOCKED: ATOM     13  C   UNL     1     133.951  76.450 225.973 -0.27 -0.01    +0.096 A  
DOCKED: ATOM     14  C   UNL     1     132.216  76.931 227.574 -0.34 +0.00    +0.005 A  
DOCKED: ATOM     15  C   UNL     1     133.181  77.378 226.676 -0.30 -0.00    +0.019 A  
DOCKED: ATOM     16  H   UNL     1     132.392  70.799 227.477 +0.08 -0.02    +0.170 HD 
DOCKED: ATOM     17  O   UNL     1     135.407  74.583 224.641 -0.26 +0.05    -0.268 OA 
DOCKED: BRANCH   3  18
DOCKED: ATOM     18  N   UNL     1     133.606  68.855 226.401 -0.72 -0.02    -0.284 NA 
DOCKED: ATOM     19  H   UNL     1     134.302  68.101 226.203 +0.07 -0.01    +0.189 HD 
DOCKED: ENDBRANCH   3  18
DOCKED: ENDBRANCH   1   2
DOCKED: BRANCH   1  20
DOCKED: ATOM     20  N   UNL     1     136.837  69.761 224.048 -0.12 +0.03    -0.243 NA 
DOCKED: BRANCH  20  21
DOCKED: ATOM     21  C   UNL     1     138.091  69.023 224.242 -0.25 -0.01    +0.136 C  
DOCKED: ATOM     22  C   UNL     1     138.723  68.666 222.887 -0.23 -0.01    +0.038 C  
DOCKED: BRANCH  21  23
DOCKED: ATOM     23  C   UNL     1     139.000  69.721 225.246 -0.38 +0.00    -0.024 A  
DOCKED: ATOM     24  C   UNL     1     139.197  69.121 226.504 -0.49 -0.00    +0.006 A  
DOCKED: ATOM     25  C   UNL     1     139.684  70.923 224.958 -0.46 -0.00    +0.006 A  
DOCKED: ATOM     26  C   UNL     1     140.032  69.713 227.455 -0.60 -0.00    +0.000 A  
DOCKED: ATOM     27  C   UNL     1     140.517  71.511 225.914 -0.60 -0.00    +0.000 A  
DOCKED: ATOM     28  C   UNL     1     140.691  70.908 227.161 -0.68 -0.00    +0.000 A  
DOCKED: ENDBRANCH  21  23
DOCKED: ENDBRANCH  20  21
DOCKED: ENDBRANCH   1  20
DOCKED: BRANCH   1  29
DOCKED: ATOM     29  O   UNL     1     135.065  68.201 224.187 -0.56 -0.05    -0.493 OA 
DOCKED: ATOM     30  H   UNL     1     134.163  67.904 224.526 +0.08 -0.01    +0.295 HD 
DOCKED: ENDBRANCH   1  29
DOCKED: TORSDOF 6
DOCKED: TER
DOCKED: ENDMDL
________________________________________________________________________________


    FINAL DOCKED STATE:
    ________________________


Run:   11 / 20
Time taken for this run:   0.029s

DOCKED: MODEL        11
DOCKED: USER    Run = 11
DOCKED: USER
DOCKED: USER    Estimated Free Energy of Binding    =  -6.60 kcal/mol  [=(1)+(2)+(3)-(4)]
DOCKED: USER
DOCKED: USER    (1) Final Intermolecular Energy     =  -8.39 kcal/mol
DOCKED: USER        vdW + Hbond + desolv Energy     =  -8.41 kcal/mol
DOCKED: USER        Electrostatic Energy            =  +0.02 kcal/mol
DOCKED: USER        Moving Ligand-Fixed Receptor    =  -8.39 kcal/mol
DOCKED: USER        Moving Ligand-Moving Receptor   =  +0.00 kcal/mol
DOCKED: USER    (2) Final Total Internal Energy     =  -2.25 kcal/mol
DOCKED: USER    (3) Torsional Free Energy           =  +1.79 kcal/mol
DOCKED: USER    (4) Unbound System's Energy         =  -2.25 kcal/mol
DOCKED: USER
DOCKED: USER
DOCKED: REMARK SMILES [H]/N=c1\[nH]c2nc3ccccn3c(=O)c2cc1/C(O)=N/[C@@H](C)c1ccccc1
DOCKED: REMARK SMILES IDX 18 1 17 2 3 3 4 4 16 5 5 6 15 7 6 8 13 9 7 10 12 11 8 12
DOCKED: REMARK SMILES IDX 11 13 9 14 10 15 14 17 2 18 1 19 20 20 21 21 22 22 23 23
DOCKED: REMARK SMILES IDX 24 24 28 25 25 26 27 27 26 28 19 29
DOCKED: REMARK H PARENT 4 16 19 30
DOCKED: USER                              x       y       z     vdW  Elec       q    Type
DOCKED: USER                           _______ _______ _______ _____ _____    ______ ____
DOCKED: ROOT
DOCKED: ATOM      1  C   UNL     1     137.418  78.953 222.243 -0.12 -0.03    +0.218 C  
DOCKED: ENDROOT
DOCKED: BRANCH   1   2
DOCKED: ATOM      2  C   UNL     1     138.263  77.737 222.074 -0.20 -0.01    +0.079 A  
DOCKED: ATOM      3  C   UNL     1     137.885  76.476 222.598 -0.24 -0.03    +0.136 A  
DOCKED: ATOM      4  N   UNL     1     138.704  75.395 222.431 -0.12 +0.09    -0.324 N  
DOCKED: ATOM      5  C   UNL     1     139.483  77.831 221.380 -0.19 -0.01    +0.035 A  
DOCKED: ATOM      6  C   UNL     1     139.887  75.482 221.764 -0.27 -0.03    +0.146 A  
DOCKED: ATOM      7  C   UNL     1     140.303  76.704 221.220 -0.24 -0.03    +0.084 A  
DOCKED: ATOM      8  N   UNL     1     140.665  74.382 221.621 -0.55 +0.02    -0.212 NA 
DOCKED: ATOM      9  C   UNL     1     141.533  76.753 220.537 -0.17 -0.13    +0.267 A  
DOCKED: ATOM     10  C   UNL     1     141.851  74.431 220.962 -0.22 -0.04    +0.142 A  
DOCKED: ATOM     11  N   UNL     1     142.296  75.616 220.413 -0.17 +0.13    -0.267 N  
DOCKED: ATOM     12  C   UNL     1     142.613  73.264 220.848 -0.26 -0.01    +0.048 A  
DOCKED: ATOM     13  C   UNL     1     143.498  75.648 219.749 -0.36 -0.06    +0.096 A  
DOCKED: ATOM     14  C   UNL     1     143.830  73.300 220.174 -0.36 -0.00    +0.005 A  
DOCKED: ATOM     15  C   UNL     1     144.277  74.496 219.621 -0.34 -0.01    +0.019 A  
DOCKED: ATOM     16  H   UNL     1     138.420  74.467 222.821 -0.54 -0.09    +0.170 HD 
DOCKED: ATOM     17  O   UNL     1     141.928  77.846 220.041 -0.20 +0.17    -0.268 OA 
DOCKED: BRANCH   3  18
DOCKED: ATOM     18  N   UNL     1     136.757  76.334 223.222 -0.15 +0.06    -0.284 NA 
DOCKED: ATOM     19  H   UNL     1     136.320  77.107 223.773 +0.06 -0.03    +0.189 HD 
DOCKED: ENDBRANCH   3  18
DOCKED: ENDBRANCH   1   2
DOCKED: BRANCH   1  20
DOCKED: ATOM     20  N   UNL     1     137.983  80.131 222.184 -0.08 +0.04    -0.243 NA 
DOCKED: BRANCH  20  21
DOCKED: ATOM     21  C   UNL     1     138.751  80.836 223.217 -0.28 -0.02    +0.136 C  
DOCKED: ATOM     22  C   UNL     1     138.083  80.674 224.592 -0.37 -0.00    +0.038 C  
DOCKED: BRANCH  21  23
DOCKED: ATOM     23  C   UNL     1     140.233  80.493 223.143 -0.41 +0.00    -0.024 A  
DOCKED: ATOM     24  C   UNL     1     140.702  79.378 223.863 -0.51 -0.00    +0.006 A  
DOCKED: ATOM     25  C   UNL     1     141.151  81.220 222.353 -0.43 -0.00    +0.006 A  
DOCKED: ATOM     26  C   UNL     1     142.050  79.013 223.817 -0.58 -0.00    +0.000 A  
DOCKED: ATOM     27  C   UNL     1     142.499  80.850 222.312 -0.51 -0.00    +0.000 A  
DOCKED: ATOM     28  C   UNL     1     142.948  79.749 223.043 -0.63 -0.00    +0.000 A  
DOCKED: ENDBRANCH  21  23
DOCKED: ENDBRANCH  20  21
DOCKED: ENDBRANCH   1  20
DOCKED: BRANCH   1  29
DOCKED: ATOM     29  O   UNL     1     136.047  78.805 222.475 -0.03 +0.07    -0.493 OA 
DOCKED: ATOM     30  H   UNL     1     135.550  77.930 222.403 +0.06 -0.04    +0.295 HD 
DOCKED: ENDBRANCH   1  29
DOCKED: TORSDOF 6
DOCKED: TER
DOCKED: ENDMDL
________________________________________________________________________________


    FINAL DOCKED STATE:
    ________________________


Run:   12 / 20
Time taken for this run:   0.029s

DOCKED: MODEL        12
DOCKED: USER    Run = 12
DOCKED: USER
DOCKED: USER    Estimated Free Energy of Binding    =  -6.60 kcal/mol  [=(1)+(2)+(3)-(4)]
DOCKED: USER
DOCKED: USER    (1) Final Intermolecular Energy     =  -8.39 kcal/mol
DOCKED: USER        vdW + Hbond + desolv Energy     =  -8.41 kcal/mol
DOCKED: USER        Electrostatic Energy            =  +0.02 kcal/mol
DOCKED: USER        Moving Ligand-Fixed Receptor    =  -8.39 kcal/mol
DOCKED: USER        Moving Ligand-Moving Receptor   =  +0.00 kcal/mol
DOCKED: USER    (2) Final Total Internal Energy     =  -2.25 kcal/mol
DOCKED: USER    (3) Torsional Free Energy           =  +1.79 kcal/mol
DOCKED: USER    (4) Unbound System's Energy         =  -2.25 kcal/mol
DOCKED: USER
DOCKED: USER
DOCKED: REMARK SMILES [H]/N=c1\[nH]c2nc3ccccn3c(=O)c2cc1/C(O)=N/[C@@H](C)c1ccccc1
DOCKED: REMARK SMILES IDX 18 1 17 2 3 3 4 4 16 5 5 6 15 7 6 8 13 9 7 10 12 11 8 12
DOCKED: REMARK SMILES IDX 11 13 9 14 10 15 14 17 2 18 1 19 20 20 21 21 22 22 23 23
DOCKED: REMARK SMILES IDX 24 24 28 25 25 26 27 27 26 28 19 29
DOCKED: REMARK H PARENT 4 16 19 30
DOCKED: USER                              x       y       z     vdW  Elec       q    Type
DOCKED: USER                           _______ _______ _______ _____ _____    ______ ____
DOCKED: ROOT
DOCKED: ATOM      1  C   UNL     1     137.431  79.004 222.222 -0.11 -0.03    +0.218 C  
DOCKED: ENDROOT
DOCKED: BRANCH   1   2
DOCKED: ATOM      2  C   UNL     1     138.278  77.788 222.059 -0.20 -0.02    +0.079 A  
DOCKED: ATOM      3  C   UNL     1     137.905  76.530 222.595 -0.24 -0.03    +0.136 A  
DOCKED: ATOM      4  N   UNL     1     138.726  75.450 222.432 -0.13 +0.08    -0.324 N  
DOCKED: ATOM      5  C   UNL     1     139.494  77.879 221.358 -0.19 -0.01    +0.035 A  
DOCKED: ATOM      6  C   UNL     1     139.904  75.534 221.758 -0.27 -0.03    +0.146 A  
DOCKED: ATOM      7  C   UNL     1     140.315  76.753 221.204 -0.24 -0.03    +0.084 A  
DOCKED: ATOM      8  N   UNL     1     140.685  74.435 221.621 -0.56 +0.03    -0.212 NA 
DOCKED: ATOM      9  C   UNL     1     141.542  76.799 220.514 -0.17 -0.14    +0.267 A  
DOCKED: ATOM     10  C   UNL     1     141.867  74.481 220.955 -0.22 -0.04    +0.142 A  
DOCKED: ATOM     11  N   UNL     1     142.307  75.662 220.395 -0.16 +0.13    -0.267 N  
DOCKED: ATOM     12  C   UNL     1     142.631  73.315 220.846 -0.26 -0.01    +0.048 A  
DOCKED: ATOM     13  C   UNL     1     143.506  75.692 219.724 -0.36 -0.06    +0.096 A  
DOCKED: ATOM     14  C   UNL     1     143.844  73.348 220.166 -0.36 -0.00    +0.005 A  
DOCKED: ATOM     15  C   UNL     1     144.286  74.541 219.602 -0.33 -0.01    +0.019 A  
DOCKED: ATOM     16  H   UNL     1     138.445  74.524 222.830 -0.54 -0.09    +0.170 HD 
DOCKED: ATOM     17  O   UNL     1     141.932  77.888 220.007 -0.20 +0.17    -0.268 OA 
DOCKED: BRANCH   3  18
DOCKED: ATOM     18  N   UNL     1     136.780  76.390 223.226 -0.15 +0.06    -0.284 NA 
DOCKED: ATOM     19  H   UNL     1     136.333  77.173 223.755 +0.06 -0.03    +0.189 HD 
DOCKED: ENDBRANCH   3  18
DOCKED: ENDBRANCH   1   2
DOCKED: BRANCH   1  20
DOCKED: ATOM     20  N   UNL     1     137.997  80.181 222.178 -0.08 +0.04    -0.243 NA 
DOCKED: BRANCH  20  21
DOCKED: ATOM     21  C   UNL     1     138.763  80.875 223.220 -0.27 -0.02    +0.136 C  
DOCKED: ATOM     22  C   UNL     1     138.081  80.717 224.588 -0.37 -0.00    +0.038 C  
DOCKED: BRANCH  21  23
DOCKED: ATOM     23  C   UNL     1     140.242  80.515 223.159 -0.41 +0.00    -0.024 A  
DOCKED: ATOM     24  C   UNL     1     140.691  79.392 223.880 -0.50 -0.00    +0.006 A  
DOCKED: ATOM     25  C   UNL     1     141.176  81.234 222.380 -0.44 -0.00    +0.006 A  
DOCKED: ATOM     26  C   UNL     1     142.036  79.012 223.845 -0.58 -0.00    +0.000 A  
DOCKED: ATOM     27  C   UNL     1     142.519  80.848 222.350 -0.52 -0.00    +0.000 A  
DOCKED: ATOM     28  C   UNL     1     142.950  79.740 223.081 -0.63 -0.00    +0.000 A  
DOCKED: ENDBRANCH  21  23
DOCKED: ENDBRANCH  20  21
DOCKED: ENDBRANCH   1  20
DOCKED: BRANCH   1  29
DOCKED: ATOM     29  O   UNL     1     136.056  78.855 222.436 -0.03 +0.07    -0.493 OA 
DOCKED: ATOM     30  H   UNL     1     135.567  77.974 222.391 +0.06 -0.04    +0.295 HD 
DOCKED: ENDBRANCH   1  29
DOCKED: TORSDOF 6
DOCKED: TER
DOCKED: ENDMDL
________________________________________________________________________________


    FINAL DOCKED STATE:
    ________________________


Run:   13 / 20
Time taken for this run:   0.029s

DOCKED: MODEL        13
DOCKED: USER    Run = 13
DOCKED: USER
DOCKED: USER    Estimated Free Energy of Binding    =  -6.60 kcal/mol  [=(1)+(2)+(3)-(4)]
DOCKED: USER
DOCKED: USER    (1) Final Intermolecular Energy     =  -8.39 kcal/mol
DOCKED: USER        vdW + Hbond + desolv Energy     =  -8.40 kcal/mol
DOCKED: USER        Electrostatic Energy            =  +0.02 kcal/mol
DOCKED: USER        Moving Ligand-Fixed Receptor    =  -8.39 kcal/mol
DOCKED: USER        Moving Ligand-Moving Receptor   =  +0.00 kcal/mol
DOCKED: USER    (2) Final Total Internal Energy     =  -2.23 kcal/mol
DOCKED: USER    (3) Torsional Free Energy           =  +1.79 kcal/mol
DOCKED: USER    (4) Unbound System's Energy         =  -2.23 kcal/mol
DOCKED: USER
DOCKED: USER
DOCKED: REMARK SMILES [H]/N=c1\[nH]c2nc3ccccn3c(=O)c2cc1/C(O)=N/[C@@H](C)c1ccccc1
DOCKED: REMARK SMILES IDX 18 1 17 2 3 3 4 4 16 5 5 6 15 7 6 8 13 9 7 10 12 11 8 12
DOCKED: REMARK SMILES IDX 11 13 9 14 10 15 14 17 2 18 1 19 20 20 21 21 22 22 23 23
DOCKED: REMARK SMILES IDX 24 24 28 25 25 26 27 27 26 28 19 29
DOCKED: REMARK H PARENT 4 16 19 30
DOCKED: USER                              x       y       z     vdW  Elec       q    Type
DOCKED: USER                           _______ _______ _______ _____ _____    ______ ____
DOCKED: ROOT
DOCKED: ATOM      1  C   UNL     1     137.386  79.004 222.225 -0.11 -0.03    +0.218 C  
DOCKED: ENDROOT
DOCKED: BRANCH   1   2
DOCKED: ATOM      2  C   UNL     1     138.224  77.783 222.059 -0.20 -0.01    +0.079 A  
DOCKED: ATOM      3  C   UNL     1     137.838  76.525 222.585 -0.24 -0.03    +0.136 A  
DOCKED: ATOM      4  N   UNL     1     138.651  75.438 222.421 -0.13 +0.09    -0.324 N  
DOCKED: ATOM      5  C   UNL     1     139.445  77.868 221.367 -0.19 -0.01    +0.035 A  
DOCKED: ATOM      6  C   UNL     1     139.834  75.517 221.754 -0.27 -0.03    +0.146 A  
DOCKED: ATOM      7  C   UNL     1     140.258  76.736 221.210 -0.24 -0.03    +0.084 A  
DOCKED: ATOM      8  N   UNL     1     140.607  74.413 221.615 -0.55 +0.03    -0.212 NA 
DOCKED: ATOM      9  C   UNL     1     141.489  76.776 220.528 -0.17 -0.13    +0.267 A  
DOCKED: ATOM     10  C   UNL     1     141.793  74.454 220.957 -0.23 -0.03    +0.142 A  
DOCKED: ATOM     11  N   UNL     1     142.246  75.635 220.406 -0.17 +0.13    -0.267 N  
DOCKED: ATOM     12  C   UNL     1     142.548  73.282 220.844 -0.26 -0.01    +0.048 A  
DOCKED: ATOM     13  C   UNL     1     143.449  75.659 219.743 -0.36 -0.06    +0.096 A  
DOCKED: ATOM     14  C   UNL     1     143.766  73.310 220.172 -0.35 -0.00    +0.005 A  
DOCKED: ATOM     15  C   UNL     1     144.221  74.502 219.617 -0.35 -0.01    +0.019 A  
DOCKED: ATOM     16  H   UNL     1     138.360  74.513 222.812 -0.54 -0.09    +0.170 HD 
DOCKED: ATOM     17  O   UNL     1     141.891  77.866 220.030 -0.20 +0.17    -0.268 OA 
DOCKED: BRANCH   3  18
DOCKED: ATOM     18  N   UNL     1     136.708  76.390 223.209 -0.15 +0.06    -0.284 NA 
DOCKED: ATOM     19  H   UNL     1     136.274  77.166 223.757 +0.05 -0.03    +0.189 HD 
DOCKED: ENDBRANCH   3  18
DOCKED: ENDBRANCH   1   2
DOCKED: BRANCH   1  20
DOCKED: ATOM     20  N   UNL     1     137.958  80.178 222.169 -0.08 +0.04    -0.243 NA 
DOCKED: BRANCH  20  21
DOCKED: ATOM     21  C   UNL     1     138.726  80.879 223.205 -0.27 -0.02    +0.136 C  
DOCKED: ATOM     22  C   UNL     1     138.053  80.718 224.578 -0.37 -0.00    +0.038 C  
DOCKED: BRANCH  21  23
DOCKED: ATOM     23  C   UNL     1     140.207  80.530 223.136 -0.40 +0.00    -0.024 A  
DOCKED: ATOM     24  C   UNL     1     140.664  79.398 223.836 -0.51 -0.00    +0.006 A  
DOCKED: ATOM     25  C   UNL     1     141.134  81.269 222.369 -0.43 -0.00    +0.006 A  
DOCKED: ATOM     26  C   UNL     1     142.011  79.027 223.792 -0.59 -0.00    +0.000 A  
DOCKED: ATOM     27  C   UNL     1     142.480  80.894 222.330 -0.51 -0.00    +0.000 A  
DOCKED: ATOM     28  C   UNL     1     142.919  79.775 223.041 -0.63 -0.00    +0.000 A  
DOCKED: ENDBRANCH  21  23
DOCKED: ENDBRANCH  20  21
DOCKED: ENDBRANCH   1  20
DOCKED: BRANCH   1  29
DOCKED: ATOM     29  O   UNL     1     136.013  78.864 222.453 -0.03 +0.07    -0.493 OA 
DOCKED: ATOM     30  H   UNL     1     135.511  77.993 222.377 +0.06 -0.04    +0.295 HD 
DOCKED: ENDBRANCH   1  29
DOCKED: TORSDOF 6
DOCKED: TER
DOCKED: ENDMDL
________________________________________________________________________________


    FINAL DOCKED STATE:
    ________________________


Run:   14 / 20
Time taken for this run:   0.029s

DOCKED: MODEL        14
DOCKED: USER    Run = 14
DOCKED: USER
DOCKED: USER    Estimated Free Energy of Binding    =  -6.58 kcal/mol  [=(1)+(2)+(3)-(4)]
DOCKED: USER
DOCKED: USER    (1) Final Intermolecular Energy     =  -8.37 kcal/mol
DOCKED: USER        vdW + Hbond + desolv Energy     =  -8.38 kcal/mol
DOCKED: USER        Electrostatic Energy            =  +0.02 kcal/mol
DOCKED: USER        Moving Ligand-Fixed Receptor    =  -8.37 kcal/mol
DOCKED: USER        Moving Ligand-Moving Receptor   =  +0.00 kcal/mol
DOCKED: USER    (2) Final Total Internal Energy     =  -2.26 kcal/mol
DOCKED: USER    (3) Torsional Free Energy           =  +1.79 kcal/mol
DOCKED: USER    (4) Unbound System's Energy         =  -2.26 kcal/mol
DOCKED: USER
DOCKED: USER
DOCKED: REMARK SMILES [H]/N=c1\[nH]c2nc3ccccn3c(=O)c2cc1/C(O)=N/[C@@H](C)c1ccccc1
DOCKED: REMARK SMILES IDX 18 1 17 2 3 3 4 4 16 5 5 6 15 7 6 8 13 9 7 10 12 11 8 12
DOCKED: REMARK SMILES IDX 11 13 9 14 10 15 14 17 2 18 1 19 20 20 21 21 22 22 23 23
DOCKED: REMARK SMILES IDX 24 24 28 25 25 26 27 27 26 28 19 29
DOCKED: REMARK H PARENT 4 16 19 30
DOCKED: USER                              x       y       z     vdW  Elec       q    Type
DOCKED: USER                           _______ _______ _______ _____ _____    ______ ____
DOCKED: ROOT
DOCKED: ATOM      1  C   UNL     1     137.432  79.013 222.166 -0.11 -0.04    +0.218 C  
DOCKED: ENDROOT
DOCKED: BRANCH   1   2
DOCKED: ATOM      2  C   UNL     1     138.281  77.797 222.018 -0.19 -0.02    +0.079 A  
DOCKED: ATOM      3  C   UNL     1     137.905  76.542 222.559 -0.24 -0.03    +0.136 A  
DOCKED: ATOM      4  N   UNL     1     138.727  75.461 222.411 -0.14 +0.08    -0.324 N  
DOCKED: ATOM      5  C   UNL     1     139.503  77.884 221.327 -0.19 -0.01    +0.035 A  
DOCKED: ATOM      6  C   UNL     1     139.912  75.541 221.746 -0.27 -0.03    +0.146 A  
DOCKED: ATOM      7  C   UNL     1     140.327  76.757 221.186 -0.24 -0.03    +0.084 A  
DOCKED: ATOM      8  N   UNL     1     140.694  74.442 221.623 -0.56 +0.03    -0.212 NA 
DOCKED: ATOM      9  C   UNL     1     141.559  76.799 220.507 -0.17 -0.14    +0.267 A  
DOCKED: ATOM     10  C   UNL     1     141.882  74.485 220.967 -0.22 -0.04    +0.142 A  
DOCKED: ATOM     11  N   UNL     1     142.325  75.663 220.402 -0.16 +0.14    -0.267 N  
DOCKED: ATOM     12  C   UNL     1     142.647  73.318 220.872 -0.24 -0.01    +0.048 A  
DOCKED: ATOM     13  C   UNL     1     143.530  75.689 219.741 -0.36 -0.06    +0.096 A  
DOCKED: ATOM     14  C   UNL     1     143.867  73.348 220.202 -0.36 -0.00    +0.005 A  
DOCKED: ATOM     15  C   UNL     1     144.312  74.537 219.633 -0.33 -0.01    +0.019 A  
DOCKED: ATOM     16  H   UNL     1     138.444  74.538 222.813 -0.54 -0.09    +0.170 HD 
DOCKED: ATOM     17  O   UNL     1     141.952  77.886 219.996 -0.20 +0.17    -0.268 OA 
DOCKED: BRANCH   3  18
DOCKED: ATOM     18  N   UNL     1     136.775  76.406 223.182 -0.15 +0.06    -0.284 NA 
DOCKED: ATOM     19  H   UNL     1     136.307  77.200 223.674 +0.05 -0.03    +0.189 HD 
DOCKED: ENDBRANCH   3  18
DOCKED: ENDBRANCH   1   2
DOCKED: BRANCH   1  20
DOCKED: ATOM     20  N   UNL     1     138.002  80.189 222.155 -0.08 +0.04    -0.243 NA 
DOCKED: BRANCH  20  21
DOCKED: ATOM     21  C   UNL     1     138.764  80.853 223.219 -0.28 -0.02    +0.136 C  
DOCKED: ATOM     22  C   UNL     1     138.084  80.646 224.581 -0.37 -0.00    +0.038 C  
DOCKED: BRANCH  21  23
DOCKED: ATOM     23  C   UNL     1     140.246  80.505 223.145 -0.41 +0.00    -0.024 A  
DOCKED: ATOM     24  C   UNL     1     140.708  79.380 223.854 -0.52 -0.00    +0.006 A  
DOCKED: ATOM     25  C   UNL     1     141.169  81.238 222.367 -0.43 -0.00    +0.006 A  
DOCKED: ATOM     26  C   UNL     1     142.055  79.011 223.807 -0.58 -0.00    +0.000 A  
DOCKED: ATOM     27  C   UNL     1     142.515  80.864 222.325 -0.51 -0.00    +0.000 A  
DOCKED: ATOM     28  C   UNL     1     142.958  79.753 223.044 -0.63 -0.00    +0.000 A  
DOCKED: ENDBRANCH  21  23
DOCKED: ENDBRANCH  20  21
DOCKED: ENDBRANCH   1  20
DOCKED: BRANCH   1  29
DOCKED: ATOM     29  O   UNL     1     136.050  78.866 222.329 -0.02 +0.07    -0.493 OA 
DOCKED: ATOM     30  H   UNL     1     135.569  77.980 222.315 +0.06 -0.04    +0.295 HD 
DOCKED: ENDBRANCH   1  29
DOCKED: TORSDOF 6
DOCKED: TER
DOCKED: ENDMDL
________________________________________________________________________________


    FINAL DOCKED STATE:
    ________________________


Run:   15 / 20
Time taken for this run:   0.029s

DOCKED: MODEL        15
DOCKED: USER    Run = 15
DOCKED: USER
DOCKED: USER    Estimated Free Energy of Binding    =  -6.58 kcal/mol  [=(1)+(2)+(3)-(4)]
DOCKED: USER
DOCKED: USER    (1) Final Intermolecular Energy     =  -8.37 kcal/mol
DOCKED: USER        vdW + Hbond + desolv Energy     =  -8.39 kcal/mol
DOCKED: USER        Electrostatic Energy            =  +0.02 kcal/mol
DOCKED: USER        Moving Ligand-Fixed Receptor    =  -8.37 kcal/mol
DOCKED: USER        Moving Ligand-Moving Receptor   =  +0.00 kcal/mol
DOCKED: USER    (2) Final Total Internal Energy     =  -2.25 kcal/mol
DOCKED: USER    (3) Torsional Free Energy           =  +1.79 kcal/mol
DOCKED: USER    (4) Unbound System's Energy         =  -2.25 kcal/mol
DOCKED: USER
DOCKED: USER
DOCKED: REMARK SMILES [H]/N=c1\[nH]c2nc3ccccn3c(=O)c2cc1/C(O)=N/[C@@H](C)c1ccccc1
DOCKED: REMARK SMILES IDX 18 1 17 2 3 3 4 4 16 5 5 6 15 7 6 8 13 9 7 10 12 11 8 12
DOCKED: REMARK SMILES IDX 11 13 9 14 10 15 14 17 2 18 1 19 20 20 21 21 22 22 23 23
DOCKED: REMARK SMILES IDX 24 24 28 25 25 26 27 27 26 28 19 29
DOCKED: REMARK H PARENT 4 16 19 30
DOCKED: USER                              x       y       z     vdW  Elec       q    Type
DOCKED: USER                           _______ _______ _______ _____ _____    ______ ____
DOCKED: ROOT
DOCKED: ATOM      1  C   UNL     1     137.433  79.010 222.181 -0.11 -0.04    +0.218 C  
DOCKED: ENDROOT
DOCKED: BRANCH   1   2
DOCKED: ATOM      2  C   UNL     1     138.281  77.795 222.024 -0.19 -0.02    +0.079 A  
DOCKED: ATOM      3  C   UNL     1     137.905  76.538 222.559 -0.24 -0.03    +0.136 A  
DOCKED: ATOM      4  N   UNL     1     138.728  75.457 222.403 -0.14 +0.08    -0.324 N  
DOCKED: ATOM      5  C   UNL     1     139.502  77.885 221.332 -0.19 -0.01    +0.035 A  
DOCKED: ATOM      6  C   UNL     1     139.911  75.541 221.737 -0.27 -0.03    +0.146 A  
DOCKED: ATOM      7  C   UNL     1     140.325  76.759 221.184 -0.24 -0.03    +0.084 A  
DOCKED: ATOM      8  N   UNL     1     140.693  74.442 221.606 -0.55 +0.03    -0.212 NA 
DOCKED: ATOM      9  C   UNL     1     141.556  76.805 220.502 -0.17 -0.14    +0.267 A  
DOCKED: ATOM     10  C   UNL     1     141.879  74.488 220.948 -0.22 -0.04    +0.142 A  
DOCKED: ATOM     11  N   UNL     1     142.322  75.669 220.390 -0.16 +0.14    -0.267 N  
DOCKED: ATOM     12  C   UNL     1     142.644  73.322 220.845 -0.26 -0.01    +0.048 A  
DOCKED: ATOM     13  C   UNL     1     143.525  75.699 219.727 -0.36 -0.06    +0.096 A  
DOCKED: ATOM     14  C   UNL     1     143.862  73.355 220.173 -0.36 -0.00    +0.005 A  
DOCKED: ATOM     15  C   UNL     1     144.307  74.547 219.610 -0.32 -0.01    +0.019 A  
DOCKED: ATOM     16  H   UNL     1     138.445  74.532 222.800 -0.54 -0.09    +0.170 HD 
DOCKED: ATOM     17  O   UNL     1     141.949  77.894 219.997 -0.20 +0.17    -0.268 OA 
DOCKED: BRANCH   3  18
DOCKED: ATOM     18  N   UNL     1     136.777  76.398 223.183 -0.15 +0.06    -0.284 NA 
DOCKED: ATOM     19  H   UNL     1     136.315  77.187 223.689 +0.05 -0.03    +0.189 HD 
DOCKED: ENDBRANCH   3  18
DOCKED: ENDBRANCH   1   2
DOCKED: BRANCH   1  20
DOCKED: ATOM     20  N   UNL     1     138.002  80.187 222.164 -0.08 +0.04    -0.243 NA 
DOCKED: BRANCH  20  21
DOCKED: ATOM     21  C   UNL     1     138.764  80.857 223.225 -0.28 -0.02    +0.136 C  
DOCKED: ATOM     22  C   UNL     1     138.087  80.651 224.589 -0.36 -0.00    +0.038 C  
DOCKED: BRANCH  21  23
DOCKED: ATOM     23  C   UNL     1     140.247  80.514 223.149 -0.41 +0.00    -0.024 A  
DOCKED: ATOM     24  C   UNL     1     140.715  79.393 223.860 -0.51 -0.00    +0.006 A  
DOCKED: ATOM     25  C   UNL     1     141.165  81.248 222.366 -0.43 -0.00    +0.006 A  
DOCKED: ATOM     26  C   UNL     1     142.063  79.028 223.811 -0.58 -0.00    +0.000 A  
DOCKED: ATOM     27  C   UNL     1     142.513  80.878 222.322 -0.51 -0.00    +0.000 A  
DOCKED: ATOM     28  C   UNL     1     142.962  79.771 223.044 -0.63 -0.00    +0.000 A  
DOCKED: ENDBRANCH  21  23
DOCKED: ENDBRANCH  20  21
DOCKED: ENDBRANCH   1  20
DOCKED: BRANCH   1  29
DOCKED: ATOM     29  O   UNL     1     136.053  78.862 222.358 -0.02 +0.07    -0.493 OA 
DOCKED: ATOM     30  H   UNL     1     135.569  77.978 222.327 +0.06 -0.04    +0.295 HD 
DOCKED: ENDBRANCH   1  29
DOCKED: TORSDOF 6
DOCKED: TER
DOCKED: ENDMDL
________________________________________________________________________________


    FINAL DOCKED STATE:
    ________________________


Run:   16 / 20
Time taken for this run:   0.029s

DOCKED: MODEL        16
DOCKED: USER    Run = 16
DOCKED: USER
DOCKED: USER    Estimated Free Energy of Binding    =  -6.57 kcal/mol  [=(1)+(2)+(3)-(4)]
DOCKED: USER
DOCKED: USER    (1) Final Intermolecular Energy     =  -8.36 kcal/mol
DOCKED: USER        vdW + Hbond + desolv Energy     =  -8.38 kcal/mol
DOCKED: USER        Electrostatic Energy            =  +0.02 kcal/mol
DOCKED: USER        Moving Ligand-Fixed Receptor    =  -8.36 kcal/mol
DOCKED: USER        Moving Ligand-Moving Receptor   =  +0.00 kcal/mol
DOCKED: USER    (2) Final Total Internal Energy     =  -2.26 kcal/mol
DOCKED: USER    (3) Torsional Free Energy           =  +1.79 kcal/mol
DOCKED: USER    (4) Unbound System's Energy         =  -2.26 kcal/mol
DOCKED: USER
DOCKED: USER
DOCKED: REMARK SMILES [H]/N=c1\[nH]c2nc3ccccn3c(=O)c2cc1/C(O)=N/[C@@H](C)c1ccccc1
DOCKED: REMARK SMILES IDX 18 1 17 2 3 3 4 4 16 5 5 6 15 7 6 8 13 9 7 10 12 11 8 12
DOCKED: REMARK SMILES IDX 11 13 9 14 10 15 14 17 2 18 1 19 20 20 21 21 22 22 23 23
DOCKED: REMARK SMILES IDX 24 24 28 25 25 26 27 27 26 28 19 29
DOCKED: REMARK H PARENT 4 16 19 30
DOCKED: USER                              x       y       z     vdW  Elec       q    Type
DOCKED: USER                           _______ _______ _______ _____ _____    ______ ____
DOCKED: ROOT
DOCKED: ATOM      1  C   UNL     1     137.431  79.006 222.139 -0.11 -0.04    +0.218 C  
DOCKED: ENDROOT
DOCKED: BRANCH   1   2
DOCKED: ATOM      2  C   UNL     1     138.280  77.790 221.994 -0.19 -0.02    +0.079 A  
DOCKED: ATOM      3  C   UNL     1     137.902  76.536 222.536 -0.24 -0.03    +0.136 A  
DOCKED: ATOM      4  N   UNL     1     138.725  75.454 222.391 -0.15 +0.08    -0.324 N  
DOCKED: ATOM      5  C   UNL     1     139.504  77.875 221.306 -0.18 -0.01    +0.035 A  
DOCKED: ATOM      6  C   UNL     1     139.910  75.533 221.729 -0.27 -0.03    +0.146 A  
DOCKED: ATOM      7  C   UNL     1     140.327  76.748 221.169 -0.23 -0.03    +0.084 A  
DOCKED: ATOM      8  N   UNL     1     140.693  74.433 221.608 -0.55 +0.03    -0.212 NA 
DOCKED: ATOM      9  C   UNL     1     141.560  76.789 220.492 -0.17 -0.14    +0.267 A  
DOCKED: ATOM     10  C   UNL     1     141.882  74.475 220.955 -0.22 -0.04    +0.142 A  
DOCKED: ATOM     11  N   UNL     1     142.327  75.652 220.390 -0.16 +0.13    -0.267 N  
DOCKED: ATOM     12  C   UNL     1     142.647  73.308 220.863 -0.25 -0.01    +0.048 A  
DOCKED: ATOM     13  C   UNL     1     143.533  75.677 219.731 -0.36 -0.06    +0.096 A  
DOCKED: ATOM     14  C   UNL     1     143.867  73.336 220.195 -0.36 -0.00    +0.005 A  
DOCKED: ATOM     15  C   UNL     1     144.314  74.525 219.626 -0.34 -0.01    +0.019 A  
DOCKED: ATOM     16  H   UNL     1     138.440  74.532 222.794 -0.54 -0.08    +0.170 HD 
DOCKED: ATOM     17  O   UNL     1     141.955  77.874 219.980 -0.20 +0.17    -0.268 OA 
DOCKED: BRANCH   3  18
DOCKED: ATOM     18  N   UNL     1     136.771  76.400 223.157 -0.16 +0.06    -0.284 NA 
DOCKED: ATOM     19  H   UNL     1     136.292  77.200 223.630 +0.05 -0.03    +0.189 HD 
DOCKED: ENDBRANCH   3  18
DOCKED: ENDBRANCH   1   2
DOCKED: BRANCH   1  20
DOCKED: ATOM     20  N   UNL     1     138.004  80.181 222.151 -0.08 +0.04    -0.243 NA 
DOCKED: BRANCH  20  21
DOCKED: ATOM     21  C   UNL     1     138.758  80.827 223.231 -0.28 -0.02    +0.136 C  
DOCKED: ATOM     22  C   UNL     1     138.073  80.589 224.586 -0.36 -0.00    +0.038 C  
DOCKED: BRANCH  21  23
DOCKED: ATOM     23  C   UNL     1     140.242  80.488 223.158 -0.41 +0.00    -0.024 A  
DOCKED: ATOM     24  C   UNL     1     140.711  79.368 223.869 -0.51 -0.00    +0.006 A  
DOCKED: ATOM     25  C   UNL     1     141.160  81.225 222.376 -0.43 -0.00    +0.006 A  
DOCKED: ATOM     26  C   UNL     1     142.061  79.007 223.822 -0.58 -0.00    +0.000 A  
DOCKED: ATOM     27  C   UNL     1     142.508  80.859 222.334 -0.52 -0.00    +0.000 A  
DOCKED: ATOM     28  C   UNL     1     142.959  79.753 223.057 -0.63 -0.00    +0.000 A  
DOCKED: ENDBRANCH  21  23
DOCKED: ENDBRANCH  20  21
DOCKED: ENDBRANCH   1  20
DOCKED: BRANCH   1  29
DOCKED: ATOM     29  O   UNL     1     136.047  78.861 222.276 -0.02 +0.07    -0.493 OA 
DOCKED: ATOM     30  H   UNL     1     135.567  77.973 222.279 +0.05 -0.04    +0.295 HD 
DOCKED: ENDBRANCH   1  29
DOCKED: TORSDOF 6
DOCKED: TER
DOCKED: ENDMDL
________________________________________________________________________________


    FINAL DOCKED STATE:
    ________________________


Run:   17 / 20
Time taken for this run:   0.029s

DOCKED: MODEL        17
DOCKED: USER    Run = 17
DOCKED: USER
DOCKED: USER    Estimated Free Energy of Binding    =  -6.58 kcal/mol  [=(1)+(2)+(3)-(4)]
DOCKED: USER
DOCKED: USER    (1) Final Intermolecular Energy     =  -8.37 kcal/mol
DOCKED: USER        vdW + Hbond + desolv Energy     =  -8.39 kcal/mol
DOCKED: USER        Electrostatic Energy            =  +0.02 kcal/mol
DOCKED: USER        Moving Ligand-Fixed Receptor    =  -8.37 kcal/mol
DOCKED: USER        Moving Ligand-Moving Receptor   =  +0.00 kcal/mol
DOCKED: USER    (2) Final Total Internal Energy     =  -2.26 kcal/mol
DOCKED: USER    (3) Torsional Free Energy           =  +1.79 kcal/mol
DOCKED: USER    (4) Unbound System's Energy         =  -2.26 kcal/mol
DOCKED: USER
DOCKED: USER
DOCKED: REMARK SMILES [H]/N=c1\[nH]c2nc3ccccn3c(=O)c2cc1/C(O)=N/[C@@H](C)c1ccccc1
DOCKED: REMARK SMILES IDX 18 1 17 2 3 3 4 4 16 5 5 6 15 7 6 8 13 9 7 10 12 11 8 12
DOCKED: REMARK SMILES IDX 11 13 9 14 10 15 14 17 2 18 1 19 20 20 21 21 22 22 23 23
DOCKED: REMARK SMILES IDX 24 24 28 25 25 26 27 27 26 28 19 29
DOCKED: REMARK H PARENT 4 16 19 30
DOCKED: USER                              x       y       z     vdW  Elec       q    Type
DOCKED: USER                           _______ _______ _______ _____ _____    ______ ____
DOCKED: ROOT
DOCKED: ATOM      1  C   UNL     1     137.442  79.002 222.187 -0.11 -0.04    +0.218 C  
DOCKED: ENDROOT
DOCKED: BRANCH   1   2
DOCKED: ATOM      2  C   UNL     1     138.286  77.784 222.029 -0.20 -0.02    +0.079 A  
DOCKED: ATOM      3  C   UNL     1     137.903  76.525 222.557 -0.24 -0.03    +0.136 A  
DOCKED: ATOM      4  N   UNL     1     138.721  75.442 222.400 -0.14 +0.08    -0.324 N  
DOCKED: ATOM      5  C   UNL     1     139.511  77.872 221.343 -0.19 -0.01    +0.035 A  
DOCKED: ATOM      6  C   UNL     1     139.908  75.524 221.740 -0.27 -0.03    +0.146 A  
DOCKED: ATOM      7  C   UNL     1     140.330  76.743 221.194 -0.24 -0.03    +0.084 A  
DOCKED: ATOM      8  N   UNL     1     140.686  74.422 221.608 -0.55 +0.03    -0.212 NA 
DOCKED: ATOM      9  C   UNL     1     141.564  76.786 220.519 -0.17 -0.14    +0.267 A  
DOCKED: ATOM     10  C   UNL     1     141.876  74.466 220.957 -0.22 -0.04    +0.142 A  
DOCKED: ATOM     11  N   UNL     1     142.326  75.647 220.405 -0.16 +0.13    -0.267 N  
DOCKED: ATOM     12  C   UNL     1     142.636  73.297 220.852 -0.25 -0.01    +0.048 A  
DOCKED: ATOM     13  C   UNL     1     143.533  75.675 219.748 -0.36 -0.06    +0.096 A  
DOCKED: ATOM     14  C   UNL     1     143.858  73.328 220.186 -0.36 -0.00    +0.005 A  
DOCKED: ATOM     15  C   UNL     1     144.310  74.521 219.631 -0.34 -0.01    +0.019 A  
DOCKED: ATOM     16  H   UNL     1     138.433  74.516 222.792 -0.54 -0.09    +0.170 HD 
DOCKED: ATOM     17  O   UNL     1     141.964  77.876 220.020 -0.20 +0.17    -0.268 OA 
DOCKED: BRANCH   3  18
DOCKED: ATOM     18  N   UNL     1     136.770  76.388 223.174 -0.16 +0.06    -0.284 NA 
DOCKED: ATOM     19  H   UNL     1     136.309  77.176 223.681 +0.05 -0.03    +0.189 HD 
DOCKED: ENDBRANCH   3  18
DOCKED: ENDBRANCH   1   2
DOCKED: BRANCH   1  20
DOCKED: ATOM     20  N   UNL     1     138.016  80.176 222.177 -0.08 +0.04    -0.243 NA 
DOCKED: BRANCH  20  21
DOCKED: ATOM     21  C   UNL     1     138.780  80.837 223.243 -0.28 -0.02    +0.136 C  
DOCKED: ATOM     22  C   UNL     1     138.097  80.629 224.604 -0.36 -0.00    +0.038 C  
DOCKED: BRANCH  21  23
DOCKED: ATOM     23  C   UNL     1     140.260  80.485 223.170 -0.41 +0.00    -0.024 A  
DOCKED: ATOM     24  C   UNL     1     140.720  79.362 223.883 -0.50 -0.00    +0.006 A  
DOCKED: ATOM     25  C   UNL     1     141.185  81.212 222.388 -0.44 -0.00    +0.006 A  
DOCKED: ATOM     26  C   UNL     1     142.066  78.989 223.838 -0.57 -0.00    +0.000 A  
DOCKED: ATOM     27  C   UNL     1     142.530  80.834 222.347 -0.52 -0.00    +0.000 A  
DOCKED: ATOM     28  C   UNL     1     142.971  79.725 223.071 -0.61 -0.00    +0.000 A  
DOCKED: ENDBRANCH  21  23
DOCKED: ENDBRANCH  20  21
DOCKED: ENDBRANCH   1  20
DOCKED: BRANCH   1  29
DOCKED: ATOM     29  O   UNL     1     136.061  78.859 222.357 -0.02 +0.07    -0.493 OA 
DOCKED: ATOM     30  H   UNL     1     135.574  77.976 222.323 +0.06 -0.04    +0.295 HD 
DOCKED: ENDBRANCH   1  29
DOCKED: TORSDOF 6
DOCKED: TER
DOCKED: ENDMDL
________________________________________________________________________________


    FINAL DOCKED STATE:
    ________________________


Run:   18 / 20
Time taken for this run:   0.029s

DOCKED: MODEL        18
DOCKED: USER    Run = 18
DOCKED: USER
DOCKED: USER    Estimated Free Energy of Binding    =  -6.57 kcal/mol  [=(1)+(2)+(3)-(4)]
DOCKED: USER
DOCKED: USER    (1) Final Intermolecular Energy     =  -8.36 kcal/mol
DOCKED: USER        vdW + Hbond + desolv Energy     =  -8.38 kcal/mol
DOCKED: USER        Electrostatic Energy            =  +0.02 kcal/mol
DOCKED: USER        Moving Ligand-Fixed Receptor    =  -8.36 kcal/mol
DOCKED: USER        Moving Ligand-Moving Receptor   =  +0.00 kcal/mol
DOCKED: USER    (2) Final Total Internal Energy     =  -2.26 kcal/mol
DOCKED: USER    (3) Torsional Free Energy           =  +1.79 kcal/mol
DOCKED: USER    (4) Unbound System's Energy         =  -2.26 kcal/mol
DOCKED: USER
DOCKED: USER
DOCKED: REMARK SMILES [H]/N=c1\[nH]c2nc3ccccn3c(=O)c2cc1/C(O)=N/[C@@H](C)c1ccccc1
DOCKED: REMARK SMILES IDX 18 1 17 2 3 3 4 4 16 5 5 6 15 7 6 8 13 9 7 10 12 11 8 12
DOCKED: REMARK SMILES IDX 11 13 9 14 10 15 14 17 2 18 1 19 20 20 21 21 22 22 23 23
DOCKED: REMARK SMILES IDX 24 24 28 25 25 26 27 27 26 28 19 29
DOCKED: REMARK H PARENT 4 16 19 30
DOCKED: USER                              x       y       z     vdW  Elec       q    Type
DOCKED: USER                           _______ _______ _______ _____ _____    ______ ____
DOCKED: ROOT
DOCKED: ATOM      1  C   UNL     1     137.434  79.011 222.154 -0.11 -0.04    +0.218 C  
DOCKED: ENDROOT
DOCKED: BRANCH   1   2
DOCKED: ATOM      2  C   UNL     1     138.284  77.796 222.002 -0.19 -0.02    +0.079 A  
DOCKED: ATOM      3  C   UNL     1     137.907  76.540 222.539 -0.24 -0.03    +0.136 A  
DOCKED: ATOM      4  N   UNL     1     138.730  75.459 222.387 -0.15 +0.08    -0.324 N  
DOCKED: ATOM      5  C   UNL     1     139.507  77.886 221.313 -0.18 -0.01    +0.035 A  
DOCKED: ATOM      6  C   UNL     1     139.915  75.542 221.724 -0.27 -0.03    +0.146 A  
DOCKED: ATOM      7  C   UNL     1     140.330  76.760 221.169 -0.23 -0.03    +0.084 A  
DOCKED: ATOM      8  N   UNL     1     140.698  74.443 221.597 -0.55 +0.03    -0.212 NA 
DOCKED: ATOM      9  C   UNL     1     141.563  76.804 220.491 -0.17 -0.14    +0.267 A  
DOCKED: ATOM     10  C   UNL     1     141.886  74.489 220.943 -0.22 -0.04    +0.142 A  
DOCKED: ATOM     11  N   UNL     1     142.330  75.668 220.383 -0.16 +0.14    -0.267 N  
DOCKED: ATOM     12  C   UNL     1     142.652  73.322 220.845 -0.26 -0.01    +0.048 A  
DOCKED: ATOM     13  C   UNL     1     143.535  75.697 219.724 -0.37 -0.06    +0.096 A  
DOCKED: ATOM     14  C   UNL     1     143.872  73.355 220.176 -0.36 -0.00    +0.005 A  
DOCKED: ATOM     15  C   UNL     1     144.318  74.546 219.612 -0.32 -0.01    +0.019 A  
DOCKED: ATOM     16  H   UNL     1     138.447  74.535 222.786 -0.54 -0.08    +0.170 HD 
DOCKED: ATOM     17  O   UNL     1     141.957  77.893 219.985 -0.20 +0.17    -0.268 OA 
DOCKED: BRANCH   3  18
DOCKED: ATOM     18  N   UNL     1     136.776  76.400 223.159 -0.16 +0.06    -0.284 NA 
DOCKED: ATOM     19  H   UNL     1     136.301  77.196 223.642 +0.05 -0.03    +0.189 HD 
DOCKED: ENDBRANCH   3  18
DOCKED: ENDBRANCH   1   2
DOCKED: BRANCH   1  20
DOCKED: ATOM     20  N   UNL     1     138.006  80.187 222.165 -0.08 +0.04    -0.243 NA 
DOCKED: BRANCH  20  21
DOCKED: ATOM     21  C   UNL     1     138.763  80.833 223.244 -0.28 -0.02    +0.136 C  
DOCKED: ATOM     22  C   UNL     1     138.076  80.601 224.599 -0.36 -0.00    +0.038 C  
DOCKED: BRANCH  21  23
DOCKED: ATOM     23  C   UNL     1     140.245  80.487 223.171 -0.41 +0.00    -0.024 A  
DOCKED: ATOM     24  C   UNL     1     140.707  79.360 223.876 -0.50 -0.00    +0.006 A  
DOCKED: ATOM     25  C   UNL     1     141.168  81.224 222.397 -0.44 -0.00    +0.006 A  
DOCKED: ATOM     26  C   UNL     1     142.055  78.992 223.829 -0.58 -0.00    +0.000 A  
DOCKED: ATOM     27  C   UNL     1     142.515  80.851 222.356 -0.52 -0.00    +0.000 A  
DOCKED: ATOM     28  C   UNL     1     142.959  79.738 223.071 -0.62 -0.00    +0.000 A  
DOCKED: ENDBRANCH  21  23
DOCKED: ENDBRANCH  20  21
DOCKED: ENDBRANCH   1  20
DOCKED: BRANCH   1  29
DOCKED: ATOM     29  O   UNL     1     136.051  78.864 222.297 -0.02 +0.07    -0.493 OA 
DOCKED: ATOM     30  H   UNL     1     135.571  77.977 222.293 +0.05 -0.04    +0.295 HD 
DOCKED: ENDBRANCH   1  29
DOCKED: TORSDOF 6
DOCKED: TER
DOCKED: ENDMDL
________________________________________________________________________________


    FINAL DOCKED STATE:
    ________________________


Run:   19 / 20
Time taken for this run:   0.029s

DOCKED: MODEL        19
DOCKED: USER    Run = 19
DOCKED: USER
DOCKED: USER    Estimated Free Energy of Binding    =  -6.60 kcal/mol  [=(1)+(2)+(3)-(4)]
DOCKED: USER
DOCKED: USER    (1) Final Intermolecular Energy     =  -8.39 kcal/mol
DOCKED: USER        vdW + Hbond + desolv Energy     =  -8.41 kcal/mol
DOCKED: USER        Electrostatic Energy            =  +0.02 kcal/mol
DOCKED: USER        Moving Ligand-Fixed Receptor    =  -8.39 kcal/mol
DOCKED: USER        Moving Ligand-Moving Receptor   =  +0.00 kcal/mol
DOCKED: USER    (2) Final Total Internal Energy     =  -2.25 kcal/mol
DOCKED: USER    (3) Torsional Free Energy           =  +1.79 kcal/mol
DOCKED: USER    (4) Unbound System's Energy         =  -2.25 kcal/mol
DOCKED: USER
DOCKED: USER
DOCKED: REMARK SMILES [H]/N=c1\[nH]c2nc3ccccn3c(=O)c2cc1/C(O)=N/[C@@H](C)c1ccccc1
DOCKED: REMARK SMILES IDX 18 1 17 2 3 3 4 4 16 5 5 6 15 7 6 8 13 9 7 10 12 11 8 12
DOCKED: REMARK SMILES IDX 11 13 9 14 10 15 14 17 2 18 1 19 20 20 21 21 22 22 23 23
DOCKED: REMARK SMILES IDX 24 24 28 25 25 26 27 27 26 28 19 29
DOCKED: REMARK H PARENT 4 16 19 30
DOCKED: USER                              x       y       z     vdW  Elec       q    Type
DOCKED: USER                           _______ _______ _______ _____ _____    ______ ____
DOCKED: ROOT
DOCKED: ATOM      1  C   UNL     1     137.433  79.005 222.236 -0.12 -0.03    +0.218 C  
DOCKED: ENDROOT
DOCKED: BRANCH   1   2
DOCKED: ATOM      2  C   UNL     1     138.278  77.788 222.068 -0.20 -0.01    +0.079 A  
DOCKED: ATOM      3  C   UNL     1     137.895  76.526 222.586 -0.24 -0.03    +0.136 A  
DOCKED: ATOM      4  N   UNL     1     138.714  75.444 222.420 -0.14 +0.08    -0.324 N  
DOCKED: ATOM      5  C   UNL     1     139.502  77.883 221.381 -0.19 -0.01    +0.035 A  
DOCKED: ATOM      6  C   UNL     1     139.900  75.532 221.760 -0.27 -0.03    +0.146 A  
DOCKED: ATOM      7  C   UNL     1     140.321  76.755 221.222 -0.24 -0.03    +0.084 A  
DOCKED: ATOM      8  N   UNL     1     140.679  74.432 221.618 -0.55 +0.03    -0.212 NA 
DOCKED: ATOM      9  C   UNL     1     141.554  76.805 220.546 -0.17 -0.14    +0.267 A  
DOCKED: ATOM     10  C   UNL     1     141.868  74.482 220.966 -0.22 -0.04    +0.142 A  
DOCKED: ATOM     11  N   UNL     1     142.317  75.667 220.423 -0.16 +0.14    -0.267 N  
DOCKED: ATOM     12  C   UNL     1     142.629  73.314 220.852 -0.25 -0.01    +0.048 A  
DOCKED: ATOM     13  C   UNL     1     143.523  75.701 219.765 -0.35 -0.06    +0.096 A  
DOCKED: ATOM     14  C   UNL     1     143.850  73.351 220.184 -0.36 -0.00    +0.005 A  
DOCKED: ATOM     15  C   UNL     1     144.301  74.548 219.637 -0.33 -0.01    +0.019 A  
DOCKED: ATOM     16  H   UNL     1     138.427  74.516 222.806 -0.54 -0.09    +0.170 HD 
DOCKED: ATOM     17  O   UNL     1     141.953  77.899 220.055 -0.20 +0.17    -0.268 OA 
DOCKED: BRANCH   3  18
DOCKED: ATOM     18  N   UNL     1     136.764  76.383 223.204 -0.15 +0.06    -0.284 NA 
DOCKED: ATOM     19  H   UNL     1     136.323  77.155 223.753 +0.06 -0.03    +0.189 HD 
DOCKED: ENDBRANCH   3  18
DOCKED: ENDBRANCH   1   2
DOCKED: BRANCH   1  20
DOCKED: ATOM     20  N   UNL     1     137.999  80.181 222.185 -0.08 +0.04    -0.243 NA 
DOCKED: BRANCH  20  21
DOCKED: ATOM     21  C   UNL     1     138.763  80.881 223.226 -0.28 -0.02    +0.136 C  
DOCKED: ATOM     22  C   UNL     1     138.085  80.719 224.595 -0.37 -0.00    +0.038 C  
DOCKED: BRANCH  21  23
DOCKED: ATOM     23  C   UNL     1     140.245  80.531 223.162 -0.41 +0.00    -0.024 A  
DOCKED: ATOM     24  C   UNL     1     140.703  79.413 223.884 -0.50 -0.00    +0.006 A  
DOCKED: ATOM     25  C   UNL     1     141.172  81.255 222.379 -0.44 -0.00    +0.006 A  
DOCKED: ATOM     26  C   UNL     1     142.050  79.042 223.846 -0.58 -0.00    +0.000 A  
DOCKED: ATOM     27  C   UNL     1     142.517  80.879 222.347 -0.51 -0.00    +0.000 A  
DOCKED: ATOM     28  C   UNL     1     142.957  79.775 223.079 -0.63 -0.00    +0.000 A  
DOCKED: ENDBRANCH  21  23
DOCKED: ENDBRANCH  20  21
DOCKED: ENDBRANCH   1  20
DOCKED: BRANCH   1  29
DOCKED: ATOM     29  O   UNL     1     136.060  78.857 222.459 -0.03 +0.07    -0.493 OA 
DOCKED: ATOM     30  H   UNL     1     135.564  77.982 222.384 +0.06 -0.04    +0.295 HD 
DOCKED: ENDBRANCH   1  29
DOCKED: TORSDOF 6
DOCKED: TER
DOCKED: ENDMDL
________________________________________________________________________________


    FINAL DOCKED STATE:
    ________________________


Run:   20 / 20
Time taken for this run:   0.029s

DOCKED: MODEL        20
DOCKED: USER    Run = 20
DOCKED: USER
DOCKED: USER    Estimated Free Energy of Binding    =  -6.57 kcal/mol  [=(1)+(2)+(3)-(4)]
DOCKED: USER
DOCKED: USER    (1) Final Intermolecular Energy     =  -8.36 kcal/mol
DOCKED: USER        vdW + Hbond + desolv Energy     =  -8.38 kcal/mol
DOCKED: USER        Electrostatic Energy            =  +0.01 kcal/mol
DOCKED: USER        Moving Ligand-Fixed Receptor    =  -8.36 kcal/mol
DOCKED: USER        Moving Ligand-Moving Receptor   =  +0.00 kcal/mol
DOCKED: USER    (2) Final Total Internal Energy     =  -2.26 kcal/mol
DOCKED: USER    (3) Torsional Free Energy           =  +1.79 kcal/mol
DOCKED: USER    (4) Unbound System's Energy         =  -2.26 kcal/mol
DOCKED: USER
DOCKED: USER
DOCKED: REMARK SMILES [H]/N=c1\[nH]c2nc3ccccn3c(=O)c2cc1/C(O)=N/[C@@H](C)c1ccccc1
DOCKED: REMARK SMILES IDX 18 1 17 2 3 3 4 4 16 5 5 6 15 7 6 8 13 9 7 10 12 11 8 12
DOCKED: REMARK SMILES IDX 11 13 9 14 10 15 14 17 2 18 1 19 20 20 21 21 22 22 23 23
DOCKED: REMARK SMILES IDX 24 24 28 25 25 26 27 27 26 28 19 29
DOCKED: REMARK H PARENT 4 16 19 30
DOCKED: USER                              x       y       z     vdW  Elec       q    Type
DOCKED: USER                           _______ _______ _______ _____ _____    ______ ____
DOCKED: ROOT
DOCKED: ATOM      1  C   UNL     1     137.416  78.998 222.255 -0.12 -0.03    +0.218 C  
DOCKED: ENDROOT
DOCKED: BRANCH   1   2
DOCKED: ATOM      2  C   UNL     1     138.264  77.783 222.097 -0.20 -0.01    +0.079 A  
DOCKED: ATOM      3  C   UNL     1     137.892  76.527 222.636 -0.25 -0.03    +0.136 A  
DOCKED: ATOM      4  N   UNL     1     138.715  75.447 222.479 -0.12 +0.08    -0.324 N  
DOCKED: ATOM      5  C   UNL     1     139.482  77.873 221.398 -0.19 -0.01    +0.035 A  
DOCKED: ATOM      6  C   UNL     1     139.895  75.530 221.806 -0.27 -0.03    +0.146 A  
DOCKED: ATOM      7  C   UNL     1     140.305  76.747 221.248 -0.24 -0.03    +0.084 A  
DOCKED: ATOM      8  N   UNL     1     140.677  74.432 221.674 -0.58 +0.02    -0.212 NA 
DOCKED: ATOM      9  C   UNL     1     141.532  76.793 220.560 -0.17 -0.14    +0.267 A  
DOCKED: ATOM     10  C   UNL     1     141.860  74.477 221.010 -0.21 -0.04    +0.142 A  
DOCKED: ATOM     11  N   UNL     1     142.299  75.657 220.447 -0.16 +0.13    -0.267 N  
DOCKED: ATOM     12  C   UNL     1     142.625  73.311 220.906 -0.22 -0.01    +0.048 A  
DOCKED: ATOM     13  C   UNL     1     143.499  75.686 219.777 -0.35 -0.06    +0.096 A  
DOCKED: ATOM     14  C   UNL     1     143.840  73.344 220.228 -0.36 -0.00    +0.005 A  
DOCKED: ATOM     15  C   UNL     1     144.281  74.535 219.660 -0.35 -0.01    +0.019 A  
DOCKED: ATOM     16  H   UNL     1     138.435  74.522 222.880 -0.54 -0.09    +0.170 HD 
DOCKED: ATOM     17  O   UNL     1     141.922  77.881 220.050 -0.20 +0.17    -0.268 OA 
DOCKED: BRANCH   3  18
DOCKED: ATOM     18  N   UNL     1     136.767  76.387 223.266 -0.14 +0.06    -0.284 NA 
DOCKED: ATOM     19  H   UNL     1     136.313  77.174 223.783 +0.06 -0.03    +0.189 HD 
DOCKED: ENDBRANCH   3  18
DOCKED: ENDBRANCH   1   2
DOCKED: BRANCH   1  20
DOCKED: ATOM     20  N   UNL     1     137.981  80.176 222.212 -0.08 +0.04    -0.243 NA 
DOCKED: BRANCH  20  21
DOCKED: ATOM     21  C   UNL     1     138.753  80.865 223.253 -0.28 -0.02    +0.136 C  
DOCKED: ATOM     22  C   UNL     1     138.080  80.696 224.625 -0.36 -0.00    +0.038 C  
DOCKED: BRANCH  21  23
DOCKED: ATOM     23  C   UNL     1     140.232  80.510 223.180 -0.41 +0.00    -0.024 A  
DOCKED: ATOM     24  C   UNL     1     140.692  79.393 223.902 -0.49 -0.00    +0.006 A  
DOCKED: ATOM     25  C   UNL     1     141.156  81.229 222.388 -0.44 -0.00    +0.006 A  
DOCKED: ATOM     26  C   UNL     1     142.038  79.017 223.855 -0.58 -0.00    +0.000 A  
DOCKED: ATOM     27  C   UNL     1     142.500  80.848 222.346 -0.52 -0.00    +0.000 A  
DOCKED: ATOM     28  C   UNL     1     142.941  79.745 223.079 -0.63 -0.00    +0.000 A  
DOCKED: ENDBRANCH  21  23
DOCKED: ENDBRANCH  20  21
DOCKED: ENDBRANCH   1  20
DOCKED: BRANCH   1  29
DOCKED: ATOM     29  O   UNL     1     136.040  78.849 222.460 -0.03 +0.07    -0.493 OA 
DOCKED: ATOM     30  H   UNL     1     135.554  77.966 222.425 +0.06 -0.04    +0.295 HD 
DOCKED: ENDBRANCH   1  29
DOCKED: TORSDOF 6
DOCKED: TER
DOCKED: ENDMDL
________________________________________________________________________________


    CLUSTERING HISTOGRAM
    ____________________


________________________________________________________________________________
     |           |     |           |     |
Clus | Lowest    | Run | Mean      | Num | Histogram
-ter | Binding   |     | Binding   | in  |
Rank | Energy    |     | Energy    | Clus|    5    10   15   20   25   30   35
_____|___________|_____|___________|_____|____:____|____:____|____:____|____:___
   1 |     -7.43 |   2 |     -7.42 |   3 |###
   2 |     -6.60 |  11 |     -6.58 |  17 |#################
_____|___________|_____|___________|_____|______________________________________


    RMSD TABLE
    __________


_______________________________________________________________________
     |      |      |           |         |                 |
Rank | Sub- | Run  | Binding   | Cluster | Reference       | Grep
     | Rank |      | Energy    | RMSD    | RMSD            | Pattern
_____|______|______|___________|_________|_________________|___________
   1      1      2       -7.43      0.00    268.25           RANKING
   1      2      4       -7.42      0.13    268.29           RANKING
   1      3     10       -7.40      0.09    268.24           RANKING
   2      1     11       -6.60      0.00    269.02           RANKING
   2      2     12       -6.60      0.05    269.04           RANKING
   2      3     19       -6.60      0.05    269.05           RANKING
   2      4      8       -6.60      0.06    269.06           RANKING
   2      5     13       -6.60      0.06    269.00           RANKING
   2      6      5       -6.59      0.06    269.03           RANKING
   2      7      6       -6.59      0.07    269.05           RANKING
   2      8     15       -6.58      0.07    269.03           RANKING
   2      9     17       -6.58      0.06    269.03           RANKING
   2     10      7       -6.58      0.08    269.02           RANKING
   2     11     14       -6.58      0.07    269.03           RANKING
   2     12     20       -6.57      0.06    269.06           RANKING
   2     13     18       -6.57      0.08    269.02           RANKING
   2     14     16       -6.57      0.08    269.01           RANKING
   2     15      9       -6.57      0.05    269.03           RANKING
   2     16      1       -6.57      0.06    269.04           RANKING
   2     17      3       -6.56      0.09    269.01           RANKING

Run time 0.566 sec
Idle time 0.000 sec
