AutoDock-GPU version: v1.6

**********************************************************
**    AutoDock-GPU AUTODOCKTOOLS-COMPATIBLE DLG FILE    **
**********************************************************


    DOCKING PARAMETERS
    ________________________


Ligand file:                               /home/a/REINVENT4/ReinventStudies/scoringData/graph-dock-h4r84i/graph-DockGPU/node-autodockgpu/inputs/QFPZKQQOUZJSQV-JVRHHQCGNA-N.pdbqt
Grid fld file:                             /home/a/REINVENT4/ReinventStudies/mols/Rad51/maps/rad51_receptor.maps.fld

Random seed:                               42
Number of runs:                            20
Number of energy evaluations:              2542121
Number of generations:                     42000
Size of population:                        150
Rate of crossover:                         80.000000%
Tournament selection probability limit:    60.000000%
Rate of mutation:                          2.000000%
Maximal allowed delta movement:            +/- 6.000000A
Maximal allowed delta angle:               +/- 90.000000

Rate of local search:                      100.000000%
Maximal number of local search iterations: 300
Rho lower bound:                           0.010000
Spread of local search delta movement:     2.000000A
Spread of local search delta angle:        74.999999
Limit of consecutive successes/failures:   4

Handle symmetry during clustering:         YES
RMSD tolerance:                            2.000000A

Program call in command line was:          /home/a/REINVENT4/ReinventStudies/adgpu-v1.6_linux_x64_cuda12_128wi --filelist batch.txt --heuristics 1 --nrun 20 --psize 150 --lsit 300 --seed 42 --heurmax 12000000 


    GRID PARAMETERS
    ________________________


Receptor name:                             rad51_receptor
Number of grid points (x, y, z):           53, 53, 53
Grid center (x, y, z):                     139.950000, 75.640000, 221.970000A
Grid size (x, y, z):                       19.500000, 19.500000, 19.500000A
Grid spacing:                              0.375000A


    LIGAND PARAMETERS
    ________________________


Ligand name:                               /home/a/REINVENT4/ReinventStudies/scoringData/graph-dock-h4r84i/graph-DockGPU/node-autodockgpu/inputs/QFPZKQQOUZJSQV-JVRHHQCGNA-N
Number of atoms:                           25
Number of rotatable bonds:                 10
Number of atom types:                      7


    DUMMY DATA (only for ADT-compatibility)
    ________________________


DPF> outlev 1
DPF> ga_run 20
DPF> fld /home/a/REINVENT4/ReinventStudies/mols/Rad51/maps/rad51_receptor.maps.fld
DPF> move /home/a/REINVENT4/ReinventStudies/scoringData/graph-dock-h4r84i/graph-DockGPU/node-autodockgpu/inputs/QFPZKQQOUZJSQV-JVRHHQCGNA-N.pdbqt


    COUNTER STATES
    ________________________


Number of energy evaluations performed:    931764
Number of generations used:                45


    INPUT LIGAND PDBQT FILE:
    ________________________


INPUT-LIGAND-PDBQT: REMARK SMILES O/C(=C\CCOc1ccc(Cl)cc1Cl)[N-]/N=C\c1cccnc1F
INPUT-LIGAND-PDBQT: REMARK SMILES IDX 2 1 1 2 15 4 16 5 17 6 18 7 23 8 19 9 22 10 20 11 21 12
INPUT-LIGAND-PDBQT: REMARK SMILES IDX 24 13 3 14 4 15 5 16 6 17 7 18 8 19 13 20 9 21 12 22 10 23
INPUT-LIGAND-PDBQT: REMARK SMILES IDX 14 24 11 25
INPUT-LIGAND-PDBQT: REMARK H PARENT 1 3
INPUT-LIGAND-PDBQT: ROOT
INPUT-LIGAND-PDBQT: ATOM      1  C   UNL     1      -2.349  -0.052   0.254  1.00  0.00     0.023 C 
INPUT-LIGAND-PDBQT: ENDROOT
INPUT-LIGAND-PDBQT: BRANCH   1   2
INPUT-LIGAND-PDBQT: ATOM      2  O   UNL     1      -3.551   0.636   0.065  1.00  0.00    -0.530 OA
INPUT-LIGAND-PDBQT: ATOM      3  H   UNL     1      -4.027   1.135   0.807  1.00  0.00     0.290 HD
INPUT-LIGAND-PDBQT: ENDBRANCH   1   2
INPUT-LIGAND-PDBQT: BRANCH   1   4
INPUT-LIGAND-PDBQT: ATOM      4  N   UNL     1      -1.776  -0.765  -0.839  1.00  0.00    -0.546 NA
INPUT-LIGAND-PDBQT: BRANCH   4   5
INPUT-LIGAND-PDBQT: ATOM      5  N   UNL     1      -2.373  -0.768  -2.106  1.00  0.00    -0.372 NA
INPUT-LIGAND-PDBQT: BRANCH   5   6
INPUT-LIGAND-PDBQT: ATOM      6  C   UNL     1      -1.822  -1.334  -3.138  1.00  0.00     0.099 C 
INPUT-LIGAND-PDBQT: BRANCH   6   7
INPUT-LIGAND-PDBQT: ATOM      7  C   UNL     1      -0.494  -1.991  -3.099  1.00  0.00     0.046 A 
INPUT-LIGAND-PDBQT: ATOM      8  C   UNL     1      -0.288  -3.188  -3.805  1.00  0.00     0.221 A 
INPUT-LIGAND-PDBQT: ATOM      9  C   UNL     1       0.598  -1.414  -2.426  1.00  0.00     0.016 A 
INPUT-LIGAND-PDBQT: ATOM     10  N   UNL     1       0.933  -3.788  -3.792  1.00  0.00    -0.228 NA
INPUT-LIGAND-PDBQT: ATOM     11  C   UNL     1       1.839  -2.053  -2.429  1.00  0.00     0.021 A 
INPUT-LIGAND-PDBQT: ATOM     12  C   UNL     1       1.988  -3.255  -3.122  1.00  0.00     0.114 A 
INPUT-LIGAND-PDBQT: ATOM     13  F   UNL     1      -1.304  -3.769  -4.490  1.00  0.00    -0.184 F 
INPUT-LIGAND-PDBQT: ENDBRANCH   6   7
INPUT-LIGAND-PDBQT: ENDBRANCH   5   6
INPUT-LIGAND-PDBQT: ENDBRANCH   4   5
INPUT-LIGAND-PDBQT: ENDBRANCH   1   4
INPUT-LIGAND-PDBQT: BRANCH   1  14
INPUT-LIGAND-PDBQT: ATOM     14  C   UNL     1      -1.703  -0.058   1.426  1.00  0.00    -0.001 C 
INPUT-LIGAND-PDBQT: BRANCH  14  15
INPUT-LIGAND-PDBQT: ATOM     15  C   UNL     1      -2.158   0.720   2.629  1.00  0.00     0.071 C 
INPUT-LIGAND-PDBQT: BRANCH  15  16
INPUT-LIGAND-PDBQT: ATOM     16  C   UNL     1      -1.104   0.735   3.743  1.00  0.00     0.234 C 
INPUT-LIGAND-PDBQT: BRANCH  16  17
INPUT-LIGAND-PDBQT: ATOM     17  O   UNL     1      -0.026   1.615   3.408  1.00  0.00    -0.492 OA
INPUT-LIGAND-PDBQT: BRANCH  17  18
INPUT-LIGAND-PDBQT: ATOM     18  C   UNL     1       1.048   1.301   2.560  1.00  0.00     0.137 A 
INPUT-LIGAND-PDBQT: ATOM     19  C   UNL     1       1.596   0.006   2.494  1.00  0.00     0.049 A 
INPUT-LIGAND-PDBQT: ATOM     20  C   UNL     1       1.604   2.320   1.769  1.00  0.00     0.084 A 
INPUT-LIGAND-PDBQT: ATOM     21  C   UNL     1       2.650  -0.271   1.618  1.00  0.00     0.024 A 
INPUT-LIGAND-PDBQT: ATOM     22  C   UNL     1       2.660   2.038   0.895  1.00  0.00     0.045 A 
INPUT-LIGAND-PDBQT: ATOM     23  C   UNL     1       3.179   0.743   0.815  1.00  0.00     0.042 A 
INPUT-LIGAND-PDBQT: ATOM     24  Cl  UNL     1       0.957   3.952   1.837  1.00  0.00    -0.080 Cl
INPUT-LIGAND-PDBQT: ATOM     25  Cl  UNL     1       4.499   0.393  -0.286  1.00  0.00    -0.084 Cl
INPUT-LIGAND-PDBQT: ENDBRANCH  17  18
INPUT-LIGAND-PDBQT: ENDBRANCH  16  17
INPUT-LIGAND-PDBQT: ENDBRANCH  15  16
INPUT-LIGAND-PDBQT: ENDBRANCH  14  15
INPUT-LIGAND-PDBQT: ENDBRANCH   1  14
INPUT-LIGAND-PDBQT: TORSDOF 10


    FINAL DOCKED STATE:
    ________________________


Run:   1 / 20
Time taken for this run:   0.036s

DOCKED: MODEL        1
DOCKED: USER    Run = 1
DOCKED: USER
DOCKED: USER    Estimated Free Energy of Binding    =  -6.05 kcal/mol  [=(1)+(2)+(3)-(4)]
DOCKED: USER
DOCKED: USER    (1) Final Intermolecular Energy     =  -9.03 kcal/mol
DOCKED: USER        vdW + Hbond + desolv Energy     =  -9.22 kcal/mol
DOCKED: USER        Electrostatic Energy            =  +0.19 kcal/mol
DOCKED: USER        Moving Ligand-Fixed Receptor    =  -9.03 kcal/mol
DOCKED: USER        Moving Ligand-Moving Receptor   =  +0.00 kcal/mol
DOCKED: USER    (2) Final Total Internal Energy     =  -0.57 kcal/mol
DOCKED: USER    (3) Torsional Free Energy           =  +2.98 kcal/mol
DOCKED: USER    (4) Unbound System's Energy         =  -0.57 kcal/mol
DOCKED: USER
DOCKED: USER
DOCKED: REMARK SMILES O/C(=C\CCOc1ccc(Cl)cc1Cl)[N-]/N=C\c1cccnc1F
DOCKED: REMARK SMILES IDX 2 1 1 2 15 4 16 5 17 6 18 7 23 8 19 9 22 10 20 11 21 12
DOCKED: REMARK SMILES IDX 24 13 3 14 4 15 5 16 6 17 7 18 8 19 13 20 9 21 12 22 10 23
DOCKED: REMARK SMILES IDX 14 24 11 25
DOCKED: REMARK H PARENT 1 3
DOCKED: USER                              x       y       z     vdW  Elec       q    Type
DOCKED: USER                           _______ _______ _______ _____ _____    ______ ____
DOCKED: ROOT
DOCKED: ATOM      1  C   UNL     1     141.410  74.349 221.280 -0.26 -0.00    +0.023 C  
DOCKED: ENDROOT
DOCKED: BRANCH   1   2
DOCKED: ATOM      2  O   UNL     1     142.584  74.841 220.702 -0.10 +0.21    -0.530 OA 
DOCKED: ATOM      3  H   UNL     1     142.950  75.767 220.891 -0.29 -0.22    +0.290 HD 
DOCKED: ENDBRANCH   1   2
DOCKED: BRANCH   1   4
DOCKED: ATOM      4  N   UNL     1     140.550  75.245 221.979 -0.43 +0.08    -0.546 NA 
DOCKED: BRANCH   4   5
DOCKED: ATOM      5  N   UNL     1     140.661  76.634 221.831 -0.17 +0.12    -0.372 NA 
DOCKED: BRANCH   5   6
DOCKED: ATOM      6  C   UNL     1     140.202  77.471 222.712 -0.27 -0.02    +0.099 C  
DOCKED: BRANCH   6   7
DOCKED: ATOM      7  C   UNL     1     140.834  78.779 223.005 -0.46 -0.01    +0.046 A  
DOCKED: ATOM      8  C   UNL     1     140.064  79.816 223.558 -0.31 -0.04    +0.221 A  
DOCKED: ATOM      9  C   UNL     1     142.209  78.997 222.809 -0.53 -0.01    +0.016 A  
DOCKED: ATOM     10  N   UNL     1     140.639  81.014 223.849 -0.24 +0.03    -0.228 NA 
DOCKED: ATOM     11  C   UNL     1     142.772  80.237 223.116 -0.65 -0.01    +0.021 A  
DOCKED: ATOM     12  C   UNL     1     141.961  81.246 223.638 -0.52 -0.02    +0.114 A  
DOCKED: ATOM     13  F   UNL     1     138.739  79.644 223.789 -0.13 +0.02    -0.184 F  
DOCKED: ENDBRANCH   6   7
DOCKED: ENDBRANCH   5   6
DOCKED: ENDBRANCH   4   5
DOCKED: ENDBRANCH   1   4
DOCKED: BRANCH   1  14
DOCKED: ATOM     14  C   UNL     1     141.053  73.062 221.193 -0.27 +0.00    -0.001 C  
DOCKED: BRANCH  14  15
DOCKED: ATOM     15  C   UNL     1     141.054  72.119 222.364 -0.19 -0.00    +0.071 C  
DOCKED: BRANCH  15  16
DOCKED: ATOM     16  C   UNL     1     139.684  71.468 222.586 -0.20 -0.04    +0.234 C  
DOCKED: BRANCH  16  17
DOCKED: ATOM     17  O   UNL     1     139.253  71.644 223.939 -0.11 +0.14    -0.492 OA 
DOCKED: BRANCH  17  18
DOCKED: ATOM     18  C   UNL     1     139.710  70.905 225.042 -0.37 -0.03    +0.137 A  
DOCKED: ATOM     19  C   UNL     1     140.620  71.437 225.975 -0.58 -0.01    +0.049 A  
DOCKED: ATOM     20  C   UNL     1     139.257  69.585 225.205 -0.35 -0.01    +0.084 A  
DOCKED: ATOM     21  C   UNL     1     141.031  70.676 227.073 -0.62 -0.00    +0.024 A  
DOCKED: ATOM     22  C   UNL     1     139.673  68.827 226.305 -0.51 -0.01    +0.045 A  
DOCKED: ATOM     23  C   UNL     1     140.554  69.373 227.242 -0.57 -0.01    +0.042 A  
DOCKED: ATOM     24  Cl  UNL     1     138.133  68.882 224.052 -0.37 +0.01    -0.080 Cl 
DOCKED: ATOM     25  Cl  UNL     1     141.069  68.421 228.622 -0.72 +0.02    -0.084 Cl 
DOCKED: ENDBRANCH  17  18
DOCKED: ENDBRANCH  16  17
DOCKED: ENDBRANCH  15  16
DOCKED: ENDBRANCH  14  15
DOCKED: ENDBRANCH   1  14
DOCKED: TORSDOF 10
DOCKED: TER
DOCKED: ENDMDL
________________________________________________________________________________


    FINAL DOCKED STATE:
    ________________________


Run:   2 / 20
Time taken for this run:   0.036s

DOCKED: MODEL        2
DOCKED: USER    Run = 2
DOCKED: USER
DOCKED: USER    Estimated Free Energy of Binding    =  -5.99 kcal/mol  [=(1)+(2)+(3)-(4)]
DOCKED: USER
DOCKED: USER    (1) Final Intermolecular Energy     =  -8.97 kcal/mol
DOCKED: USER        vdW + Hbond + desolv Energy     =  -9.05 kcal/mol
DOCKED: USER        Electrostatic Energy            =  +0.08 kcal/mol
DOCKED: USER        Moving Ligand-Fixed Receptor    =  -8.97 kcal/mol
DOCKED: USER        Moving Ligand-Moving Receptor   =  +0.00 kcal/mol
DOCKED: USER    (2) Final Total Internal Energy     =  -1.05 kcal/mol
DOCKED: USER    (3) Torsional Free Energy           =  +2.98 kcal/mol
DOCKED: USER    (4) Unbound System's Energy         =  -1.05 kcal/mol
DOCKED: USER
DOCKED: USER
DOCKED: REMARK SMILES O/C(=C\CCOc1ccc(Cl)cc1Cl)[N-]/N=C\c1cccnc1F
DOCKED: REMARK SMILES IDX 2 1 1 2 15 4 16 5 17 6 18 7 23 8 19 9 22 10 20 11 21 12
DOCKED: REMARK SMILES IDX 24 13 3 14 4 15 5 16 6 17 7 18 8 19 13 20 9 21 12 22 10 23
DOCKED: REMARK SMILES IDX 14 24 11 25
DOCKED: REMARK H PARENT 1 3
DOCKED: USER                              x       y       z     vdW  Elec       q    Type
DOCKED: USER                           _______ _______ _______ _____ _____    ______ ____
DOCKED: ROOT
DOCKED: ATOM      1  C   UNL     1     140.649  72.829 221.971 -0.30 -0.00    +0.023 C  
DOCKED: ENDROOT
DOCKED: BRANCH   1   2
DOCKED: ATOM      2  O   UNL     1     139.911  73.950 222.361 -0.72 +0.03    -0.530 OA 
DOCKED: ATOM      3  H   UNL     1     139.939  74.833 221.864 +0.08 -0.04    +0.290 HD 
DOCKED: ENDBRANCH   1   2
DOCKED: BRANCH   1   4
DOCKED: ATOM      4  N   UNL     1     140.480  71.604 222.680 -0.08 +0.06    -0.546 NA 
DOCKED: BRANCH   4   5
DOCKED: ATOM      5  N   UNL     1     139.944  71.573 223.974 -0.19 +0.07    -0.372 NA 
DOCKED: BRANCH   5   6
DOCKED: ATOM      6  C   UNL     1     140.687  71.517 225.038 -0.45 -0.01    +0.099 C  
DOCKED: BRANCH   6   7
DOCKED: ATOM      7  C   UNL     1     140.571  70.452 226.062 -0.53 -0.01    +0.046 A  
DOCKED: ATOM      8  C   UNL     1     140.685  70.778 227.423 -0.48 -0.04    +0.221 A  
DOCKED: ATOM      9  C   UNL     1     140.280  69.120 225.715 -0.47 -0.00    +0.016 A  
DOCKED: ATOM     10  N   UNL     1     140.560  69.810 228.371 -0.34 +0.04    -0.228 NA 
DOCKED: ATOM     11  C   UNL     1     140.159  68.148 226.709 -0.64 -0.00    +0.021 A  
DOCKED: ATOM     12  C   UNL     1     140.308  68.516 228.047 -0.56 -0.02    +0.114 A  
DOCKED: ATOM     13  F   UNL     1     140.940  72.053 227.809 -0.31 +0.04    -0.184 F  
DOCKED: ENDBRANCH   6   7
DOCKED: ENDBRANCH   5   6
DOCKED: ENDBRANCH   4   5
DOCKED: ENDBRANCH   1   4
DOCKED: BRANCH   1  14
DOCKED: ATOM     14  C   UNL     1     141.506  72.856 220.944 -0.25 +0.00    -0.001 C  
DOCKED: BRANCH  14  15
DOCKED: ATOM     15  C   UNL     1     141.525  73.945 219.908 -0.15 -0.02    +0.071 C  
DOCKED: BRANCH  15  16
DOCKED: ATOM     16  C   UNL     1     142.142  75.244 220.442 -0.20 -0.10    +0.234 C  
DOCKED: BRANCH  16  17
DOCKED: ATOM     17  O   UNL     1     141.119  76.173 220.815 -0.08 +0.19    -0.492 OA 
DOCKED: BRANCH  17  18
DOCKED: ATOM     18  C   UNL     1     141.321  77.358 221.542 -0.23 -0.07    +0.137 A  
DOCKED: ATOM     19  C   UNL     1     141.086  77.434 222.928 -0.35 -0.02    +0.049 A  
DOCKED: ATOM     20  C   UNL     1     141.750  78.506 220.857 -0.29 -0.05    +0.084 A  
DOCKED: ATOM     21  C   UNL     1     141.322  78.626 223.619 -0.53 -0.01    +0.024 A  
DOCKED: ATOM     22  C   UNL     1     141.984  79.697 221.553 -0.39 -0.02    +0.045 A  
DOCKED: ATOM     23  C   UNL     1     141.776  79.756 222.933 -0.54 -0.01    +0.042 A  
DOCKED: ATOM     24  Cl  UNL     1     142.037  78.452 219.124 -0.32 +0.05    -0.080 Cl 
DOCKED: ATOM     25  Cl  UNL     1     142.075  81.250 223.803 -0.73 +0.01    -0.084 Cl 
DOCKED: ENDBRANCH  17  18
DOCKED: ENDBRANCH  16  17
DOCKED: ENDBRANCH  15  16
DOCKED: ENDBRANCH  14  15
DOCKED: ENDBRANCH   1  14
DOCKED: TORSDOF 10
DOCKED: TER
DOCKED: ENDMDL
________________________________________________________________________________


    FINAL DOCKED STATE:
    ________________________


Run:   3 / 20
Time taken for this run:   0.036s

DOCKED: MODEL        3
DOCKED: USER    Run = 3
DOCKED: USER
DOCKED: USER    Estimated Free Energy of Binding    =  -5.96 kcal/mol  [=(1)+(2)+(3)-(4)]
DOCKED: USER
DOCKED: USER    (1) Final Intermolecular Energy     =  -8.95 kcal/mol
DOCKED: USER        vdW + Hbond + desolv Energy     =  -8.97 kcal/mol
DOCKED: USER        Electrostatic Energy            =  +0.03 kcal/mol
DOCKED: USER        Moving Ligand-Fixed Receptor    =  -8.95 kcal/mol
DOCKED: USER        Moving Ligand-Moving Receptor   =  +0.00 kcal/mol
DOCKED: USER    (2) Final Total Internal Energy     =  -0.91 kcal/mol
DOCKED: USER    (3) Torsional Free Energy           =  +2.98 kcal/mol
DOCKED: USER    (4) Unbound System's Energy         =  -0.91 kcal/mol
DOCKED: USER
DOCKED: USER
DOCKED: REMARK SMILES O/C(=C\CCOc1ccc(Cl)cc1Cl)[N-]/N=C\c1cccnc1F
DOCKED: REMARK SMILES IDX 2 1 1 2 15 4 16 5 17 6 18 7 23 8 19 9 22 10 20 11 21 12
DOCKED: REMARK SMILES IDX 24 13 3 14 4 15 5 16 6 17 7 18 8 19 13 20 9 21 12 22 10 23
DOCKED: REMARK SMILES IDX 14 24 11 25
DOCKED: REMARK H PARENT 1 3
DOCKED: USER                              x       y       z     vdW  Elec       q    Type
DOCKED: USER                           _______ _______ _______ _____ _____    ______ ____
DOCKED: ROOT
DOCKED: ATOM      1  C   UNL     1     138.942  68.746 223.473 -0.25 -0.00    +0.023 C  
DOCKED: ENDROOT
DOCKED: BRANCH   1   2
DOCKED: ATOM      2  O   UNL     1     138.758  67.702 222.561 -0.09 +0.09    -0.530 OA 
DOCKED: ATOM      3  H   UNL     1     139.193  66.793 222.664 +0.03 -0.06    +0.290 HD 
DOCKED: ENDBRANCH   1   2
DOCKED: BRANCH   1   4
DOCKED: ATOM      4  N   UNL     1     138.487  68.587 224.814 -0.22 +0.03    -0.546 NA 
DOCKED: BRANCH   4   5
DOCKED: ATOM      5  N   UNL     1     139.148  67.746 225.718 -0.71 +0.00    -0.372 NA 
DOCKED: BRANCH   5   6
DOCKED: ATOM      6  C   UNL     1     140.179  68.134 226.408 -0.57 -0.02    +0.099 C  
DOCKED: BRANCH   6   7
DOCKED: ATOM      7  C   UNL     1     140.433  69.547 226.776 -0.52 -0.01    +0.046 A  
DOCKED: ATOM      8  C   UNL     1     139.956  70.045 228.000 -0.44 -0.04    +0.221 A  
DOCKED: ATOM      9  C   UNL     1     141.203  70.396 225.962 -0.55 -0.00    +0.016 A  
DOCKED: ATOM     10  N   UNL     1     140.202  71.334 228.356 -0.45 +0.05    -0.228 NA 
DOCKED: ATOM     11  C   UNL     1     141.438  71.716 226.352 -0.66 -0.00    +0.021 A  
DOCKED: ATOM     12  C   UNL     1     140.921  72.173 227.564 -0.70 -0.03    +0.114 A  
DOCKED: ATOM     13  F   UNL     1     139.231  69.255 228.831 -0.16 +0.02    -0.184 F  
DOCKED: ENDBRANCH   6   7
DOCKED: ENDBRANCH   5   6
DOCKED: ENDBRANCH   4   5
DOCKED: ENDBRANCH   1   4
DOCKED: BRANCH   1  14
DOCKED: ATOM     14  C   UNL     1     139.545  69.893 223.137 -0.22 +0.00    -0.001 C  
DOCKED: BRANCH  14  15
DOCKED: ATOM     15  C   UNL     1     139.101  71.240 223.633 -0.29 -0.02    +0.071 C  
DOCKED: BRANCH  15  16
DOCKED: ATOM     16  C   UNL     1     138.662  72.164 222.491 -0.12 -0.06    +0.234 C  
DOCKED: BRANCH  16  17
DOCKED: ATOM     17  O   UNL     1     139.542  73.287 222.381 -0.53 +0.09    -0.492 OA 
DOCKED: BRANCH  17  18
DOCKED: ATOM     18  C   UNL     1     140.804  73.276 221.766 -0.24 -0.01    +0.137 A  
DOCKED: ATOM     19  C   UNL     1     141.506  72.081 221.519 -0.23 -0.00    +0.049 A  
DOCKED: ATOM     20  C   UNL     1     141.391  74.500 221.406 -0.23 -0.01    +0.084 A  
DOCKED: ATOM     21  C   UNL     1     142.751  72.111 220.882 -0.25 -0.00    +0.024 A  
DOCKED: ATOM     22  C   UNL     1     142.637  74.526 220.770 -0.27 -0.02    +0.045 A  
DOCKED: ATOM     23  C   UNL     1     143.314  73.333 220.503 -0.31 -0.01    +0.042 A  
DOCKED: ATOM     24  Cl  UNL     1     140.551  76.013 221.712 -0.45 +0.02    -0.080 Cl 
DOCKED: ATOM     25  Cl  UNL     1     144.874  73.369 219.701 -0.55 +0.01    -0.084 Cl 
DOCKED: ENDBRANCH  17  18
DOCKED: ENDBRANCH  16  17
DOCKED: ENDBRANCH  15  16
DOCKED: ENDBRANCH  14  15
DOCKED: ENDBRANCH   1  14
DOCKED: TORSDOF 10
DOCKED: TER
DOCKED: ENDMDL
________________________________________________________________________________


    FINAL DOCKED STATE:
    ________________________


Run:   4 / 20
Time taken for this run:   0.036s

DOCKED: MODEL        4
DOCKED: USER    Run = 4
DOCKED: USER
DOCKED: USER    Estimated Free Energy of Binding    =  -6.25 kcal/mol  [=(1)+(2)+(3)-(4)]
DOCKED: USER
DOCKED: USER    (1) Final Intermolecular Energy     =  -9.23 kcal/mol
DOCKED: USER        vdW + Hbond + desolv Energy     =  -9.25 kcal/mol
DOCKED: USER        Electrostatic Energy            =  +0.02 kcal/mol
DOCKED: USER        Moving Ligand-Fixed Receptor    =  -9.23 kcal/mol
DOCKED: USER        Moving Ligand-Moving Receptor   =  +0.00 kcal/mol
DOCKED: USER    (2) Final Total Internal Energy     =  -0.59 kcal/mol
DOCKED: USER    (3) Torsional Free Energy           =  +2.98 kcal/mol
DOCKED: USER    (4) Unbound System's Energy         =  -0.59 kcal/mol
DOCKED: USER
DOCKED: USER
DOCKED: REMARK SMILES O/C(=C\CCOc1ccc(Cl)cc1Cl)[N-]/N=C\c1cccnc1F
DOCKED: REMARK SMILES IDX 2 1 1 2 15 4 16 5 17 6 18 7 23 8 19 9 22 10 20 11 21 12
DOCKED: REMARK SMILES IDX 24 13 3 14 4 15 5 16 6 17 7 18 8 19 13 20 9 21 12 22 10 23
DOCKED: REMARK SMILES IDX 14 24 11 25
DOCKED: REMARK H PARENT 1 3
DOCKED: USER                              x       y       z     vdW  Elec       q    Type
DOCKED: USER                           _______ _______ _______ _____ _____    ______ ____
DOCKED: ROOT
DOCKED: ATOM      1  C   UNL     1     140.125  73.342 221.637 -0.27 -0.00    +0.023 C  
DOCKED: ENDROOT
DOCKED: BRANCH   1   2
DOCKED: ATOM      2  O   UNL     1     139.718  74.476 222.346 -0.67 +0.05    -0.530 OA 
DOCKED: ATOM      3  H   UNL     1     139.308  74.433 223.272 -0.44 -0.09    +0.290 HD 
DOCKED: ENDBRANCH   1   2
DOCKED: BRANCH   1   4
DOCKED: ATOM      4  N   UNL     1     140.201  72.089 222.312 -0.11 +0.07    -0.546 NA 
DOCKED: BRANCH   4   5
DOCKED: ATOM      5  N   UNL     1     140.377  72.013 223.699 -0.21 +0.05    -0.372 NA 
DOCKED: BRANCH   5   6
DOCKED: ATOM      6  C   UNL     1     139.733  71.162 224.441 -0.38 -0.02    +0.099 C  
DOCKED: BRANCH   6   7
DOCKED: ATOM      7  C   UNL     1     140.161  70.780 225.807 -0.51 -0.01    +0.046 A  
DOCKED: ATOM      8  C   UNL     1     140.130  69.430 226.194 -0.34 -0.04    +0.221 A  
DOCKED: ATOM      9  C   UNL     1     140.666  71.726 226.717 -0.68 -0.00    +0.016 A  
DOCKED: ATOM     10  N   UNL     1     140.540  69.066 227.440 -0.36 +0.04    -0.228 NA 
DOCKED: ATOM     11  C   UNL     1     141.078  71.324 227.989 -0.76 -0.00    +0.021 A  
DOCKED: ATOM     12  C   UNL     1     141.003  69.974 228.337 -0.46 -0.02    +0.114 A  
DOCKED: ATOM     13  F   UNL     1     139.675  68.477 225.342 -0.12 +0.03    -0.184 F  
DOCKED: ENDBRANCH   6   7
DOCKED: ENDBRANCH   5   6
DOCKED: ENDBRANCH   4   5
DOCKED: ENDBRANCH   1   4
DOCKED: BRANCH   1  14
DOCKED: ATOM     14  C   UNL     1     140.438  73.385 220.336 -0.15 +0.00    -0.001 C  
DOCKED: BRANCH  14  15
DOCKED: ATOM     15  C   UNL     1     141.789  73.794 219.820 -0.16 -0.02    +0.071 C  
DOCKED: BRANCH  15  16
DOCKED: ATOM     16  C   UNL     1     142.317  75.057 220.512 -0.19 -0.09    +0.234 C  
DOCKED: BRANCH  16  17
DOCKED: ATOM     17  O   UNL     1     141.278  76.033 220.645 -0.08 +0.20    -0.492 OA 
DOCKED: BRANCH  17  18
DOCKED: ATOM     18  C   UNL     1     141.383  77.244 221.347 -0.22 -0.07    +0.137 A  
DOCKED: ATOM     19  C   UNL     1     141.081  77.343 222.718 -0.40 -0.02    +0.049 A  
DOCKED: ATOM     20  C   UNL     1     141.784  78.396 220.650 -0.28 -0.05    +0.084 A  
DOCKED: ATOM     21  C   UNL     1     141.222  78.563 223.386 -0.52 -0.01    +0.024 A  
DOCKED: ATOM     22  C   UNL     1     141.923  79.615 221.323 -0.36 -0.02    +0.045 A  
DOCKED: ATOM     23  C   UNL     1     141.648  79.698 222.691 -0.50 -0.01    +0.042 A  
DOCKED: ATOM     24  Cl  UNL     1     142.155  78.314 218.935 -0.36 +0.05    -0.080 Cl 
DOCKED: ATOM     25  Cl  UNL     1     141.828  81.227 223.531 -0.72 +0.01    -0.084 Cl 
DOCKED: ENDBRANCH  17  18
DOCKED: ENDBRANCH  16  17
DOCKED: ENDBRANCH  15  16
DOCKED: ENDBRANCH  14  15
DOCKED: ENDBRANCH   1  14
DOCKED: TORSDOF 10
DOCKED: TER
DOCKED: ENDMDL
________________________________________________________________________________


    FINAL DOCKED STATE:
    ________________________


Run:   5 / 20
Time taken for this run:   0.036s

DOCKED: MODEL        5
DOCKED: USER    Run = 5
DOCKED: USER
DOCKED: USER    Estimated Free Energy of Binding    =  -5.39 kcal/mol  [=(1)+(2)+(3)-(4)]
DOCKED: USER
DOCKED: USER    (1) Final Intermolecular Energy     =  -8.37 kcal/mol
DOCKED: USER        vdW + Hbond + desolv Energy     =  -8.44 kcal/mol
DOCKED: USER        Electrostatic Energy            =  +0.07 kcal/mol
DOCKED: USER        Moving Ligand-Fixed Receptor    =  -8.37 kcal/mol
DOCKED: USER        Moving Ligand-Moving Receptor   =  +0.00 kcal/mol
DOCKED: USER    (2) Final Total Internal Energy     =  -0.70 kcal/mol
DOCKED: USER    (3) Torsional Free Energy           =  +2.98 kcal/mol
DOCKED: USER    (4) Unbound System's Energy         =  -0.70 kcal/mol
DOCKED: USER
DOCKED: USER
DOCKED: REMARK SMILES O/C(=C\CCOc1ccc(Cl)cc1Cl)[N-]/N=C\c1cccnc1F
DOCKED: REMARK SMILES IDX 2 1 1 2 15 4 16 5 17 6 18 7 23 8 19 9 22 10 20 11 21 12
DOCKED: REMARK SMILES IDX 24 13 3 14 4 15 5 16 6 17 7 18 8 19 13 20 9 21 12 22 10 23
DOCKED: REMARK SMILES IDX 14 24 11 25
DOCKED: REMARK H PARENT 1 3
DOCKED: USER                              x       y       z     vdW  Elec       q    Type
DOCKED: USER                           _______ _______ _______ _____ _____    ______ ____
DOCKED: ROOT
DOCKED: ATOM      1  C   UNL     1     139.372  73.726 221.565 -0.24 -0.00    +0.023 C  
DOCKED: ENDROOT
DOCKED: BRANCH   1   2
DOCKED: ATOM      2  O   UNL     1     138.188  73.811 222.302 -0.02 +0.20    -0.530 OA 
DOCKED: ATOM      3  H   UNL     1     138.053  74.467 223.062 -0.46 -0.20    +0.290 HD 
DOCKED: ENDBRANCH   1   2
DOCKED: BRANCH   1   4
DOCKED: ATOM      4  N   UNL     1     140.498  74.502 221.965 -0.58 +0.03    -0.546 NA 
DOCKED: BRANCH   4   5
DOCKED: ATOM      5  N   UNL     1     140.364  75.840 222.359 -0.34 +0.06    -0.372 NA 
DOCKED: BRANCH   5   6
DOCKED: ATOM      6  C   UNL     1     140.698  76.833 221.590 -0.32 -0.04    +0.099 C  
DOCKED: BRANCH   6   7
DOCKED: ATOM      7  C   UNL     1     141.311  78.086 222.091 -0.38 -0.02    +0.046 A  
DOCKED: ATOM      8  C   UNL     1     141.699  79.084 221.182 -0.24 -0.12    +0.221 A  
DOCKED: ATOM      9  C   UNL     1     141.458  78.339 223.467 -0.54 -0.01    +0.016 A  
DOCKED: ATOM     10  N   UNL     1     142.244  80.245 221.633 -0.28 +0.10    -0.228 NA 
DOCKED: ATOM     11  C   UNL     1     142.022  79.540 223.901 -0.58 -0.01    +0.021 A  
DOCKED: ATOM     12  C   UNL     1     142.417  80.490 222.959 -0.54 -0.03    +0.114 A  
DOCKED: ATOM     13  F   UNL     1     141.553  78.895 219.847 -0.07 +0.10    -0.184 F  
DOCKED: ENDBRANCH   6   7
DOCKED: ENDBRANCH   5   6
DOCKED: ENDBRANCH   4   5
DOCKED: ENDBRANCH   1   4
DOCKED: BRANCH   1  14
DOCKED: ATOM     14  C   UNL     1     139.496  72.929 220.497 -0.11 +0.00    -0.001 C  
DOCKED: BRANCH  14  15
DOCKED: ATOM     15  C   UNL     1     140.684  72.041 220.257 -0.11 -0.01    +0.071 C  
DOCKED: BRANCH  15  16
DOCKED: ATOM     16  C   UNL     1     140.616  70.746 221.076 -0.04 -0.03    +0.234 C  
DOCKED: BRANCH  16  17
DOCKED: ATOM     17  O   UNL     1     139.620  70.847 222.099 -0.05 +0.08    -0.492 OA 
DOCKED: BRANCH  17  18
DOCKED: ATOM     18  C   UNL     1     139.856  70.743 223.479 -0.26 -0.02    +0.137 A  
DOCKED: ATOM     19  C   UNL     1     140.686  71.649 224.166 -0.36 -0.01    +0.049 A  
DOCKED: ATOM     20  C   UNL     1     139.260  69.688 224.189 -0.28 -0.01    +0.084 A  
DOCKED: ATOM     21  C   UNL     1     140.876  71.525 225.546 -0.57 -0.00    +0.024 A  
DOCKED: ATOM     22  C   UNL     1     139.455  69.567 225.569 -0.41 -0.01    +0.045 A  
DOCKED: ATOM     23  C   UNL     1     140.258  70.487 226.249 -0.53 -0.01    +0.042 A  
DOCKED: ATOM     24  Cl  UNL     1     138.232  68.528 223.362 -0.32 +0.01    -0.080 Cl 
DOCKED: ATOM     25  Cl  UNL     1     140.495  70.335 227.980 -0.80 +0.01    -0.084 Cl 
DOCKED: ENDBRANCH  17  18
DOCKED: ENDBRANCH  16  17
DOCKED: ENDBRANCH  15  16
DOCKED: ENDBRANCH  14  15
DOCKED: ENDBRANCH   1  14
DOCKED: TORSDOF 10
DOCKED: TER
DOCKED: ENDMDL
________________________________________________________________________________


    FINAL DOCKED STATE:
    ________________________


Run:   6 / 20
Time taken for this run:   0.036s

DOCKED: MODEL        6
DOCKED: USER    Run = 6
DOCKED: USER
DOCKED: USER    Estimated Free Energy of Binding    =  -5.85 kcal/mol  [=(1)+(2)+(3)-(4)]
DOCKED: USER
DOCKED: USER    (1) Final Intermolecular Energy     =  -8.83 kcal/mol
DOCKED: USER        vdW + Hbond + desolv Energy     =  -9.01 kcal/mol
DOCKED: USER        Electrostatic Energy            =  +0.17 kcal/mol
DOCKED: USER        Moving Ligand-Fixed Receptor    =  -8.83 kcal/mol
DOCKED: USER        Moving Ligand-Moving Receptor   =  +0.00 kcal/mol
DOCKED: USER    (2) Final Total Internal Energy     =  -1.07 kcal/mol
DOCKED: USER    (3) Torsional Free Energy           =  +2.98 kcal/mol
DOCKED: USER    (4) Unbound System's Energy         =  -1.07 kcal/mol
DOCKED: USER
DOCKED: USER
DOCKED: REMARK SMILES O/C(=C\CCOc1ccc(Cl)cc1Cl)[N-]/N=C\c1cccnc1F
DOCKED: REMARK SMILES IDX 2 1 1 2 15 4 16 5 17 6 18 7 23 8 19 9 22 10 20 11 21 12
DOCKED: REMARK SMILES IDX 24 13 3 14 4 15 5 16 6 17 7 18 8 19 13 20 9 21 12 22 10 23
DOCKED: REMARK SMILES IDX 14 24 11 25
DOCKED: REMARK H PARENT 1 3
DOCKED: USER                              x       y       z     vdW  Elec       q    Type
DOCKED: USER                           _______ _______ _______ _____ _____    ______ ____
DOCKED: ROOT
DOCKED: ATOM      1  C   UNL     1     140.316  75.245 221.703 -0.31 -0.00    +0.023 C  
DOCKED: ENDROOT
DOCKED: BRANCH   1   2
DOCKED: ATOM      2  O   UNL     1     139.377  74.993 222.707 -0.39 +0.08    -0.530 OA 
DOCKED: ATOM      3  H   UNL     1     139.168  74.064 223.050 -0.48 -0.12    +0.290 HD 
DOCKED: ENDBRANCH   1   2
DOCKED: BRANCH   1   4
DOCKED: ATOM      4  N   UNL     1     140.339  76.525 221.076 -0.02 +0.17    -0.546 NA 
DOCKED: BRANCH   4   5
DOCKED: ATOM      5  N   UNL     1     139.476  77.552 221.476 -0.06 +0.09    -0.372 NA 
DOCKED: BRANCH   5   6
DOCKED: ATOM      6  C   UNL     1     139.575  78.140 222.631 -0.29 -0.02    +0.099 C  
DOCKED: BRANCH   6   7
DOCKED: ATOM      7  C   UNL     1     140.630  79.129 222.957 -0.43 -0.01    +0.046 A  
DOCKED: ATOM      8  C   UNL     1     140.276  80.358 223.539 -0.30 -0.03    +0.221 A  
DOCKED: ATOM      9  C   UNL     1     141.994  78.848 222.763 -0.49 -0.01    +0.016 A  
DOCKED: ATOM     10  N   UNL     1     141.239  81.264 223.861 -0.30 +0.03    -0.228 NA 
DOCKED: ATOM     11  C   UNL     1     142.960  79.797 223.102 -0.61 -0.01    +0.021 A  
DOCKED: ATOM     12  C   UNL     1     142.558  81.015 223.652 -0.54 -0.02    +0.114 A  
DOCKED: ATOM     13  F   UNL     1     138.975  80.664 223.769 -0.13 +0.02    -0.184 F  
DOCKED: ENDBRANCH   6   7
DOCKED: ENDBRANCH   5   6
DOCKED: ENDBRANCH   4   5
DOCKED: ENDBRANCH   1   4
DOCKED: BRANCH   1  14
DOCKED: ATOM     14  C   UNL     1     141.210  74.329 221.312 -0.28 +0.00    -0.001 C  
DOCKED: BRANCH  14  15
DOCKED: ATOM     15  C   UNL     1     140.842  72.930 220.903 -0.20 -0.01    +0.071 C  
DOCKED: BRANCH  15  16
DOCKED: ATOM     16  C   UNL     1     141.076  71.916 222.030 -0.16 -0.02    +0.234 C  
DOCKED: BRANCH  16  17
DOCKED: ATOM     17  O   UNL     1     140.188  72.164 223.126 -0.27 +0.07    -0.492 OA 
DOCKED: BRANCH  17  18
DOCKED: ATOM     18  C   UNL     1     140.210  71.493 224.359 -0.38 -0.02    +0.137 A  
DOCKED: ATOM     19  C   UNL     1     141.061  71.886 225.409 -0.35 -0.01    +0.049 A  
DOCKED: ATOM     20  C   UNL     1     139.369  70.383 224.539 -0.34 -0.01    +0.084 A  
DOCKED: ATOM     21  C   UNL     1     141.034  71.206 226.631 -0.67 -0.00    +0.024 A  
DOCKED: ATOM     22  C   UNL     1     139.347  69.705 225.763 -0.41 -0.01    +0.045 A  
DOCKED: ATOM     23  C   UNL     1     140.175  70.119 226.810 -0.53 -0.01    +0.042 A  
DOCKED: ATOM     24  Cl  UNL     1     138.305  69.854 223.244 -0.30 +0.01    -0.080 Cl 
DOCKED: ATOM     25  Cl  UNL     1     140.140  69.269 228.344 -0.76 +0.01    -0.084 Cl 
DOCKED: ENDBRANCH  17  18
DOCKED: ENDBRANCH  16  17
DOCKED: ENDBRANCH  15  16
DOCKED: ENDBRANCH  14  15
DOCKED: ENDBRANCH   1  14
DOCKED: TORSDOF 10
DOCKED: TER
DOCKED: ENDMDL
________________________________________________________________________________


    FINAL DOCKED STATE:
    ________________________


Run:   7 / 20
Time taken for this run:   0.036s

DOCKED: MODEL        7
DOCKED: USER    Run = 7
DOCKED: USER
DOCKED: USER    Estimated Free Energy of Binding    =  -5.53 kcal/mol  [=(1)+(2)+(3)-(4)]
DOCKED: USER
DOCKED: USER    (1) Final Intermolecular Energy     =  -8.52 kcal/mol
DOCKED: USER        vdW + Hbond + desolv Energy     =  -8.50 kcal/mol
DOCKED: USER        Electrostatic Energy            =  -0.02 kcal/mol
DOCKED: USER        Moving Ligand-Fixed Receptor    =  -8.52 kcal/mol
DOCKED: USER        Moving Ligand-Moving Receptor   =  +0.00 kcal/mol
DOCKED: USER    (2) Final Total Internal Energy     =  -1.09 kcal/mol
DOCKED: USER    (3) Torsional Free Energy           =  +2.98 kcal/mol
DOCKED: USER    (4) Unbound System's Energy         =  -1.09 kcal/mol
DOCKED: USER
DOCKED: USER
DOCKED: REMARK SMILES O/C(=C\CCOc1ccc(Cl)cc1Cl)[N-]/N=C\c1cccnc1F
DOCKED: REMARK SMILES IDX 2 1 1 2 15 4 16 5 17 6 18 7 23 8 19 9 22 10 20 11 21 12
DOCKED: REMARK SMILES IDX 24 13 3 14 4 15 5 16 6 17 7 18 8 19 13 20 9 21 12 22 10 23
DOCKED: REMARK SMILES IDX 14 24 11 25
DOCKED: REMARK H PARENT 1 3
DOCKED: USER                              x       y       z     vdW  Elec       q    Type
DOCKED: USER                           _______ _______ _______ _____ _____    ______ ____
DOCKED: ROOT
DOCKED: ATOM      1  C   UNL     1     138.180  68.951 223.621 -0.27 -0.00    +0.023 C  
DOCKED: ENDROOT
DOCKED: BRANCH   1   2
DOCKED: ATOM      2  O   UNL     1     138.747  68.129 222.643 -0.07 +0.09    -0.530 OA 
DOCKED: ATOM      3  H   UNL     1     139.390  67.376 222.856 +0.01 -0.07    +0.290 HD 
DOCKED: ENDBRANCH   1   2
DOCKED: BRANCH   1   4
DOCKED: ATOM      4  N   UNL     1     138.182  68.518 224.979 -0.19 +0.00    -0.546 NA 
DOCKED: BRANCH   4   5
DOCKED: ATOM      5  N   UNL     1     139.230  67.751 225.503 -0.71 +0.01    -0.372 NA 
DOCKED: BRANCH   5   6
DOCKED: ATOM      6  C   UNL     1     139.907  68.114 226.552 -0.57 -0.02    +0.099 C  
DOCKED: BRANCH   6   7
DOCKED: ATOM      7  C   UNL     1     140.327  69.512 226.811 -0.53 -0.01    +0.046 A  
DOCKED: ATOM      8  C   UNL     1     140.059  70.100 228.058 -0.43 -0.04    +0.221 A  
DOCKED: ATOM      9  C   UNL     1     141.053  70.254 225.862 -0.54 -0.00    +0.016 A  
DOCKED: ATOM     10  N   UNL     1     140.459  71.375 228.313 -0.47 +0.05    -0.228 NA 
DOCKED: ATOM     11  C   UNL     1     141.449  71.561 226.151 -0.63 -0.00    +0.021 A  
DOCKED: ATOM     12  C   UNL     1     141.136  72.112 227.394 -0.71 -0.02    +0.114 A  
DOCKED: ATOM     13  F   UNL     1     139.384  69.414 229.014 -0.15 +0.02    -0.184 F  
DOCKED: ENDBRANCH   6   7
DOCKED: ENDBRANCH   5   6
DOCKED: ENDBRANCH   4   5
DOCKED: ENDBRANCH   1   4
DOCKED: BRANCH   1  14
DOCKED: ATOM     14  C   UNL     1     137.643  70.142 223.333 -0.22 +0.00    -0.001 C  
DOCKED: BRANCH  14  15
DOCKED: ATOM     15  C   UNL     1     138.451  71.397 223.157 -0.22 -0.02    +0.071 C  
DOCKED: BRANCH  15  16
DOCKED: ATOM     16  C   UNL     1     139.744  71.148 222.371 -0.17 -0.04    +0.234 C  
DOCKED: BRANCH  16  17
DOCKED: ATOM     17  O   UNL     1     140.262  72.375 221.847 -0.15 +0.07    -0.492 OA 
DOCKED: BRANCH  17  18
DOCKED: ATOM     18  C   UNL     1     141.582  72.583 221.414 -0.19 -0.01    +0.137 A  
DOCKED: ATOM     19  C   UNL     1     142.484  71.519 221.223 -0.08 -0.00    +0.049 A  
DOCKED: ATOM     20  C   UNL     1     142.018  73.899 221.187 -0.16 -0.01    +0.084 A  
DOCKED: ATOM     21  C   UNL     1     143.782  71.768 220.768 -0.29 -0.00    +0.024 A  
DOCKED: ATOM     22  C   UNL     1     143.319  74.142 220.733 -0.29 -0.01    +0.045 A  
DOCKED: ATOM     23  C   UNL     1     144.199  73.078 220.518 -0.39 -0.01    +0.042 A  
DOCKED: ATOM     24  Cl  UNL     1     140.926  75.253 221.431 -0.41 +0.02    -0.080 Cl 
DOCKED: ATOM     25  Cl  UNL     1     145.827  73.387 219.943 -0.66 -0.01    -0.084 Cl 
DOCKED: ENDBRANCH  17  18
DOCKED: ENDBRANCH  16  17
DOCKED: ENDBRANCH  15  16
DOCKED: ENDBRANCH  14  15
DOCKED: ENDBRANCH   1  14
DOCKED: TORSDOF 10
DOCKED: TER
DOCKED: ENDMDL
________________________________________________________________________________


    FINAL DOCKED STATE:
    ________________________


Run:   8 / 20
Time taken for this run:   0.036s

DOCKED: MODEL        8
DOCKED: USER    Run = 8
DOCKED: USER
DOCKED: USER    Estimated Free Energy of Binding    =  -6.04 kcal/mol  [=(1)+(2)+(3)-(4)]
DOCKED: USER
DOCKED: USER    (1) Final Intermolecular Energy     =  -9.02 kcal/mol
DOCKED: USER        vdW + Hbond + desolv Energy     =  -9.04 kcal/mol
DOCKED: USER        Electrostatic Energy            =  +0.02 kcal/mol
DOCKED: USER        Moving Ligand-Fixed Receptor    =  -9.02 kcal/mol
DOCKED: USER        Moving Ligand-Moving Receptor   =  +0.00 kcal/mol
DOCKED: USER    (2) Final Total Internal Energy     =  -0.66 kcal/mol
DOCKED: USER    (3) Torsional Free Energy           =  +2.98 kcal/mol
DOCKED: USER    (4) Unbound System's Energy         =  -0.66 kcal/mol
DOCKED: USER
DOCKED: USER
DOCKED: REMARK SMILES O/C(=C\CCOc1ccc(Cl)cc1Cl)[N-]/N=C\c1cccnc1F
DOCKED: REMARK SMILES IDX 2 1 1 2 15 4 16 5 17 6 18 7 23 8 19 9 22 10 20 11 21 12
DOCKED: REMARK SMILES IDX 24 13 3 14 4 15 5 16 6 17 7 18 8 19 13 20 9 21 12 22 10 23
DOCKED: REMARK SMILES IDX 14 24 11 25
DOCKED: REMARK H PARENT 1 3
DOCKED: USER                              x       y       z     vdW  Elec       q    Type
DOCKED: USER                           _______ _______ _______ _____ _____    ______ ____
DOCKED: ROOT
DOCKED: ATOM      1  C   UNL     1     141.026  74.386 221.389 -0.29 -0.00    +0.023 C  
DOCKED: ENDROOT
DOCKED: BRANCH   1   2
DOCKED: ATOM      2  O   UNL     1     142.222  75.011 221.022 -0.09 +0.21    -0.530 OA 
DOCKED: ATOM      3  H   UNL     1     142.534  75.888 221.420 -0.40 -0.24    +0.290 HD 
DOCKED: ENDBRANCH   1   2
DOCKED: BRANCH   1   4
DOCKED: ATOM      4  N   UNL     1     139.988  75.164 221.979 -0.47 +0.08    -0.546 NA 
DOCKED: BRANCH   4   5
DOCKED: ATOM      5  N   UNL     1     140.268  76.315 222.727 -0.15 +0.07    -0.372 NA 
DOCKED: BRANCH   5   6
DOCKED: ATOM      6  C   UNL     1     139.943  77.507 222.325 -0.33 -0.02    +0.099 C  
DOCKED: BRANCH   6   7
DOCKED: ATOM      7  C   UNL     1     140.661  78.735 222.741 -0.41 -0.01    +0.046 A  
DOCKED: ATOM      8  C   UNL     1     139.955  79.777 223.366 -0.30 -0.04    +0.221 A  
DOCKED: ATOM      9  C   UNL     1     142.053  78.866 222.591 -0.47 -0.01    +0.016 A  
DOCKED: ATOM     10  N   UNL     1     140.608  80.900 223.770 -0.26 +0.03    -0.228 NA 
DOCKED: ATOM     11  C   UNL     1     142.696  80.030 223.014 -0.63 -0.01    +0.021 A  
DOCKED: ATOM     12  C   UNL     1     141.948  81.049 223.605 -0.52 -0.02    +0.114 A  
DOCKED: ATOM     13  F   UNL     1     138.615  79.686 223.556 -0.11 +0.02    -0.184 F  
DOCKED: ENDBRANCH   6   7
DOCKED: ENDBRANCH   5   6
DOCKED: ENDBRANCH   4   5
DOCKED: ENDBRANCH   1   4
DOCKED: BRANCH   1  14
DOCKED: ATOM     14  C   UNL     1     140.811  73.080 221.196 -0.26 +0.00    -0.001 C  
DOCKED: BRANCH  14  15
DOCKED: ATOM     15  C   UNL     1     139.464  72.429 221.344 -0.17 -0.01    +0.071 C  
DOCKED: BRANCH  15  16
DOCKED: ATOM     16  C   UNL     1     139.187  71.990 222.787 -0.16 -0.06    +0.234 C  
DOCKED: BRANCH  16  17
DOCKED: ATOM     17  O   UNL     1     140.254  71.175 223.282 -0.13 +0.07    -0.492 OA 
DOCKED: BRANCH  17  18
DOCKED: ATOM     18  C   UNL     1     140.312  70.596 224.559 -0.35 -0.02    +0.137 A  
DOCKED: ATOM     19  C   UNL     1     141.017  71.193 225.621 -0.57 -0.01    +0.049 A  
DOCKED: ATOM     20  C   UNL     1     139.661  69.370 224.775 -0.32 -0.01    +0.084 A  
DOCKED: ATOM     21  C   UNL     1     141.029  70.596 226.885 -0.60 -0.00    +0.024 A  
DOCKED: ATOM     22  C   UNL     1     139.677  68.775 226.041 -0.49 -0.01    +0.045 A  
DOCKED: ATOM     23  C   UNL     1     140.356  69.390 227.097 -0.55 -0.01    +0.042 A  
DOCKED: ATOM     24  Cl  UNL     1     138.785  68.587 223.469 -0.34 +0.01    -0.080 Cl 
DOCKED: ATOM     25  Cl  UNL     1     140.370  68.644 228.685 -0.66 +0.02    -0.084 Cl 
DOCKED: ENDBRANCH  17  18
DOCKED: ENDBRANCH  16  17
DOCKED: ENDBRANCH  15  16
DOCKED: ENDBRANCH  14  15
DOCKED: ENDBRANCH   1  14
DOCKED: TORSDOF 10
DOCKED: TER
DOCKED: ENDMDL
________________________________________________________________________________


    FINAL DOCKED STATE:
    ________________________


Run:   9 / 20
Time taken for this run:   0.036s

DOCKED: MODEL        9
DOCKED: USER    Run = 9
DOCKED: USER
DOCKED: USER    Estimated Free Energy of Binding    =  -5.95 kcal/mol  [=(1)+(2)+(3)-(4)]
DOCKED: USER
DOCKED: USER    (1) Final Intermolecular Energy     =  -8.93 kcal/mol
DOCKED: USER        vdW + Hbond + desolv Energy     =  -9.05 kcal/mol
DOCKED: USER        Electrostatic Energy            =  +0.12 kcal/mol
DOCKED: USER        Moving Ligand-Fixed Receptor    =  -8.93 kcal/mol
DOCKED: USER        Moving Ligand-Moving Receptor   =  +0.00 kcal/mol
DOCKED: USER    (2) Final Total Internal Energy     =  -0.91 kcal/mol
DOCKED: USER    (3) Torsional Free Energy           =  +2.98 kcal/mol
DOCKED: USER    (4) Unbound System's Energy         =  -0.91 kcal/mol
DOCKED: USER
DOCKED: USER
DOCKED: REMARK SMILES O/C(=C\CCOc1ccc(Cl)cc1Cl)[N-]/N=C\c1cccnc1F
DOCKED: REMARK SMILES IDX 2 1 1 2 15 4 16 5 17 6 18 7 23 8 19 9 22 10 20 11 21 12
DOCKED: REMARK SMILES IDX 24 13 3 14 4 15 5 16 6 17 7 18 8 19 13 20 9 21 12 22 10 23
DOCKED: REMARK SMILES IDX 14 24 11 25
DOCKED: REMARK H PARENT 1 3
DOCKED: USER                              x       y       z     vdW  Elec       q    Type
DOCKED: USER                           _______ _______ _______ _____ _____    ______ ____
DOCKED: ROOT
DOCKED: ATOM      1  C   UNL     1     140.581  72.507 222.142 -0.30 -0.00    +0.023 C  
DOCKED: ENDROOT
DOCKED: BRANCH   1   2
DOCKED: ATOM      2  O   UNL     1     139.557  73.437 222.339 -0.60 +0.10    -0.530 OA 
DOCKED: ATOM      3  H   UNL     1     139.565  74.122 223.085 -0.46 -0.03    +0.290 HD 
DOCKED: ENDBRANCH   1   2
DOCKED: BRANCH   1   4
DOCKED: ATOM      4  N   UNL     1     140.636  71.347 222.968 -0.03 +0.06    -0.546 NA 
DOCKED: BRANCH   4   5
DOCKED: ATOM      5  N   UNL     1     140.163  71.363 224.287 -0.20 +0.06    -0.372 NA 
DOCKED: BRANCH   5   6
DOCKED: ATOM      6  C   UNL     1     140.954  71.301 225.315 -0.47 -0.01    +0.099 C  
DOCKED: BRANCH   6   7
DOCKED: ATOM      7  C   UNL     1     140.881  70.234 226.341 -0.53 -0.01    +0.046 A  
DOCKED: ATOM      8  C   UNL     1     140.535  70.562 227.663 -0.46 -0.04    +0.221 A  
DOCKED: ATOM      9  C   UNL     1     141.082  68.880 226.018 -0.49 -0.00    +0.016 A  
DOCKED: ATOM     10  N   UNL     1     140.445  69.587 228.608 -0.26 +0.04    -0.228 NA 
DOCKED: ATOM     11  C   UNL     1     140.984  67.902 227.008 -0.65 -0.01    +0.021 A  
DOCKED: ATOM     12  C   UNL     1     140.664  68.279 228.313 -0.55 -0.03    +0.114 A  
DOCKED: ATOM     13  F   UNL     1     140.307  71.850 228.018 -0.28 +0.05    -0.184 F  
DOCKED: ENDBRANCH   6   7
DOCKED: ENDBRANCH   5   6
DOCKED: ENDBRANCH   4   5
DOCKED: ENDBRANCH   1   4
DOCKED: BRANCH   1  14
DOCKED: ATOM     14  C   UNL     1     141.513  72.657 221.194 -0.27 +0.00    -0.001 C  
DOCKED: BRANCH  14  15
DOCKED: ATOM     15  C   UNL     1     142.166  73.972 220.871 -0.23 -0.02    +0.071 C  
DOCKED: BRANCH  15  16
DOCKED: ATOM     16  C   UNL     1     141.146  75.110 220.741 -0.19 -0.07    +0.234 C  
DOCKED: BRANCH  16  17
DOCKED: ATOM     17  O   UNL     1     140.743  75.580 222.031 -0.38 +0.09    -0.492 OA 
DOCKED: BRANCH  17  18
DOCKED: ATOM     18  C   UNL     1     140.384  76.901 222.341 -0.34 -0.04    +0.137 A  
DOCKED: ATOM     19  C   UNL     1     141.344  77.905 222.568 -0.39 -0.02    +0.049 A  
DOCKED: ATOM     20  C   UNL     1     139.021  77.222 222.448 -0.27 -0.02    +0.084 A  
DOCKED: ATOM     21  C   UNL     1     140.944  79.214 222.850 -0.46 -0.01    +0.024 A  
DOCKED: ATOM     22  C   UNL     1     138.625  78.534 222.732 -0.27 -0.01    +0.045 A  
DOCKED: ATOM     23  C   UNL     1     139.585  79.531 222.928 -0.34 -0.01    +0.042 A  
DOCKED: ATOM     24  Cl  UNL     1     137.794  75.992 222.188 -0.32 +0.02    -0.080 Cl 
DOCKED: ATOM     25  Cl  UNL     1     139.085  81.175 223.279 -0.31 +0.01    -0.084 Cl 
DOCKED: ENDBRANCH  17  18
DOCKED: ENDBRANCH  16  17
DOCKED: ENDBRANCH  15  16
DOCKED: ENDBRANCH  14  15
DOCKED: ENDBRANCH   1  14
DOCKED: TORSDOF 10
DOCKED: TER
DOCKED: ENDMDL
________________________________________________________________________________


    FINAL DOCKED STATE:
    ________________________


Run:   10 / 20
Time taken for this run:   0.036s

DOCKED: MODEL        10
DOCKED: USER    Run = 10
DOCKED: USER
DOCKED: USER    Estimated Free Energy of Binding    =  -5.52 kcal/mol  [=(1)+(2)+(3)-(4)]
DOCKED: USER
DOCKED: USER    (1) Final Intermolecular Energy     =  -8.50 kcal/mol
DOCKED: USER        vdW + Hbond + desolv Energy     =  -8.68 kcal/mol
DOCKED: USER        Electrostatic Energy            =  +0.18 kcal/mol
DOCKED: USER        Moving Ligand-Fixed Receptor    =  -8.50 kcal/mol
DOCKED: USER        Moving Ligand-Moving Receptor   =  +0.00 kcal/mol
DOCKED: USER    (2) Final Total Internal Energy     =  -1.07 kcal/mol
DOCKED: USER    (3) Torsional Free Energy           =  +2.98 kcal/mol
DOCKED: USER    (4) Unbound System's Energy         =  -1.07 kcal/mol
DOCKED: USER
DOCKED: USER
DOCKED: REMARK SMILES O/C(=C\CCOc1ccc(Cl)cc1Cl)[N-]/N=C\c1cccnc1F
DOCKED: REMARK SMILES IDX 2 1 1 2 15 4 16 5 17 6 18 7 23 8 19 9 22 10 20 11 21 12
DOCKED: REMARK SMILES IDX 24 13 3 14 4 15 5 16 6 17 7 18 8 19 13 20 9 21 12 22 10 23
DOCKED: REMARK SMILES IDX 14 24 11 25
DOCKED: REMARK H PARENT 1 3
DOCKED: USER                              x       y       z     vdW  Elec       q    Type
DOCKED: USER                           _______ _______ _______ _____ _____    ______ ____
DOCKED: ROOT
DOCKED: ATOM      1  C   UNL     1     138.938  72.648 222.245 -0.20 -0.01    +0.023 C  
DOCKED: ENDROOT
DOCKED: BRANCH   1   2
DOCKED: ATOM      2  O   UNL     1     139.869  73.581 222.709 -0.60 +0.03    -0.530 OA 
DOCKED: ATOM      3  H   UNL     1     139.608  74.485 223.086 -0.43 +0.00    +0.290 HD 
DOCKED: ENDBRANCH   1   2
DOCKED: BRANCH   1   4
DOCKED: ATOM      4  N   UNL     1     139.140  71.265 222.525 -0.03 +0.11    -0.546 NA 
DOCKED: BRANCH   4   5
DOCKED: ATOM      5  N   UNL     1     139.097  70.768 223.834 -0.13 +0.08    -0.372 NA 
DOCKED: BRANCH   5   6
DOCKED: ATOM      6  C   UNL     1     139.916  71.166 224.761 -0.41 -0.02    +0.099 C  
DOCKED: BRANCH   6   7
DOCKED: ATOM      7  C   UNL     1     140.214  70.380 225.982 -0.50 -0.01    +0.046 A  
DOCKED: ATOM      8  C   UNL     1     140.754  71.022 227.109 -0.49 -0.04    +0.221 A  
DOCKED: ATOM      9  C   UNL     1     139.908  69.010 226.074 -0.50 -0.00    +0.016 A  
DOCKED: ATOM     10  N   UNL     1     141.011  70.313 228.241 -0.35 +0.04    -0.228 NA 
DOCKED: ATOM     11  C   UNL     1     140.185  68.309 227.248 -0.65 -0.00    +0.021 A  
DOCKED: ATOM     12  C   UNL     1     140.747  68.984 228.332 -0.54 -0.02    +0.114 A  
DOCKED: ATOM     13  F   UNL     1     141.042  72.347 227.077 -0.30 +0.04    -0.184 F  
DOCKED: ENDBRANCH   6   7
DOCKED: ENDBRANCH   5   6
DOCKED: ENDBRANCH   4   5
DOCKED: ENDBRANCH   1   4
DOCKED: BRANCH   1  14
DOCKED: ATOM     14  C   UNL     1     137.849  73.004 221.553 -0.14 +0.00    -0.001 C  
DOCKED: BRANCH  14  15
DOCKED: ATOM     15  C   UNL     1     137.759  74.263 220.737 -0.09 -0.02    +0.071 C  
DOCKED: BRANCH  15  16
DOCKED: ATOM     16  C   UNL     1     137.588  75.511 221.611 -0.12 -0.05    +0.234 C  
DOCKED: BRANCH  16  17
DOCKED: ATOM     17  O   UNL     1     138.775  75.765 222.369 -0.18 +0.11    -0.492 OA 
DOCKED: BRANCH  17  18
DOCKED: ATOM     18  C   UNL     1     139.461  76.989 222.422 -0.27 -0.03    +0.137 A  
DOCKED: ATOM     19  C   UNL     1     138.921  78.123 223.056 -0.24 -0.01    +0.049 A  
DOCKED: ATOM     20  C   UNL     1     140.718  77.085 221.803 -0.34 -0.03    +0.084 A  
DOCKED: ATOM     21  C   UNL     1     139.647  79.317 223.107 -0.37 -0.00    +0.024 A  
DOCKED: ATOM     22  C   UNL     1     141.441  78.282 221.856 -0.38 -0.02    +0.045 A  
DOCKED: ATOM     23  C   UNL     1     140.909  79.395 222.512 -0.40 -0.01    +0.042 A  
DOCKED: ATOM     24  Cl  UNL     1     141.417  75.694 220.988 -0.37 +0.03    -0.080 Cl 
DOCKED: ATOM     25  Cl  UNL     1     141.821  80.892 222.580 -0.67 +0.02    -0.084 Cl 
DOCKED: ENDBRANCH  17  18
DOCKED: ENDBRANCH  16  17
DOCKED: ENDBRANCH  15  16
DOCKED: ENDBRANCH  14  15
DOCKED: ENDBRANCH   1  14
DOCKED: TORSDOF 10
DOCKED: TER
DOCKED: ENDMDL
________________________________________________________________________________


    FINAL DOCKED STATE:
    ________________________


Run:   11 / 20
Time taken for this run:   0.036s

DOCKED: MODEL        11
DOCKED: USER    Run = 11
DOCKED: USER
DOCKED: USER    Estimated Free Energy of Binding    =  -5.51 kcal/mol  [=(1)+(2)+(3)-(4)]
DOCKED: USER
DOCKED: USER    (1) Final Intermolecular Energy     =  -8.50 kcal/mol
DOCKED: USER        vdW + Hbond + desolv Energy     =  -8.56 kcal/mol
DOCKED: USER        Electrostatic Energy            =  +0.06 kcal/mol
DOCKED: USER        Moving Ligand-Fixed Receptor    =  -8.50 kcal/mol
DOCKED: USER        Moving Ligand-Moving Receptor   =  +0.00 kcal/mol
DOCKED: USER    (2) Final Total Internal Energy     =  -0.92 kcal/mol
DOCKED: USER    (3) Torsional Free Energy           =  +2.98 kcal/mol
DOCKED: USER    (4) Unbound System's Energy         =  -0.92 kcal/mol
DOCKED: USER
DOCKED: USER
DOCKED: REMARK SMILES O/C(=C\CCOc1ccc(Cl)cc1Cl)[N-]/N=C\c1cccnc1F
DOCKED: REMARK SMILES IDX 2 1 1 2 15 4 16 5 17 6 18 7 23 8 19 9 22 10 20 11 21 12
DOCKED: REMARK SMILES IDX 24 13 3 14 4 15 5 16 6 17 7 18 8 19 13 20 9 21 12 22 10 23
DOCKED: REMARK SMILES IDX 14 24 11 25
DOCKED: REMARK H PARENT 1 3
DOCKED: USER                              x       y       z     vdW  Elec       q    Type
DOCKED: USER                           _______ _______ _______ _____ _____    ______ ____
DOCKED: ROOT
DOCKED: ATOM      1  C   UNL     1     139.695  74.221 221.408 -0.25 -0.00    +0.023 C  
DOCKED: ENDROOT
DOCKED: BRANCH   1   2
DOCKED: ATOM      2  O   UNL     1     139.938  73.760 222.705 -0.61 -0.01    -0.530 OA 
DOCKED: ATOM      3  H   UNL     1     139.257  73.238 223.245 -0.39 -0.13    +0.290 HD 
DOCKED: ENDBRANCH   1   2
DOCKED: BRANCH   1   4
DOCKED: ATOM      4  N   UNL     1     140.139  75.524 221.038 -0.05 +0.13    -0.546 NA 
DOCKED: BRANCH   4   5
DOCKED: ATOM      5  N   UNL     1     140.702  76.400 221.975 -0.20 +0.11    -0.372 NA 
DOCKED: BRANCH   5   6
DOCKED: ATOM      6  C   UNL     1     140.082  77.458 222.405 -0.33 -0.03    +0.099 C  
DOCKED: BRANCH   6   7
DOCKED: ATOM      7  C   UNL     1     140.774  78.708 222.800 -0.43 -0.01    +0.046 A  
DOCKED: ATOM      8  C   UNL     1     140.059  79.722 223.459 -0.31 -0.04    +0.221 A  
DOCKED: ATOM      9  C   UNL     1     142.154  78.886 222.595 -0.46 -0.01    +0.016 A  
DOCKED: ATOM     10  N   UNL     1     140.690  80.864 223.843 -0.27 +0.03    -0.228 NA 
DOCKED: ATOM     11  C   UNL     1     142.774  80.070 222.999 -0.63 -0.01    +0.021 A  
DOCKED: ATOM     12  C   UNL     1     142.016  81.060 223.625 -0.53 -0.02    +0.114 A  
DOCKED: ATOM     13  F   UNL     1     138.732  79.584 223.701 -0.12 +0.02    -0.184 F  
DOCKED: ENDBRANCH   6   7
DOCKED: ENDBRANCH   5   6
DOCKED: ENDBRANCH   4   5
DOCKED: ENDBRANCH   1   4
DOCKED: BRANCH   1  14
DOCKED: ATOM     14  C   UNL     1     139.068  73.478 220.488 -0.11 +0.00    -0.001 C  
DOCKED: BRANCH  14  15
DOCKED: ATOM     15  C   UNL     1     139.440  72.055 220.177 -0.07 -0.01    +0.071 C  
DOCKED: BRANCH  15  16
DOCKED: ATOM     16  C   UNL     1     140.143  71.368 221.354 -0.12 -0.04    +0.234 C  
DOCKED: BRANCH  16  17
DOCKED: ATOM     17  O   UNL     1     139.249  71.221 222.462 -0.06 +0.10    -0.492 OA 
DOCKED: BRANCH  17  18
DOCKED: ATOM     18  C   UNL     1     139.620  70.845 223.763 -0.30 -0.03    +0.137 A  
DOCKED: ATOM     19  C   UNL     1     140.680  71.468 224.449 -0.43 -0.01    +0.049 A  
DOCKED: ATOM     20  C   UNL     1     138.922  69.799 224.389 -0.30 -0.01    +0.084 A  
DOCKED: ATOM     21  C   UNL     1     141.002  71.080 225.753 -0.60 -0.00    +0.024 A  
DOCKED: ATOM     22  C   UNL     1     139.249  69.414 225.694 -0.41 -0.01    +0.045 A  
DOCKED: ATOM     23  C   UNL     1     140.283  70.057 226.378 -0.51 -0.01    +0.042 A  
DOCKED: ATOM     24  Cl  UNL     1     137.604  68.987 223.557 -0.30 +0.01    -0.080 Cl 
DOCKED: ATOM     25  Cl  UNL     1     140.686  69.574 228.015 -0.77 +0.02    -0.084 Cl 
DOCKED: ENDBRANCH  17  18
DOCKED: ENDBRANCH  16  17
DOCKED: ENDBRANCH  15  16
DOCKED: ENDBRANCH  14  15
DOCKED: ENDBRANCH   1  14
DOCKED: TORSDOF 10
DOCKED: TER
DOCKED: ENDMDL
________________________________________________________________________________


    FINAL DOCKED STATE:
    ________________________


Run:   12 / 20
Time taken for this run:   0.036s

DOCKED: MODEL        12
DOCKED: USER    Run = 12
DOCKED: USER
DOCKED: USER    Estimated Free Energy of Binding    =  -6.32 kcal/mol  [=(1)+(2)+(3)-(4)]
DOCKED: USER
DOCKED: USER    (1) Final Intermolecular Energy     =  -9.30 kcal/mol
DOCKED: USER        vdW + Hbond + desolv Energy     =  -9.29 kcal/mol
DOCKED: USER        Electrostatic Energy            =  -0.01 kcal/mol
DOCKED: USER        Moving Ligand-Fixed Receptor    =  -9.30 kcal/mol
DOCKED: USER        Moving Ligand-Moving Receptor   =  +0.00 kcal/mol
DOCKED: USER    (2) Final Total Internal Energy     =  -0.66 kcal/mol
DOCKED: USER    (3) Torsional Free Energy           =  +2.98 kcal/mol
DOCKED: USER    (4) Unbound System's Energy         =  -0.66 kcal/mol
DOCKED: USER
DOCKED: USER
DOCKED: REMARK SMILES O/C(=C\CCOc1ccc(Cl)cc1Cl)[N-]/N=C\c1cccnc1F
DOCKED: REMARK SMILES IDX 2 1 1 2 15 4 16 5 17 6 18 7 23 8 19 9 22 10 20 11 21 12
DOCKED: REMARK SMILES IDX 24 13 3 14 4 15 5 16 6 17 7 18 8 19 13 20 9 21 12 22 10 23
DOCKED: REMARK SMILES IDX 14 24 11 25
DOCKED: REMARK H PARENT 1 3
DOCKED: USER                              x       y       z     vdW  Elec       q    Type
DOCKED: USER                           _______ _______ _______ _____ _____    ______ ____
DOCKED: ROOT
DOCKED: ATOM      1  C   UNL     1     140.295  74.350 221.968 -0.16 -0.00    +0.023 C  
DOCKED: ENDROOT
DOCKED: BRANCH   1   2
DOCKED: ATOM      2  O   UNL     1     138.958  74.708 222.166 -0.29 +0.13    -0.530 OA 
DOCKED: ATOM      3  H   UNL     1     138.342  74.218 222.804 -0.50 -0.16    +0.290 HD 
DOCKED: ENDBRANCH   1   2
DOCKED: BRANCH   1   4
DOCKED: ATOM      4  N   UNL     1     140.747  73.075 222.414 -0.43 -0.01    -0.546 NA 
DOCKED: BRANCH   4   5
DOCKED: ATOM      5  N   UNL     1     139.952  72.258 223.228 -0.27 +0.07    -0.372 NA 
DOCKED: BRANCH   5   6
DOCKED: ATOM      6  C   UNL     1     140.408  71.184 223.801 -0.32 -0.01    +0.099 C  
DOCKED: BRANCH   6   7
DOCKED: ATOM      7  C   UNL     1     140.422  70.984 225.270 -0.51 -0.01    +0.046 A  
DOCKED: ATOM      8  C   UNL     1     139.825  69.839 225.822 -0.32 -0.03    +0.221 A  
DOCKED: ATOM      9  C   UNL     1     141.079  71.880 226.133 -0.63 -0.00    +0.016 A  
DOCKED: ATOM     10  N   UNL     1     139.850  69.636 227.168 -0.31 +0.04    -0.228 NA 
DOCKED: ATOM     11  C   UNL     1     141.088  71.647 227.509 -0.78 -0.00    +0.021 A  
DOCKED: ATOM     12  C   UNL     1     140.458  70.509 228.014 -0.56 -0.02    +0.114 A  
DOCKED: ATOM     13  F   UNL     1     139.202  68.934 225.028 -0.11 +0.02    -0.184 F  
DOCKED: ENDBRANCH   6   7
DOCKED: ENDBRANCH   5   6
DOCKED: ENDBRANCH   4   5
DOCKED: ENDBRANCH   1   4
DOCKED: BRANCH   1  14
DOCKED: ATOM     14  C   UNL     1     141.171  75.160 221.361 -0.33 +0.00    -0.001 C  
DOCKED: BRANCH  14  15
DOCKED: ATOM     15  C   UNL     1     141.281  75.294 219.868 -0.17 -0.02    +0.071 C  
DOCKED: BRANCH  15  16
DOCKED: ATOM     16  C   UNL     1     142.102  76.522 219.455 -0.19 -0.12    +0.234 C  
DOCKED: BRANCH  16  17
DOCKED: ATOM     17  O   UNL     1     141.370  77.726 219.702 -0.04 +0.24    -0.492 OA 
DOCKED: BRANCH  17  18
DOCKED: ATOM     18  C   UNL     1     141.579  78.600 220.781 -0.26 -0.07    +0.137 A  
DOCKED: ATOM     19  C   UNL     1     141.449  78.181 222.119 -0.39 -0.02    +0.049 A  
DOCKED: ATOM     20  C   UNL     1     141.910  79.938 220.512 -0.27 -0.04    +0.084 A  
DOCKED: ATOM     21  C   UNL     1     141.690  79.077 223.166 -0.56 -0.01    +0.024 A  
DOCKED: ATOM     22  C   UNL     1     142.149  80.831 221.564 -0.40 -0.01    +0.045 A  
DOCKED: ATOM     23  C   UNL     1     142.045  80.400 222.889 -0.56 -0.01    +0.042 A  
DOCKED: ATOM     24  Cl  UNL     1     142.066  80.500 218.855 -0.38 +0.05    -0.080 Cl 
DOCKED: ATOM     25  Cl  UNL     1     142.351  81.520 224.203 -0.56 +0.01    -0.084 Cl 
DOCKED: ENDBRANCH  17  18
DOCKED: ENDBRANCH  16  17
DOCKED: ENDBRANCH  15  16
DOCKED: ENDBRANCH  14  15
DOCKED: ENDBRANCH   1  14
DOCKED: TORSDOF 10
DOCKED: TER
DOCKED: ENDMDL
________________________________________________________________________________


    FINAL DOCKED STATE:
    ________________________


Run:   13 / 20
Time taken for this run:   0.036s

DOCKED: MODEL        13
DOCKED: USER    Run = 13
DOCKED: USER
DOCKED: USER    Estimated Free Energy of Binding    =  -6.14 kcal/mol  [=(1)+(2)+(3)-(4)]
DOCKED: USER
DOCKED: USER    (1) Final Intermolecular Energy     =  -9.12 kcal/mol
DOCKED: USER        vdW + Hbond + desolv Energy     =  -9.09 kcal/mol
DOCKED: USER        Electrostatic Energy            =  -0.03 kcal/mol
DOCKED: USER        Moving Ligand-Fixed Receptor    =  -9.12 kcal/mol
DOCKED: USER        Moving Ligand-Moving Receptor   =  +0.00 kcal/mol
DOCKED: USER    (2) Final Total Internal Energy     =  -0.39 kcal/mol
DOCKED: USER    (3) Torsional Free Energy           =  +2.98 kcal/mol
DOCKED: USER    (4) Unbound System's Energy         =  -0.39 kcal/mol
DOCKED: USER
DOCKED: USER
DOCKED: REMARK SMILES O/C(=C\CCOc1ccc(Cl)cc1Cl)[N-]/N=C\c1cccnc1F
DOCKED: REMARK SMILES IDX 2 1 1 2 15 4 16 5 17 6 18 7 23 8 19 9 22 10 20 11 21 12
DOCKED: REMARK SMILES IDX 24 13 3 14 4 15 5 16 6 17 7 18 8 19 13 20 9 21 12 22 10 23
DOCKED: REMARK SMILES IDX 14 24 11 25
DOCKED: REMARK H PARENT 1 3
DOCKED: USER                              x       y       z     vdW  Elec       q    Type
DOCKED: USER                           _______ _______ _______ _____ _____    ______ ____
DOCKED: ROOT
DOCKED: ATOM      1  C   UNL     1     139.609  73.372 222.207 -0.20 -0.00    +0.023 C  
DOCKED: ENDROOT
DOCKED: BRANCH   1   2
DOCKED: ATOM      2  O   UNL     1     138.313  72.859 222.316 -0.06 +0.17    -0.530 OA 
DOCKED: ATOM      3  H   UNL     1     137.772  72.897 223.171 -0.42 -0.17    +0.290 HD 
DOCKED: ENDBRANCH   1   2
DOCKED: BRANCH   1   4
DOCKED: ATOM      4  N   UNL     1     140.682  72.697 222.857 -0.29 +0.00    -0.546 NA 
DOCKED: BRANCH   4   5
DOCKED: ATOM      5  N   UNL     1     140.511  71.431 223.432 -0.16 +0.04    -0.372 NA 
DOCKED: BRANCH   5   6
DOCKED: ATOM      6  C   UNL     1     140.294  71.264 224.703 -0.43 -0.02    +0.099 C  
DOCKED: BRANCH   6   7
DOCKED: ATOM      7  C   UNL     1     140.180  69.933 225.345 -0.43 -0.01    +0.046 A  
DOCKED: ATOM      8  C   UNL     1     139.255  68.998 224.851 -0.26 -0.03    +0.221 A  
DOCKED: ATOM      9  C   UNL     1     141.024  69.547 226.402 -0.54 -0.00    +0.016 A  
DOCKED: ATOM     10  N   UNL     1     139.157  67.767 225.421 -0.82 +0.00    -0.228 NA 
DOCKED: ATOM     11  C   UNL     1     140.899  68.277 226.968 -0.64 -0.00    +0.021 A  
DOCKED: ATOM     12  C   UNL     1     139.947  67.392 226.461 -0.57 -0.02    +0.114 A  
DOCKED: ATOM     13  F   UNL     1     138.438  69.316 223.817 -0.07 +0.03    -0.184 F  
DOCKED: ENDBRANCH   6   7
DOCKED: ENDBRANCH   5   6
DOCKED: ENDBRANCH   4   5
DOCKED: ENDBRANCH   1   4
DOCKED: BRANCH   1  14
DOCKED: ATOM     14  C   UNL     1     139.886  74.475 221.501 -0.28 +0.00    -0.001 C  
DOCKED: BRANCH  14  15
DOCKED: ATOM     15  C   UNL     1     140.734  74.476 220.260 -0.16 -0.02    +0.071 C  
DOCKED: BRANCH  15  16
DOCKED: ATOM     16  C   UNL     1     141.642  75.710 220.179 -0.17 -0.09    +0.234 C  
DOCKED: BRANCH  16  17
DOCKED: ATOM     17  O   UNL     1     140.899  76.903 220.452 -0.04 +0.20    -0.492 OA 
DOCKED: BRANCH  17  18
DOCKED: ATOM     18  C   UNL     1     141.276  77.906 221.359 -0.27 -0.07    +0.137 A  
DOCKED: ATOM     19  C   UNL     1     141.152  77.742 222.751 -0.42 -0.02    +0.049 A  
DOCKED: ATOM     20  C   UNL     1     141.772  79.120 220.855 -0.29 -0.05    +0.084 A  
DOCKED: ATOM     21  C   UNL     1     141.561  78.757 223.621 -0.58 -0.01    +0.024 A  
DOCKED: ATOM     22  C   UNL     1     142.178  80.134 221.730 -0.44 -0.02    +0.045 A  
DOCKED: ATOM     23  C   UNL     1     142.079  79.950 223.112 -0.58 -0.01    +0.042 A  
DOCKED: ATOM     24  Cl  UNL     1     141.924  79.368 219.122 -0.33 +0.05    -0.080 Cl 
DOCKED: ATOM     25  Cl  UNL     1     142.595  81.222 224.205 -0.64 +0.01    -0.084 Cl 
DOCKED: ENDBRANCH  17  18
DOCKED: ENDBRANCH  16  17
DOCKED: ENDBRANCH  15  16
DOCKED: ENDBRANCH  14  15
DOCKED: ENDBRANCH   1  14
DOCKED: TORSDOF 10
DOCKED: TER
DOCKED: ENDMDL
________________________________________________________________________________


    FINAL DOCKED STATE:
    ________________________


Run:   14 / 20
Time taken for this run:   0.036s

DOCKED: MODEL        14
DOCKED: USER    Run = 14
DOCKED: USER
DOCKED: USER    Estimated Free Energy of Binding    =  -5.60 kcal/mol  [=(1)+(2)+(3)-(4)]
DOCKED: USER
DOCKED: USER    (1) Final Intermolecular Energy     =  -8.58 kcal/mol
DOCKED: USER        vdW + Hbond + desolv Energy     =  -8.82 kcal/mol
DOCKED: USER        Electrostatic Energy            =  +0.24 kcal/mol
DOCKED: USER        Moving Ligand-Fixed Receptor    =  -8.58 kcal/mol
DOCKED: USER        Moving Ligand-Moving Receptor   =  +0.00 kcal/mol
DOCKED: USER    (2) Final Total Internal Energy     =  -0.57 kcal/mol
DOCKED: USER    (3) Torsional Free Energy           =  +2.98 kcal/mol
DOCKED: USER    (4) Unbound System's Energy         =  -0.57 kcal/mol
DOCKED: USER
DOCKED: USER
DOCKED: REMARK SMILES O/C(=C\CCOc1ccc(Cl)cc1Cl)[N-]/N=C\c1cccnc1F
DOCKED: REMARK SMILES IDX 2 1 1 2 15 4 16 5 17 6 18 7 23 8 19 9 22 10 20 11 21 12
DOCKED: REMARK SMILES IDX 24 13 3 14 4 15 5 16 6 17 7 18 8 19 13 20 9 21 12 22 10 23
DOCKED: REMARK SMILES IDX 14 24 11 25
DOCKED: REMARK H PARENT 1 3
DOCKED: USER                              x       y       z     vdW  Elec       q    Type
DOCKED: USER                           _______ _______ _______ _____ _____    ______ ____
DOCKED: ROOT
DOCKED: ATOM      1  C   UNL     1     139.353  74.851 221.578 -0.27 -0.00    +0.023 C  
DOCKED: ENDROOT
DOCKED: BRANCH   1   2
DOCKED: ATOM      2  O   UNL     1     138.458  75.513 220.733 -0.01 +0.12    -0.530 OA 
DOCKED: ATOM      3  H   UNL     1     138.591  76.469 220.424 +0.06 -0.07    +0.290 HD 
DOCKED: ENDBRANCH   1   2
DOCKED: BRANCH   1   4
DOCKED: ATOM      4  N   UNL     1     140.436  75.578 222.153 -0.30 +0.08    -0.546 NA 
DOCKED: BRANCH   4   5
DOCKED: ATOM      5  N   UNL     1     140.724  76.892 221.763 -0.16 +0.13    -0.372 NA 
DOCKED: BRANCH   5   6
DOCKED: ATOM      6  C   UNL     1     140.236  77.928 222.378 -0.34 -0.03    +0.099 C  
DOCKED: BRANCH   6   7
DOCKED: ATOM      7  C   UNL     1     141.058  79.077 222.826 -0.45 -0.01    +0.046 A  
DOCKED: ATOM      8  C   UNL     1     140.446  80.158 223.483 -0.32 -0.04    +0.221 A  
DOCKED: ATOM      9  C   UNL     1     142.457  79.091 222.673 -0.50 -0.01    +0.016 A  
DOCKED: ATOM     10  N   UNL     1     141.196  81.208 223.916 -0.27 +0.03    -0.228 NA 
DOCKED: ATOM     11  C   UNL     1     143.199  80.182 223.126 -0.63 -0.01    +0.021 A  
DOCKED: ATOM     12  C   UNL     1     142.543  81.245 223.749 -0.52 -0.02    +0.114 A  
DOCKED: ATOM     13  F   UNL     1     139.104  80.178 223.676 -0.13 +0.02    -0.184 F  
DOCKED: ENDBRANCH   6   7
DOCKED: ENDBRANCH   5   6
DOCKED: ENDBRANCH   4   5
DOCKED: ENDBRANCH   1   4
DOCKED: BRANCH   1  14
DOCKED: ATOM     14  C   UNL     1     139.226  73.554 221.883 -0.24 +0.00    -0.001 C  
DOCKED: BRANCH  14  15
DOCKED: ATOM     15  C   UNL     1     140.388  72.661 222.216 -0.29 -0.01    +0.071 C  
DOCKED: BRANCH  15  16
DOCKED: ATOM     16  C   UNL     1     139.937  71.281 222.711 -0.21 -0.04    +0.234 C  
DOCKED: BRANCH  16  17
DOCKED: ATOM     17  O   UNL     1     139.389  71.371 224.030 -0.15 +0.12    -0.492 OA 
DOCKED: BRANCH  17  18
DOCKED: ATOM     18  C   UNL     1     139.821  70.633 225.143 -0.38 -0.02    +0.137 A  
DOCKED: ATOM     19  C   UNL     1     140.611  71.204 226.159 -0.59 -0.01    +0.049 A  
DOCKED: ATOM     20  C   UNL     1     139.470  69.276 225.232 -0.36 -0.01    +0.084 A  
DOCKED: ATOM     21  C   UNL     1     141.001  70.441 227.264 -0.59 -0.00    +0.024 A  
DOCKED: ATOM     22  C   UNL     1     139.864  68.516 226.339 -0.55 -0.01    +0.045 A  
DOCKED: ATOM     23  C   UNL     1     140.623  69.099 227.357 -0.59 -0.01    +0.042 A  
DOCKED: ATOM     24  Cl  UNL     1     138.499  68.524 223.975 -0.37 +0.01    -0.080 Cl 
DOCKED: ATOM     25  Cl  UNL     1     141.110  68.144 228.745 -0.68 +0.02    -0.084 Cl 
DOCKED: ENDBRANCH  17  18
DOCKED: ENDBRANCH  16  17
DOCKED: ENDBRANCH  15  16
DOCKED: ENDBRANCH  14  15
DOCKED: ENDBRANCH   1  14
DOCKED: TORSDOF 10
DOCKED: TER
DOCKED: ENDMDL
________________________________________________________________________________


    FINAL DOCKED STATE:
    ________________________


Run:   15 / 20
Time taken for this run:   0.036s

DOCKED: MODEL        15
DOCKED: USER    Run = 15
DOCKED: USER
DOCKED: USER    Estimated Free Energy of Binding    =  -5.90 kcal/mol  [=(1)+(2)+(3)-(4)]
DOCKED: USER
DOCKED: USER    (1) Final Intermolecular Energy     =  -8.89 kcal/mol
DOCKED: USER        vdW + Hbond + desolv Energy     =  -9.12 kcal/mol
DOCKED: USER        Electrostatic Energy            =  +0.23 kcal/mol
DOCKED: USER        Moving Ligand-Fixed Receptor    =  -8.89 kcal/mol
DOCKED: USER        Moving Ligand-Moving Receptor   =  +0.00 kcal/mol
DOCKED: USER    (2) Final Total Internal Energy     =  -1.08 kcal/mol
DOCKED: USER    (3) Torsional Free Energy           =  +2.98 kcal/mol
DOCKED: USER    (4) Unbound System's Energy         =  -1.08 kcal/mol
DOCKED: USER
DOCKED: USER
DOCKED: REMARK SMILES O/C(=C\CCOc1ccc(Cl)cc1Cl)[N-]/N=C\c1cccnc1F
DOCKED: REMARK SMILES IDX 2 1 1 2 15 4 16 5 17 6 18 7 23 8 19 9 22 10 20 11 21 12
DOCKED: REMARK SMILES IDX 24 13 3 14 4 15 5 16 6 17 7 18 8 19 13 20 9 21 12 22 10 23
DOCKED: REMARK SMILES IDX 14 24 11 25
DOCKED: REMARK H PARENT 1 3
DOCKED: USER                              x       y       z     vdW  Elec       q    Type
DOCKED: USER                           _______ _______ _______ _____ _____    ______ ____
DOCKED: ROOT
DOCKED: ATOM      1  C   UNL     1     140.404  74.591 221.616 -0.30 -0.00    +0.023 C  
DOCKED: ENDROOT
DOCKED: BRANCH   1   2
DOCKED: ATOM      2  O   UNL     1     139.528  74.307 222.667 -0.46 +0.07    -0.530 OA 
DOCKED: ATOM      3  H   UNL     1     139.466  73.396 223.107 -0.42 -0.08    +0.290 HD 
DOCKED: ENDBRANCH   1   2
DOCKED: BRANCH   1   4
DOCKED: ATOM      4  N   UNL     1     141.126  75.820 221.625 -0.12 +0.18    -0.546 NA 
DOCKED: BRANCH   4   5
DOCKED: ATOM      5  N   UNL     1     140.829  76.838 222.539 -0.19 +0.12    -0.372 NA 
DOCKED: BRANCH   5   6
DOCKED: ATOM      6  C   UNL     1     140.593  78.062 222.170 -0.35 -0.03    +0.099 C  
DOCKED: BRANCH   6   7
DOCKED: ATOM      7  C   UNL     1     141.273  79.240 222.761 -0.47 -0.01    +0.046 A  
DOCKED: ATOM      8  C   UNL     1     140.519  80.210 223.441 -0.32 -0.04    +0.221 A  
DOCKED: ATOM      9  C   UNL     1     142.671  79.385 222.720 -0.57 -0.01    +0.016 A  
DOCKED: ATOM     10  N   UNL     1     141.136  81.284 224.004 -0.21 +0.02    -0.228 NA 
DOCKED: ATOM     11  C   UNL     1     143.277  80.498 223.305 -0.63 -0.01    +0.021 A  
DOCKED: ATOM     12  C   UNL     1     142.484  81.450 223.946 -0.48 -0.01    +0.114 A  
DOCKED: ATOM     13  F   UNL     1     139.170  80.100 223.529 -0.12 +0.02    -0.184 F  
DOCKED: ENDBRANCH   6   7
DOCKED: ENDBRANCH   5   6
DOCKED: ENDBRANCH   4   5
DOCKED: ENDBRANCH   1   4
DOCKED: BRANCH   1  14
DOCKED: ATOM     14  C   UNL     1     140.603  73.743 220.600 -0.20 +0.00    -0.001 C  
DOCKED: BRANCH  14  15
DOCKED: ATOM     15  C   UNL     1     140.522  72.249 220.737 -0.15 -0.01    +0.071 C  
DOCKED: BRANCH  15  16
DOCKED: ATOM     16  C   UNL     1     141.098  71.756 222.070 -0.11 -0.02    +0.234 C  
DOCKED: BRANCH  16  17
DOCKED: ATOM     17  O   UNL     1     140.080  71.717 223.077 -0.18 +0.08    -0.492 OA 
DOCKED: BRANCH  17  18
DOCKED: ATOM     18  C   UNL     1     140.191  71.077 224.321 -0.37 -0.02    +0.137 A  
DOCKED: ATOM     19  C   UNL     1     140.971  71.605 225.368 -0.47 -0.01    +0.049 A  
DOCKED: ATOM     20  C   UNL     1     139.516  69.861 224.518 -0.32 -0.01    +0.084 A  
DOCKED: ATOM     21  C   UNL     1     141.035  70.949 226.601 -0.64 -0.00    +0.024 A  
DOCKED: ATOM     22  C   UNL     1     139.585  69.207 225.753 -0.43 -0.01    +0.045 A  
DOCKED: ATOM     23  C   UNL     1     140.339  69.753 226.796 -0.53 -0.01    +0.042 A  
DOCKED: ATOM     24  Cl  UNL     1     138.546  69.164 223.230 -0.31 +0.01    -0.080 Cl 
DOCKED: ATOM     25  Cl  UNL     1     140.417  68.933 228.345 -0.78 +0.02    -0.084 Cl 
DOCKED: ENDBRANCH  17  18
DOCKED: ENDBRANCH  16  17
DOCKED: ENDBRANCH  15  16
DOCKED: ENDBRANCH  14  15
DOCKED: ENDBRANCH   1  14
DOCKED: TORSDOF 10
DOCKED: TER
DOCKED: ENDMDL
________________________________________________________________________________


    FINAL DOCKED STATE:
    ________________________


Run:   16 / 20
Time taken for this run:   0.036s

DOCKED: MODEL        16
DOCKED: USER    Run = 16
DOCKED: USER
DOCKED: USER    Estimated Free Energy of Binding    =  -6.00 kcal/mol  [=(1)+(2)+(3)-(4)]
DOCKED: USER
DOCKED: USER    (1) Final Intermolecular Energy     =  -8.98 kcal/mol
DOCKED: USER        vdW + Hbond + desolv Energy     =  -7.99 kcal/mol
DOCKED: USER        Electrostatic Energy            =  -0.99 kcal/mol
DOCKED: USER        Moving Ligand-Fixed Receptor    =  -8.98 kcal/mol
DOCKED: USER        Moving Ligand-Moving Receptor   =  +0.00 kcal/mol
DOCKED: USER    (2) Final Total Internal Energy     =  -0.36 kcal/mol
DOCKED: USER    (3) Torsional Free Energy           =  +2.98 kcal/mol
DOCKED: USER    (4) Unbound System's Energy         =  -0.36 kcal/mol
DOCKED: USER
DOCKED: USER
DOCKED: REMARK SMILES O/C(=C\CCOc1ccc(Cl)cc1Cl)[N-]/N=C\c1cccnc1F
DOCKED: REMARK SMILES IDX 2 1 1 2 15 4 16 5 17 6 18 7 23 8 19 9 22 10 20 11 21 12
DOCKED: REMARK SMILES IDX 24 13 3 14 4 15 5 16 6 17 7 18 8 19 13 20 9 21 12 22 10 23
DOCKED: REMARK SMILES IDX 14 24 11 25
DOCKED: REMARK H PARENT 1 3
DOCKED: USER                              x       y       z     vdW  Elec       q    Type
DOCKED: USER                           _______ _______ _______ _____ _____    ______ ____
DOCKED: ROOT
DOCKED: ATOM      1  C   UNL     1     145.209  73.250 220.053 -0.50 -0.00    +0.023 C  
DOCKED: ENDROOT
DOCKED: BRANCH   1   2
DOCKED: ATOM      2  O   UNL     1     145.540  72.871 221.357 -0.20 +0.12    -0.530 OA 
DOCKED: ATOM      3  H   UNL     1     145.847  71.938 221.602 -0.38 -0.23    +0.290 HD 
DOCKED: ENDBRANCH   1   2
DOCKED: BRANCH   1   4
DOCKED: ATOM      4  N   UNL     1     146.153  73.040 219.006 -0.54 -0.45    -0.546 NA 
DOCKED: BRANCH   4   5
DOCKED: ATOM      5  N   UNL     1     145.875  72.192 217.927 -0.41 -0.41    -0.372 NA 
DOCKED: BRANCH   5   6
DOCKED: ATOM      6  C   UNL     1     144.996  71.237 217.996 -0.14 +0.04    +0.099 C  
DOCKED: BRANCH   6   7
DOCKED: ATOM      7  C   UNL     1     145.312  69.864 218.454 -0.25 +0.01    +0.046 A  
DOCKED: ATOM      8  C   UNL     1     144.806  69.405 219.681 -0.09 +0.06    +0.221 A  
DOCKED: ATOM      9  C   UNL     1     146.056  68.972 217.661 -0.24 +0.00    +0.016 A  
DOCKED: ATOM     10  N   UNL     1     145.074  68.139 220.101 -0.76 -0.05    -0.228 NA 
DOCKED: ATOM     11  C   UNL     1     146.317  67.679 218.118 -0.37 -0.00    +0.021 A  
DOCKED: ATOM     12  C   UNL     1     145.815  67.277 219.357 -0.49 -0.01    +0.114 A  
DOCKED: ATOM     13  F   UNL     1     144.062  70.220 220.469 -0.05 -0.00    -0.184 F  
DOCKED: ENDBRANCH   6   7
DOCKED: ENDBRANCH   5   6
DOCKED: ENDBRANCH   4   5
DOCKED: ENDBRANCH   1   4
DOCKED: BRANCH   1  14
DOCKED: ATOM     14  C   UNL     1     144.026  73.795 219.743 -0.37 +0.00    -0.001 C  
DOCKED: BRANCH  14  15
DOCKED: ATOM     15  C   UNL     1     143.853  74.865 218.702 -0.15 -0.03    +0.071 C  
DOCKED: BRANCH  15  16
DOCKED: ATOM     16  C   UNL     1     143.266  76.155 219.289 -0.27 -0.14    +0.234 C  
DOCKED: BRANCH  16  17
DOCKED: ATOM     17  O   UNL     1     142.144  75.865 220.128 -0.09 +0.24    -0.492 OA 
DOCKED: BRANCH  17  18
DOCKED: ATOM     18  C   UNL     1     141.471  76.793 220.939 -0.22 -0.07    +0.137 A  
DOCKED: ATOM     19  C   UNL     1     141.873  78.139 221.028 -0.28 -0.03    +0.049 A  
DOCKED: ATOM     20  C   UNL     1     140.375  76.355 221.701 -0.32 -0.02    +0.084 A  
DOCKED: ATOM     21  C   UNL     1     141.162  79.038 221.829 -0.37 -0.01    +0.024 A  
DOCKED: ATOM     22  C   UNL     1     139.667  77.258 222.502 -0.31 -0.01    +0.045 A  
DOCKED: ATOM     23  C   UNL     1     140.056  78.599 222.562 -0.35 -0.01    +0.042 A  
DOCKED: ATOM     24  Cl  UNL     1     139.855  74.679 221.628 -0.36 +0.01    -0.080 Cl 
DOCKED: ATOM     25  Cl  UNL     1     139.162  79.728 223.564 -0.49 +0.01    -0.084 Cl 
DOCKED: ENDBRANCH  17  18
DOCKED: ENDBRANCH  16  17
DOCKED: ENDBRANCH  15  16
DOCKED: ENDBRANCH  14  15
DOCKED: ENDBRANCH   1  14
DOCKED: TORSDOF 10
DOCKED: TER
DOCKED: ENDMDL
________________________________________________________________________________


    FINAL DOCKED STATE:
    ________________________


Run:   17 / 20
Time taken for this run:   0.036s

DOCKED: MODEL        17
DOCKED: USER    Run = 17
DOCKED: USER
DOCKED: USER    Estimated Free Energy of Binding    =  -6.06 kcal/mol  [=(1)+(2)+(3)-(4)]
DOCKED: USER
DOCKED: USER    (1) Final Intermolecular Energy     =  -9.05 kcal/mol
DOCKED: USER        vdW + Hbond + desolv Energy     =  -9.03 kcal/mol
DOCKED: USER        Electrostatic Energy            =  -0.02 kcal/mol
DOCKED: USER        Moving Ligand-Fixed Receptor    =  -9.05 kcal/mol
DOCKED: USER        Moving Ligand-Moving Receptor   =  +0.00 kcal/mol
DOCKED: USER    (2) Final Total Internal Energy     =  -0.52 kcal/mol
DOCKED: USER    (3) Torsional Free Energy           =  +2.98 kcal/mol
DOCKED: USER    (4) Unbound System's Energy         =  -0.52 kcal/mol
DOCKED: USER
DOCKED: USER
DOCKED: REMARK SMILES O/C(=C\CCOc1ccc(Cl)cc1Cl)[N-]/N=C\c1cccnc1F
DOCKED: REMARK SMILES IDX 2 1 1 2 15 4 16 5 17 6 18 7 23 8 19 9 22 10 20 11 21 12
DOCKED: REMARK SMILES IDX 24 13 3 14 4 15 5 16 6 17 7 18 8 19 13 20 9 21 12 22 10 23
DOCKED: REMARK SMILES IDX 14 24 11 25
DOCKED: REMARK H PARENT 1 3
DOCKED: USER                              x       y       z     vdW  Elec       q    Type
DOCKED: USER                           _______ _______ _______ _____ _____    ______ ____
DOCKED: ROOT
DOCKED: ATOM      1  C   UNL     1     140.347  74.352 221.703 -0.26 -0.00    +0.023 C  
DOCKED: ENDROOT
DOCKED: BRANCH   1   2
DOCKED: ATOM      2  O   UNL     1     141.363  75.250 222.044 -0.26 +0.11    -0.530 OA 
DOCKED: ATOM      3  H   UNL     1     142.261  75.276 221.576 -0.29 -0.14    +0.290 HD 
DOCKED: ENDBRANCH   1   2
DOCKED: BRANCH   1   4
DOCKED: ATOM      4  N   UNL     1     140.445  72.996 222.133 -0.39 +0.04    -0.546 NA 
DOCKED: BRANCH   4   5
DOCKED: ATOM      5  N   UNL     1     140.322  72.645 223.483 -0.16 +0.03    -0.372 NA 
DOCKED: BRANCH   5   6
DOCKED: ATOM      6  C   UNL     1     140.324  71.410 223.888 -0.36 -0.01    +0.099 C  
DOCKED: BRANCH   6   7
DOCKED: ATOM      7  C   UNL     1     140.409  71.017 225.315 -0.51 -0.01    +0.046 A  
DOCKED: ATOM      8  C   UNL     1     139.984  69.738 225.711 -0.31 -0.04    +0.221 A  
DOCKED: ATOM      9  C   UNL     1     140.969  71.867 226.285 -0.65 -0.00    +0.016 A  
DOCKED: ATOM     10  N   UNL     1     140.077  69.360 227.015 -0.32 +0.04    -0.228 NA 
DOCKED: ATOM     11  C   UNL     1     141.050  71.453 227.616 -0.77 -0.00    +0.021 A  
DOCKED: ATOM     12  C   UNL     1     140.590  70.183 227.966 -0.54 -0.02    +0.114 A  
DOCKED: ATOM     13  F   UNL     1     139.460  68.873 224.807 -0.10 +0.03    -0.184 F  
DOCKED: ENDBRANCH   6   7
DOCKED: ENDBRANCH   5   6
DOCKED: ENDBRANCH   4   5
DOCKED: ENDBRANCH   1   4
DOCKED: BRANCH   1  14
DOCKED: ATOM     14  C   UNL     1     139.273  74.719 220.994 -0.19 +0.00    -0.001 C  
DOCKED: BRANCH  14  15
DOCKED: ATOM     15  C   UNL     1     138.062  75.371 221.600 -0.19 -0.02    +0.071 C  
DOCKED: BRANCH  15  16
DOCKED: ATOM     16  C   UNL     1     137.960  76.857 221.234 -0.09 -0.05    +0.234 C  
DOCKED: BRANCH  16  17
DOCKED: ATOM     17  O   UNL     1     138.105  77.677 222.398 -0.08 +0.09    -0.492 OA 
DOCKED: BRANCH  17  18
DOCKED: ATOM     18  C   UNL     1     139.255  78.402 222.745 -0.26 -0.03    +0.137 A  
DOCKED: ATOM     19  C   UNL     1     140.552  77.903 222.518 -0.40 -0.01    +0.049 A  
DOCKED: ATOM     20  C   UNL     1     139.103  79.657 223.358 -0.34 -0.01    +0.084 A  
DOCKED: ATOM     21  C   UNL     1     141.672  78.669 222.856 -0.51 -0.01    +0.024 A  
DOCKED: ATOM     22  C   UNL     1     140.227  80.419 223.696 -0.40 -0.01    +0.045 A  
DOCKED: ATOM     23  C   UNL     1     141.511  79.928 223.441 -0.54 -0.01    +0.042 A  
DOCKED: ATOM     24  Cl  UNL     1     137.500  80.305 223.672 -0.36 +0.01    -0.080 Cl 
DOCKED: ATOM     25  Cl  UNL     1     142.917  80.888 223.861 -0.75 +0.02    -0.084 Cl 
DOCKED: ENDBRANCH  17  18
DOCKED: ENDBRANCH  16  17
DOCKED: ENDBRANCH  15  16
DOCKED: ENDBRANCH  14  15
DOCKED: ENDBRANCH   1  14
DOCKED: TORSDOF 10
DOCKED: TER
DOCKED: ENDMDL
________________________________________________________________________________


    FINAL DOCKED STATE:
    ________________________


Run:   18 / 20
Time taken for this run:   0.036s

DOCKED: MODEL        18
DOCKED: USER    Run = 18
DOCKED: USER
DOCKED: USER    Estimated Free Energy of Binding    =  -5.53 kcal/mol  [=(1)+(2)+(3)-(4)]
DOCKED: USER
DOCKED: USER    (1) Final Intermolecular Energy     =  -8.52 kcal/mol
DOCKED: USER        vdW + Hbond + desolv Energy     =  -8.45 kcal/mol
DOCKED: USER        Electrostatic Energy            =  -0.07 kcal/mol
DOCKED: USER        Moving Ligand-Fixed Receptor    =  -8.52 kcal/mol
DOCKED: USER        Moving Ligand-Moving Receptor   =  +0.00 kcal/mol
DOCKED: USER    (2) Final Total Internal Energy     =  -1.13 kcal/mol
DOCKED: USER    (3) Torsional Free Energy           =  +2.98 kcal/mol
DOCKED: USER    (4) Unbound System's Energy         =  -1.13 kcal/mol
DOCKED: USER
DOCKED: USER
DOCKED: REMARK SMILES O/C(=C\CCOc1ccc(Cl)cc1Cl)[N-]/N=C\c1cccnc1F
DOCKED: REMARK SMILES IDX 2 1 1 2 15 4 16 5 17 6 18 7 23 8 19 9 22 10 20 11 21 12
DOCKED: REMARK SMILES IDX 24 13 3 14 4 15 5 16 6 17 7 18 8 19 13 20 9 21 12 22 10 23
DOCKED: REMARK SMILES IDX 14 24 11 25
DOCKED: REMARK H PARENT 1 3
DOCKED: USER                              x       y       z     vdW  Elec       q    Type
DOCKED: USER                           _______ _______ _______ _____ _____    ______ ____
DOCKED: ROOT
DOCKED: ATOM      1  C   UNL     1     140.393  74.446 221.537 -0.30 -0.00    +0.023 C  
DOCKED: ENDROOT
DOCKED: BRANCH   1   2
DOCKED: ATOM      2  O   UNL     1     141.450  75.229 222.009 -0.24 +0.11    -0.530 OA 
DOCKED: ATOM      3  H   UNL     1     141.707  76.119 221.599 -0.27 -0.16    +0.290 HD 
DOCKED: ENDBRANCH   1   2
DOCKED: BRANCH   1   4
DOCKED: ATOM      4  N   UNL     1     139.851  73.429 222.375 -0.60 +0.06    -0.546 NA 
DOCKED: BRANCH   4   5
DOCKED: ATOM      5  N   UNL     1     140.674  72.601 223.148 -0.26 +0.00    -0.372 NA 
DOCKED: BRANCH   5   6
DOCKED: ATOM      6  C   UNL     1     140.267  71.467 223.636 -0.35 -0.01    +0.099 C  
DOCKED: BRANCH   6   7
DOCKED: ATOM      7  C   UNL     1     140.297  71.139 225.081 -0.50 -0.01    +0.046 A  
DOCKED: ATOM      8  C   UNL     1     139.593  70.021 225.557 -0.30 -0.03    +0.221 A  
DOCKED: ATOM      9  C   UNL     1     141.072  71.880 225.992 -0.59 -0.00    +0.016 A  
DOCKED: ATOM     10  N   UNL     1     139.631  69.700 226.878 -0.29 +0.03    -0.228 NA 
DOCKED: ATOM     11  C   UNL     1     141.092  71.529 227.342 -0.76 -0.00    +0.021 A  
DOCKED: ATOM     12  C   UNL     1     140.353  70.425 227.773 -0.55 -0.02    +0.114 A  
DOCKED: ATOM     13  F   UNL     1     138.853  69.261 224.712 -0.09 +0.02    -0.184 F  
DOCKED: ENDBRANCH   6   7
DOCKED: ENDBRANCH   5   6
DOCKED: ENDBRANCH   4   5
DOCKED: ENDBRANCH   1   4
DOCKED: BRANCH   1  14
DOCKED: ATOM     14  C   UNL     1     139.856  74.623 220.323 -0.14 +0.00    -0.001 C  
DOCKED: BRANCH  14  15
DOCKED: ATOM     15  C   UNL     1     140.636  75.107 219.133 -0.07 -0.02    +0.071 C  
DOCKED: BRANCH  15  16
DOCKED: ATOM     16  C   UNL     1     141.122  76.551 219.306 -0.09 -0.09    +0.234 C  
DOCKED: BRANCH  16  17
DOCKED: ATOM     17  O   UNL     1     140.333  77.237 220.283 -0.00 +0.17    -0.492 OA 
DOCKED: BRANCH  17  18
DOCKED: ATOM     18  C   UNL     1     140.809  78.207 221.179 -0.22 -0.05    +0.137 A  
DOCKED: ATOM     19  C   UNL     1     141.981  78.947 220.930 -0.21 -0.03    +0.049 A  
DOCKED: ATOM     20  C   UNL     1     140.102  78.429 222.372 -0.31 -0.02    +0.084 A  
DOCKED: ATOM     21  C   UNL     1     142.408  79.921 221.837 -0.40 -0.01    +0.024 A  
DOCKED: ATOM     22  C   UNL     1     140.534  79.404 223.278 -0.45 -0.01    +0.045 A  
DOCKED: ATOM     23  C   UNL     1     141.682  80.153 223.009 -0.53 -0.01    +0.042 A  
DOCKED: ATOM     24  Cl  UNL     1     138.644  77.513 222.726 -0.33 +0.01    -0.080 Cl 
DOCKED: ATOM     25  Cl  UNL     1     142.218  81.378 224.145 -0.60 +0.01    -0.084 Cl 
DOCKED: ENDBRANCH  17  18
DOCKED: ENDBRANCH  16  17
DOCKED: ENDBRANCH  15  16
DOCKED: ENDBRANCH  14  15
DOCKED: ENDBRANCH   1  14
DOCKED: TORSDOF 10
DOCKED: TER
DOCKED: ENDMDL
________________________________________________________________________________


    FINAL DOCKED STATE:
    ________________________


Run:   19 / 20
Time taken for this run:   0.036s

DOCKED: MODEL        19
DOCKED: USER    Run = 19
DOCKED: USER
DOCKED: USER    Estimated Free Energy of Binding    =  -6.48 kcal/mol  [=(1)+(2)+(3)-(4)]
DOCKED: USER
DOCKED: USER    (1) Final Intermolecular Energy     =  -9.47 kcal/mol
DOCKED: USER        vdW + Hbond + desolv Energy     =  -9.35 kcal/mol
DOCKED: USER        Electrostatic Energy            =  -0.11 kcal/mol
DOCKED: USER        Moving Ligand-Fixed Receptor    =  -9.47 kcal/mol
DOCKED: USER        Moving Ligand-Moving Receptor   =  +0.00 kcal/mol
DOCKED: USER    (2) Final Total Internal Energy     =  -0.50 kcal/mol
DOCKED: USER    (3) Torsional Free Energy           =  +2.98 kcal/mol
DOCKED: USER    (4) Unbound System's Energy         =  -0.50 kcal/mol
DOCKED: USER
DOCKED: USER
DOCKED: REMARK SMILES O/C(=C\CCOc1ccc(Cl)cc1Cl)[N-]/N=C\c1cccnc1F
DOCKED: REMARK SMILES IDX 2 1 1 2 15 4 16 5 17 6 18 7 23 8 19 9 22 10 20 11 21 12
DOCKED: REMARK SMILES IDX 24 13 3 14 4 15 5 16 6 17 7 18 8 19 13 20 9 21 12 22 10 23
DOCKED: REMARK SMILES IDX 14 24 11 25
DOCKED: REMARK H PARENT 1 3
DOCKED: USER                              x       y       z     vdW  Elec       q    Type
DOCKED: USER                           _______ _______ _______ _____ _____    ______ ____
DOCKED: ROOT
DOCKED: ATOM      1  C   UNL     1     140.272  73.418 221.980 -0.27 -0.00    +0.023 C  
DOCKED: ENDROOT
DOCKED: BRANCH   1   2
DOCKED: ATOM      2  O   UNL     1     139.390  74.432 222.366 -0.60 +0.09    -0.530 OA 
DOCKED: ATOM      3  H   UNL     1     138.678  74.307 223.076 -0.50 -0.18    +0.290 HD 
DOCKED: ENDBRANCH   1   2
DOCKED: BRANCH   1   4
DOCKED: ATOM      4  N   UNL     1     140.711  72.471 222.950 -0.21 +0.01    -0.546 NA 
DOCKED: BRANCH   4   5
DOCKED: ATOM      5  N   UNL     1     139.896  71.407 223.358 -0.17 +0.07    -0.372 NA 
DOCKED: BRANCH   5   6
DOCKED: ATOM      6  C   UNL     1     139.590  71.198 224.603 -0.36 -0.02    +0.099 C  
DOCKED: BRANCH   6   7
DOCKED: ATOM      7  C   UNL     1     139.801  69.902 225.291 -0.41 -0.01    +0.046 A  
DOCKED: ATOM      8  C   UNL     1     138.997  68.799 224.960 -0.27 -0.02    +0.221 A  
DOCKED: ATOM      9  C   UNL     1     140.836  69.721 226.227 -0.52 -0.00    +0.016 A  
DOCKED: ATOM     10  N   UNL     1     139.197  67.600 225.571 -0.84 -0.00    -0.228 NA 
DOCKED: ATOM     11  C   UNL     1     141.016  68.479 226.839 -0.61 -0.00    +0.021 A  
DOCKED: ATOM     12  C   UNL     1     140.175  67.420 226.498 -0.58 -0.02    +0.114 A  
DOCKED: ATOM     13  F   UNL     1     138.004  68.918 224.045 -0.08 +0.02    -0.184 F  
DOCKED: ENDBRANCH   6   7
DOCKED: ENDBRANCH   5   6
DOCKED: ENDBRANCH   4   5
DOCKED: ENDBRANCH   1   4
DOCKED: BRANCH   1  14
DOCKED: ATOM     14  C   UNL     1     140.714  73.293 220.723 -0.21 +0.00    -0.001 C  
DOCKED: BRANCH  14  15
DOCKED: ATOM     15  C   UNL     1     142.151  73.479 220.326 -0.21 -0.01    +0.071 C  
DOCKED: BRANCH  15  16
DOCKED: ATOM     16  C   UNL     1     142.517  74.958 220.148 -0.21 -0.09    +0.234 C  
DOCKED: BRANCH  16  17
DOCKED: ATOM     17  O   UNL     1     141.383  75.794 220.400 -0.06 +0.19    -0.492 OA 
DOCKED: BRANCH  17  18
DOCKED: ATOM     18  C   UNL     1     141.401  76.995 221.127 -0.23 -0.07    +0.137 A  
DOCKED: ATOM     19  C   UNL     1     141.047  77.052 222.488 -0.37 -0.02    +0.049 A  
DOCKED: ATOM     20  C   UNL     1     141.766  78.179 220.465 -0.27 -0.05    +0.084 A  
DOCKED: ATOM     21  C   UNL     1     141.102  78.264 223.182 -0.49 -0.01    +0.024 A  
DOCKED: ATOM     22  C   UNL     1     141.818  79.390 221.164 -0.35 -0.02    +0.045 A  
DOCKED: ATOM     23  C   UNL     1     141.492  79.433 222.522 -0.47 -0.01    +0.042 A  
DOCKED: ATOM     24  Cl  UNL     1     142.199  78.150 218.763 -0.37 +0.05    -0.080 Cl 
DOCKED: ATOM     25  Cl  UNL     1     141.564  80.952 223.395 -0.69 +0.01    -0.084 Cl 
DOCKED: ENDBRANCH  17  18
DOCKED: ENDBRANCH  16  17
DOCKED: ENDBRANCH  15  16
DOCKED: ENDBRANCH  14  15
DOCKED: ENDBRANCH   1  14
DOCKED: TORSDOF 10
DOCKED: TER
DOCKED: ENDMDL
________________________________________________________________________________


    FINAL DOCKED STATE:
    ________________________


Run:   20 / 20
Time taken for this run:   0.036s

DOCKED: MODEL        20
DOCKED: USER    Run = 20
DOCKED: USER
DOCKED: USER    Estimated Free Energy of Binding    =  -5.93 kcal/mol  [=(1)+(2)+(3)-(4)]
DOCKED: USER
DOCKED: USER    (1) Final Intermolecular Energy     =  -8.92 kcal/mol
DOCKED: USER        vdW + Hbond + desolv Energy     =  -8.91 kcal/mol
DOCKED: USER        Electrostatic Energy            =  -0.00 kcal/mol
DOCKED: USER        Moving Ligand-Fixed Receptor    =  -8.92 kcal/mol
DOCKED: USER        Moving Ligand-Moving Receptor   =  +0.00 kcal/mol
DOCKED: USER    (2) Final Total Internal Energy     =  -0.99 kcal/mol
DOCKED: USER    (3) Torsional Free Energy           =  +2.98 kcal/mol
DOCKED: USER    (4) Unbound System's Energy         =  -0.99 kcal/mol
DOCKED: USER
DOCKED: USER
DOCKED: REMARK SMILES O/C(=C\CCOc1ccc(Cl)cc1Cl)[N-]/N=C\c1cccnc1F
DOCKED: REMARK SMILES IDX 2 1 1 2 15 4 16 5 17 6 18 7 23 8 19 9 22 10 20 11 21 12
DOCKED: REMARK SMILES IDX 24 13 3 14 4 15 5 16 6 17 7 18 8 19 13 20 9 21 12 22 10 23
DOCKED: REMARK SMILES IDX 14 24 11 25
DOCKED: REMARK H PARENT 1 3
DOCKED: USER                              x       y       z     vdW  Elec       q    Type
DOCKED: USER                           _______ _______ _______ _____ _____    ______ ____
DOCKED: ROOT
DOCKED: ATOM      1  C   UNL     1     138.530  68.658 223.745 -0.29 -0.00    +0.023 C  
DOCKED: ENDROOT
DOCKED: BRANCH   1   2
DOCKED: ATOM      2  O   UNL     1     137.136  68.614 223.659 -0.03 +0.03    -0.530 OA 
DOCKED: ATOM      3  H   UNL     1     136.534  68.489 224.465 +0.10 +0.02    +0.290 HD 
DOCKED: ENDBRANCH   1   2
DOCKED: BRANCH   1   4
DOCKED: ATOM      4  N   UNL     1     139.205  67.725 224.585 -0.50 +0.02    -0.546 NA 
DOCKED: BRANCH   4   5
DOCKED: ATOM      5  N   UNL     1     138.963  67.670 225.963 -0.63 -0.01    -0.372 NA 
DOCKED: BRANCH   5   6
DOCKED: ATOM      6  C   UNL     1     139.834  68.064 226.844 -0.58 -0.02    +0.099 C  
DOCKED: BRANCH   6   7
DOCKED: ATOM      7  C   UNL     1     140.269  69.473 226.991 -0.54 -0.01    +0.046 A  
DOCKED: ATOM      8  C   UNL     1     139.942  70.184 228.158 -0.43 -0.04    +0.221 A  
DOCKED: ATOM      9  C   UNL     1     141.066  70.107 226.021 -0.54 -0.00    +0.016 A  
DOCKED: ATOM     10  N   UNL     1     140.354  71.472 228.311 -0.48 +0.05    -0.228 NA 
DOCKED: ATOM     11  C   UNL     1     141.473  71.429 226.205 -0.62 -0.00    +0.021 A  
DOCKED: ATOM     12  C   UNL     1     141.100  72.104 227.368 -0.71 -0.02    +0.114 A  
DOCKED: ATOM     13  F   UNL     1     139.198  69.606 229.133 -0.14 +0.02    -0.184 F  
DOCKED: ENDBRANCH   6   7
DOCKED: ENDBRANCH   5   6
DOCKED: ENDBRANCH   4   5
DOCKED: ENDBRANCH   1   4
DOCKED: BRANCH   1  14
DOCKED: ATOM     14  C   UNL     1     139.263  69.540 223.055 -0.22 +0.00    -0.001 C  
DOCKED: BRANCH  14  15
DOCKED: ATOM     15  C   UNL     1     138.826  70.953 222.786 -0.22 -0.01    +0.071 C  
DOCKED: BRANCH  15  16
DOCKED: ATOM     16  C   UNL     1     139.814  71.983 223.347 -0.16 -0.05    +0.234 C  
DOCKED: BRANCH  16  17
DOCKED: ATOM     17  O   UNL     1     140.137  72.965 222.358 -0.54 +0.05    -0.492 OA 
DOCKED: BRANCH  17  18
DOCKED: ATOM     18  C   UNL     1     141.340  73.031 221.637 -0.19 -0.01    +0.137 A  
DOCKED: ATOM     19  C   UNL     1     142.106  71.884 221.353 -0.16 -0.00    +0.049 A  
DOCKED: ATOM     20  C   UNL     1     141.801  74.285 221.205 -0.22 -0.02    +0.084 A  
DOCKED: ATOM     21  C   UNL     1     143.286  71.989 220.611 -0.28 -0.00    +0.024 A  
DOCKED: ATOM     22  C   UNL     1     142.984  74.385 220.464 -0.32 -0.02    +0.045 A  
DOCKED: ATOM     23  C   UNL     1     143.723  73.238 220.162 -0.32 -0.01    +0.042 A  
DOCKED: ATOM     24  Cl  UNL     1     140.881  75.740 221.554 -0.44 +0.02    -0.080 Cl 
DOCKED: ATOM     25  Cl  UNL     1     145.203  73.368 219.228 -0.45 -0.00    -0.084 Cl 
DOCKED: ENDBRANCH  17  18
DOCKED: ENDBRANCH  16  17
DOCKED: ENDBRANCH  15  16
DOCKED: ENDBRANCH  14  15
DOCKED: ENDBRANCH   1  14
DOCKED: TORSDOF 10
DOCKED: TER
DOCKED: ENDMDL
________________________________________________________________________________


    CLUSTERING HISTOGRAM
    ____________________


________________________________________________________________________________
     |           |     |           |     |
Clus | Lowest    | Run | Mean      | Num | Histogram
-ter | Binding   |     | Binding   | in  |
Rank | Energy    |     | Energy    | Clus|    5    10   15   20   25   30   35
_____|___________|_____|___________|_____|____:____|____:____|____:____|____:___
   1 |     -6.48 |  19 |     -6.12 |   6 |######
   2 |     -6.06 |  17 |     -6.06 |   1 |#
   3 |     -6.05 |   1 |     -5.83 |   6 |######
   4 |     -6.00 |  16 |     -6.00 |   1 |#
   5 |     -5.96 |   3 |     -5.81 |   3 |###
   6 |     -5.95 |   9 |     -5.73 |   2 |##
   7 |     -5.39 |   5 |     -5.39 |   1 |#
_____|___________|_____|___________|_____|______________________________________


    RMSD TABLE
    __________


_______________________________________________________________________
     |      |      |           |         |                 |
Rank | Sub- | Run  | Binding   | Cluster | Reference       | Grep
     | Rank |      | Energy    | RMSD    | RMSD            | Pattern
_____|______|______|___________|_________|_________________|___________
   1      1     19       -6.48      0.00    271.86           RANKING
   1      2     12       -6.32      1.49    272.45           RANKING
   1      3      4       -6.25      1.14    272.41           RANKING
   1      4     13       -6.14      0.95    272.05           RANKING
   1      5      2       -5.99      1.62    272.62           RANKING
   1      6     18       -5.53      1.88    272.30           RANKING
   2      1     17       -6.06      0.00    272.58           RANKING
   3      1      1       -6.05      0.00    272.74           RANKING
   3      2      8       -6.04      0.65    272.54           RANKING
   3      3     15       -5.90      1.36    272.63           RANKING
   3      4      6       -5.85      1.46    272.59           RANKING
   3      5     14       -5.60      1.42    272.61           RANKING
   3      6     11       -5.51      1.53    272.09           RANKING
   4      1     16       -6.00      0.00    271.14           RANKING
   5      1      3       -5.96      0.00    271.91           RANKING
   5      2     20       -5.93      1.01    271.96           RANKING
   5      3      7       -5.53      0.79    271.91           RANKING
   6      1      9       -5.95      0.00    272.57           RANKING
   6      2     10       -5.52      1.76    272.21           RANKING
   7      1      5       -5.39      0.00    271.83           RANKING

Run time 0.693 sec
Idle time 0.000 sec
