AutoDock-GPU version: v1.6

**********************************************************
**    AutoDock-GPU AUTODOCKTOOLS-COMPATIBLE DLG FILE    **
**********************************************************


    DOCKING PARAMETERS
    ________________________


Ligand file:                               /home/a/REINVENT4/ReinventStudies/scoringData/graph-dock-h4r84i/graph-DockGPU/node-autodockgpu/inputs/QFPZKQQOUZJSQV-ZHMKIILHNA-N.pdbqt
Grid fld file:                             /home/a/REINVENT4/ReinventStudies/mols/Rad51/maps/rad51_receptor.maps.fld

Random seed:                               42
Number of runs:                            20
Number of energy evaluations:              2542121
Number of generations:                     42000
Size of population:                        150
Rate of crossover:                         80.000000%
Tournament selection probability limit:    60.000000%
Rate of mutation:                          2.000000%
Maximal allowed delta movement:            +/- 6.000000A
Maximal allowed delta angle:               +/- 90.000000

Rate of local search:                      100.000000%
Maximal number of local search iterations: 300
Rho lower bound:                           0.010000
Spread of local search delta movement:     2.000000A
Spread of local search delta angle:        74.999999
Limit of consecutive successes/failures:   4

Handle symmetry during clustering:         YES
RMSD tolerance:                            2.000000A

Program call in command line was:          /home/a/REINVENT4/ReinventStudies/adgpu-v1.6_linux_x64_cuda12_128wi --filelist batch.txt --heuristics 1 --nrun 20 --psize 150 --lsit 300 --seed 42 --heurmax 12000000 


    GRID PARAMETERS
    ________________________


Receptor name:                             rad51_receptor
Number of grid points (x, y, z):           53, 53, 53
Grid center (x, y, z):                     139.950000, 75.640000, 221.970000A
Grid size (x, y, z):                       19.500000, 19.500000, 19.500000A
Grid spacing:                              0.375000A


    LIGAND PARAMETERS
    ________________________


Ligand name:                               /home/a/REINVENT4/ReinventStudies/scoringData/graph-dock-h4r84i/graph-DockGPU/node-autodockgpu/inputs/QFPZKQQOUZJSQV-ZHMKIILHNA-N
Number of atoms:                           25
Number of rotatable bonds:                 10
Number of atom types:                      7


    DUMMY DATA (only for ADT-compatibility)
    ________________________


DPF> outlev 1
DPF> ga_run 20
DPF> fld /home/a/REINVENT4/ReinventStudies/mols/Rad51/maps/rad51_receptor.maps.fld
DPF> move /home/a/REINVENT4/ReinventStudies/scoringData/graph-dock-h4r84i/graph-DockGPU/node-autodockgpu/inputs/QFPZKQQOUZJSQV-ZHMKIILHNA-N.pdbqt


    COUNTER STATES
    ________________________


Number of energy evaluations performed:    931972
Number of generations used:                45


    INPUT LIGAND PDBQT FILE:
    ________________________


INPUT-LIGAND-PDBQT: REMARK SMILES O/C(=C/CCOc1ccc(Cl)cc1Cl)[N-]/N=C\c1cccnc1F
INPUT-LIGAND-PDBQT: REMARK SMILES IDX 2 1 1 2 15 4 16 5 17 6 18 7 23 8 19 9 22 10 20 11 21 12
INPUT-LIGAND-PDBQT: REMARK SMILES IDX 24 13 3 14 4 15 5 16 6 17 7 18 8 19 13 20 9 21 12 22 10 23
INPUT-LIGAND-PDBQT: REMARK SMILES IDX 14 24 11 25
INPUT-LIGAND-PDBQT: REMARK H PARENT 1 3
INPUT-LIGAND-PDBQT: ROOT
INPUT-LIGAND-PDBQT: ATOM      1  C   UNL     1       1.000   2.594   0.842  1.00  0.00     0.023 C 
INPUT-LIGAND-PDBQT: ENDROOT
INPUT-LIGAND-PDBQT: BRANCH   1   2
INPUT-LIGAND-PDBQT: ATOM      2  O   UNL     1       2.125   3.228   1.370  1.00  0.00    -0.530 OA
INPUT-LIGAND-PDBQT: ATOM      3  H   UNL     1       2.272   3.329   2.368  1.00  0.00     0.290 HD
INPUT-LIGAND-PDBQT: ENDBRANCH   1   2
INPUT-LIGAND-PDBQT: BRANCH   1   4
INPUT-LIGAND-PDBQT: ATOM      4  N   UNL     1       0.909   2.511  -0.589  1.00  0.00    -0.546 NA
INPUT-LIGAND-PDBQT: BRANCH   4   5
INPUT-LIGAND-PDBQT: ATOM      5  N   UNL     1      -0.187   1.996  -1.296  1.00  0.00    -0.372 NA
INPUT-LIGAND-PDBQT: BRANCH   5   6
INPUT-LIGAND-PDBQT: ATOM      6  C   UNL     1      -0.224   1.921  -2.593  1.00  0.00     0.099 C 
INPUT-LIGAND-PDBQT: BRANCH   6   7
INPUT-LIGAND-PDBQT: ATOM      7  C   UNL     1       0.891   2.344  -3.471  1.00  0.00     0.046 A 
INPUT-LIGAND-PDBQT: ATOM      8  C   UNL     1       0.615   3.023  -4.669  1.00  0.00     0.221 A 
INPUT-LIGAND-PDBQT: ATOM      9  C   UNL     1       2.227   2.017  -3.179  1.00  0.00     0.016 A 
INPUT-LIGAND-PDBQT: ATOM     10  N   UNL     1       1.630   3.389  -5.498  1.00  0.00    -0.228 NA
INPUT-LIGAND-PDBQT: ATOM     11  C   UNL     1       3.248   2.405  -4.048  1.00  0.00     0.021 A 
INPUT-LIGAND-PDBQT: ATOM     12  C   UNL     1       2.927   3.102  -5.213  1.00  0.00     0.114 A 
INPUT-LIGAND-PDBQT: ATOM     13  F   UNL     1      -0.661   3.337  -5.006  1.00  0.00    -0.184 F 
INPUT-LIGAND-PDBQT: ENDBRANCH   6   7
INPUT-LIGAND-PDBQT: ENDBRANCH   5   6
INPUT-LIGAND-PDBQT: ENDBRANCH   4   5
INPUT-LIGAND-PDBQT: ENDBRANCH   1   4
INPUT-LIGAND-PDBQT: BRANCH   1  14
INPUT-LIGAND-PDBQT: ATOM     14  C   UNL     1       0.076   2.096   1.689  1.00  0.00    -0.001 C 
INPUT-LIGAND-PDBQT: BRANCH  14  15
INPUT-LIGAND-PDBQT: ATOM     15  C   UNL     1      -1.174   1.361   1.280  1.00  0.00     0.071 C 
INPUT-LIGAND-PDBQT: BRANCH  15  16
INPUT-LIGAND-PDBQT: ATOM     16  C   UNL     1      -1.972   0.878   2.497  1.00  0.00     0.234 C 
INPUT-LIGAND-PDBQT: BRANCH  16  17
INPUT-LIGAND-PDBQT: ATOM     17  O   UNL     1      -1.201  -0.020   3.298  1.00  0.00    -0.492 OA
INPUT-LIGAND-PDBQT: BRANCH  17  18
INPUT-LIGAND-PDBQT: ATOM     18  C   UNL     1      -0.884  -1.349   2.966  1.00  0.00     0.137 A 
INPUT-LIGAND-PDBQT: ATOM     19  C   UNL     1      -1.453  -2.009   1.858  1.00  0.00     0.049 A 
INPUT-LIGAND-PDBQT: ATOM     20  C   UNL     1       0.029  -2.043   3.778  1.00  0.00     0.084 A 
INPUT-LIGAND-PDBQT: ATOM     21  C   UNL     1      -1.105  -3.332   1.569  1.00  0.00     0.024 A 
INPUT-LIGAND-PDBQT: ATOM     22  C   UNL     1       0.373  -3.367   3.484  1.00  0.00     0.045 A 
INPUT-LIGAND-PDBQT: ATOM     23  C   UNL     1      -0.192  -4.011   2.380  1.00  0.00     0.042 A 
INPUT-LIGAND-PDBQT: ATOM     24  Cl  UNL     1       0.759  -1.256   5.169  1.00  0.00    -0.080 Cl
INPUT-LIGAND-PDBQT: ATOM     25  Cl  UNL     1       0.242  -5.671   2.014  1.00  0.00    -0.084 Cl
INPUT-LIGAND-PDBQT: ENDBRANCH  17  18
INPUT-LIGAND-PDBQT: ENDBRANCH  16  17
INPUT-LIGAND-PDBQT: ENDBRANCH  15  16
INPUT-LIGAND-PDBQT: ENDBRANCH  14  15
INPUT-LIGAND-PDBQT: ENDBRANCH   1  14
INPUT-LIGAND-PDBQT: TORSDOF 10


    FINAL DOCKED STATE:
    ________________________


Run:   1 / 20
Time taken for this run:   0.036s

DOCKED: MODEL        1
DOCKED: USER    Run = 1
DOCKED: USER
DOCKED: USER    Estimated Free Energy of Binding    =  -5.61 kcal/mol  [=(1)+(2)+(3)-(4)]
DOCKED: USER
DOCKED: USER    (1) Final Intermolecular Energy     =  -8.60 kcal/mol
DOCKED: USER        vdW + Hbond + desolv Energy     =  -8.65 kcal/mol
DOCKED: USER        Electrostatic Energy            =  +0.05 kcal/mol
DOCKED: USER        Moving Ligand-Fixed Receptor    =  -8.60 kcal/mol
DOCKED: USER        Moving Ligand-Moving Receptor   =  +0.00 kcal/mol
DOCKED: USER    (2) Final Total Internal Energy     =  -1.19 kcal/mol
DOCKED: USER    (3) Torsional Free Energy           =  +2.98 kcal/mol
DOCKED: USER    (4) Unbound System's Energy         =  -1.19 kcal/mol
DOCKED: USER
DOCKED: USER
DOCKED: REMARK SMILES O/C(=C/CCOc1ccc(Cl)cc1Cl)[N-]/N=C\c1cccnc1F
DOCKED: REMARK SMILES IDX 2 1 1 2 15 4 16 5 17 6 18 7 23 8 19 9 22 10 20 11 21 12
DOCKED: REMARK SMILES IDX 24 13 3 14 4 15 5 16 6 17 7 18 8 19 13 20 9 21 12 22 10 23
DOCKED: REMARK SMILES IDX 14 24 11 25
DOCKED: REMARK H PARENT 1 3
DOCKED: USER                              x       y       z     vdW  Elec       q    Type
DOCKED: USER                           _______ _______ _______ _____ _____    ______ ____
DOCKED: ROOT
DOCKED: ATOM      1  C   UNL     1     140.098  72.061 222.069 -0.28 -0.00    +0.023 C  
DOCKED: ENDROOT
DOCKED: BRANCH   1   2
DOCKED: ATOM      2  O   UNL     1     140.292  72.980 223.101 -0.39 +0.00    -0.530 OA 
DOCKED: ATOM      3  H   UNL     1     139.618  73.707 223.313 -0.39 -0.05    +0.290 HD 
DOCKED: ENDBRANCH   1   2
DOCKED: BRANCH   1   4
DOCKED: ATOM      4  N   UNL     1     139.720  70.727 222.445 -0.01 +0.09    -0.546 NA 
DOCKED: BRANCH   4   5
DOCKED: ATOM      5  N   UNL     1     139.172  70.367 223.685 -0.10 +0.07    -0.372 NA 
DOCKED: BRANCH   5   6
DOCKED: ATOM      6  C   UNL     1     139.845  69.741 224.604 -0.30 -0.02    +0.099 C  
DOCKED: BRANCH   6   7
DOCKED: ATOM      7  C   UNL     1     140.288  70.371 225.868 -0.50 -0.01    +0.046 A  
DOCKED: ATOM      8  C   UNL     1     140.059  69.717 227.090 -0.39 -0.04    +0.221 A  
DOCKED: ATOM      9  C   UNL     1     140.868  71.652 225.892 -0.59 -0.00    +0.016 A  
DOCKED: ATOM     10  N   UNL     1     140.435  70.302 228.260 -0.36 +0.04    -0.228 NA 
DOCKED: ATOM     11  C   UNL     1     141.243  72.227 227.107 -0.77 -0.00    +0.021 A  
DOCKED: ATOM     12  C   UNL     1     141.021  71.527 228.293 -0.65 -0.03    +0.114 A  
DOCKED: ATOM     13  F   UNL     1     139.479  68.492 227.118 -0.17 +0.03    -0.184 F  
DOCKED: ENDBRANCH   6   7
DOCKED: ENDBRANCH   5   6
DOCKED: ENDBRANCH   4   5
DOCKED: ENDBRANCH   1   4
DOCKED: BRANCH   1  14
DOCKED: ATOM     14  C   UNL     1     140.268  72.468 220.794 -0.17 +0.00    -0.001 C  
DOCKED: BRANCH  14  15
DOCKED: ATOM     15  C   UNL     1     139.962  73.848 220.273 -0.11 -0.01    +0.071 C  
DOCKED: BRANCH  15  16
DOCKED: ATOM     16  C   UNL     1     138.822  74.511 221.056 -0.12 -0.05    +0.234 C  
DOCKED: BRANCH  16  17
DOCKED: ATOM     17  O   UNL     1     139.296  75.074 222.281 -0.45 +0.10    -0.492 OA 
DOCKED: BRANCH  17  18
DOCKED: ATOM     18  C   UNL     1     139.708  76.406 222.466 -0.26 -0.03    +0.137 A  
DOCKED: ATOM     19  C   UNL     1     141.065  76.787 222.452 -0.35 -0.02    +0.049 A  
DOCKED: ATOM     20  C   UNL     1     138.725  77.387 222.681 -0.27 -0.01    +0.084 A  
DOCKED: ATOM     21  C   UNL     1     141.424  78.125 222.640 -0.45 -0.01    +0.024 A  
DOCKED: ATOM     22  C   UNL     1     139.091  78.725 222.870 -0.30 -0.01    +0.045 A  
DOCKED: ATOM     23  C   UNL     1     140.439  79.094 222.848 -0.40 -0.01    +0.042 A  
DOCKED: ATOM     24  Cl  UNL     1     137.024  76.952 222.708 -0.29 +0.01    -0.080 Cl 
DOCKED: ATOM     25  Cl  UNL     1     140.894  80.772 223.084 -0.58 +0.01    -0.084 Cl 
DOCKED: ENDBRANCH  17  18
DOCKED: ENDBRANCH  16  17
DOCKED: ENDBRANCH  15  16
DOCKED: ENDBRANCH  14  15
DOCKED: ENDBRANCH   1  14
DOCKED: TORSDOF 10
DOCKED: TER
DOCKED: ENDMDL
________________________________________________________________________________


    FINAL DOCKED STATE:
    ________________________


Run:   2 / 20
Time taken for this run:   0.036s

DOCKED: MODEL        2
DOCKED: USER    Run = 2
DOCKED: USER
DOCKED: USER    Estimated Free Energy of Binding    =  -6.78 kcal/mol  [=(1)+(2)+(3)-(4)]
DOCKED: USER
DOCKED: USER    (1) Final Intermolecular Energy     =  -9.76 kcal/mol
DOCKED: USER        vdW + Hbond + desolv Energy     =  -8.67 kcal/mol
DOCKED: USER        Electrostatic Energy            =  -1.09 kcal/mol
DOCKED: USER        Moving Ligand-Fixed Receptor    =  -9.76 kcal/mol
DOCKED: USER        Moving Ligand-Moving Receptor   =  +0.00 kcal/mol
DOCKED: USER    (2) Final Total Internal Energy     =  -0.31 kcal/mol
DOCKED: USER    (3) Torsional Free Energy           =  +2.98 kcal/mol
DOCKED: USER    (4) Unbound System's Energy         =  -0.31 kcal/mol
DOCKED: USER
DOCKED: USER
DOCKED: REMARK SMILES O/C(=C/CCOc1ccc(Cl)cc1Cl)[N-]/N=C\c1cccnc1F
DOCKED: REMARK SMILES IDX 2 1 1 2 15 4 16 5 17 6 18 7 23 8 19 9 22 10 20 11 21 12
DOCKED: REMARK SMILES IDX 24 13 3 14 4 15 5 16 6 17 7 18 8 19 13 20 9 21 12 22 10 23
DOCKED: REMARK SMILES IDX 14 24 11 25
DOCKED: REMARK H PARENT 1 3
DOCKED: USER                              x       y       z     vdW  Elec       q    Type
DOCKED: USER                           _______ _______ _______ _____ _____    ______ ____
DOCKED: ROOT
DOCKED: ATOM      1  C   UNL     1     145.781  73.280 220.416 -0.60 +0.00    +0.023 C  
DOCKED: ENDROOT
DOCKED: BRANCH   1   2
DOCKED: ATOM      2  O   UNL     1     146.689  73.049 221.449 -0.27 +0.01    -0.530 OA 
DOCKED: ATOM      3  H   UNL     1     146.628  72.236 222.052 -0.30 -0.12    +0.290 HD 
DOCKED: ENDBRANCH   1   2
DOCKED: BRANCH   1   4
DOCKED: ATOM      4  N   UNL     1     146.238  73.030 219.077 -0.52 -0.48    -0.546 NA 
DOCKED: BRANCH   4   5
DOCKED: ATOM      5  N   UNL     1     145.606  72.180 218.158 -0.53 -0.29    -0.372 NA 
DOCKED: BRANCH   5   6
DOCKED: ATOM      6  C   UNL     1     144.620  71.395 218.477 -0.16 +0.02    +0.099 C  
DOCKED: BRANCH   6   7
DOCKED: ATOM      7  C   UNL     1     144.792  69.971 218.845 -0.23 +0.01    +0.046 A  
DOCKED: ATOM      8  C   UNL     1     146.027  69.524 219.342 -0.17 +0.13    +0.221 A  
DOCKED: ATOM      9  C   UNL     1     143.772  69.026 218.639 -0.18 -0.00    +0.016 A  
DOCKED: ATOM     10  N   UNL     1     146.205  68.212 219.654 -0.77 -0.06    -0.228 NA 
DOCKED: ATOM     11  C   UNL     1     143.983  67.686 218.968 -0.29 -0.00    +0.021 A  
DOCKED: ATOM     12  C   UNL     1     145.218  67.295 219.484 -0.42 -0.02    +0.114 A  
DOCKED: ATOM     13  F   UNL     1     147.050  70.395 219.533 -0.04 -0.24    -0.184 F  
DOCKED: ENDBRANCH   6   7
DOCKED: ENDBRANCH   5   6
DOCKED: ENDBRANCH   4   5
DOCKED: ENDBRANCH   1   4
DOCKED: BRANCH   1  14
DOCKED: ATOM     14  C   UNL     1     144.541  73.714 220.723 -0.49 +0.00    -0.001 C  
DOCKED: BRANCH  14  15
DOCKED: ATOM     15  C   UNL     1     143.679  74.582 219.843 -0.35 -0.03    +0.071 C  
DOCKED: BRANCH  15  16
DOCKED: ATOM     16  C   UNL     1     142.199  74.496 220.237 -0.18 -0.07    +0.234 C  
DOCKED: BRANCH  16  17
DOCKED: ATOM     17  O   UNL     1     141.520  75.724 219.968 -0.04 +0.19    -0.492 OA 
DOCKED: BRANCH  17  18
DOCKED: ATOM     18  C   UNL     1     141.480  76.842 220.819 -0.23 -0.07    +0.137 A  
DOCKED: ATOM     19  C   UNL     1     141.065  76.756 222.163 -0.35 -0.02    +0.049 A  
DOCKED: ATOM     20  C   UNL     1     141.863  78.092 220.302 -0.26 -0.05    +0.084 A  
DOCKED: ATOM     21  C   UNL     1     141.043  77.898 222.970 -0.45 -0.01    +0.024 A  
DOCKED: ATOM     22  C   UNL     1     141.838  79.231 221.114 -0.34 -0.02    +0.045 A  
DOCKED: ATOM     23  C   UNL     1     141.430  79.135 222.447 -0.45 -0.02    +0.042 A  
DOCKED: ATOM     24  Cl  UNL     1     142.385  78.241 218.631 -0.36 +0.06    -0.080 Cl 
DOCKED: ATOM     25  Cl  UNL     1     141.401  80.565 223.463 -0.69 +0.02    -0.084 Cl 
DOCKED: ENDBRANCH  17  18
DOCKED: ENDBRANCH  16  17
DOCKED: ENDBRANCH  15  16
DOCKED: ENDBRANCH  14  15
DOCKED: ENDBRANCH   1  14
DOCKED: TORSDOF 10
DOCKED: TER
DOCKED: ENDMDL
________________________________________________________________________________


    FINAL DOCKED STATE:
    ________________________


Run:   3 / 20
Time taken for this run:   0.036s

DOCKED: MODEL        3
DOCKED: USER    Run = 3
DOCKED: USER
DOCKED: USER    Estimated Free Energy of Binding    =  -5.84 kcal/mol  [=(1)+(2)+(3)-(4)]
DOCKED: USER
DOCKED: USER    (1) Final Intermolecular Energy     =  -8.82 kcal/mol
DOCKED: USER        vdW + Hbond + desolv Energy     =  -9.06 kcal/mol
DOCKED: USER        Electrostatic Energy            =  +0.24 kcal/mol
DOCKED: USER        Moving Ligand-Fixed Receptor    =  -8.82 kcal/mol
DOCKED: USER        Moving Ligand-Moving Receptor   =  +0.00 kcal/mol
DOCKED: USER    (2) Final Total Internal Energy     =  -0.95 kcal/mol
DOCKED: USER    (3) Torsional Free Energy           =  +2.98 kcal/mol
DOCKED: USER    (4) Unbound System's Energy         =  -0.95 kcal/mol
DOCKED: USER
DOCKED: USER
DOCKED: REMARK SMILES O/C(=C/CCOc1ccc(Cl)cc1Cl)[N-]/N=C\c1cccnc1F
DOCKED: REMARK SMILES IDX 2 1 1 2 15 4 16 5 17 6 18 7 23 8 19 9 22 10 20 11 21 12
DOCKED: REMARK SMILES IDX 24 13 3 14 4 15 5 16 6 17 7 18 8 19 13 20 9 21 12 22 10 23
DOCKED: REMARK SMILES IDX 14 24 11 25
DOCKED: REMARK H PARENT 1 3
DOCKED: USER                              x       y       z     vdW  Elec       q    Type
DOCKED: USER                           _______ _______ _______ _____ _____    ______ ____
DOCKED: ROOT
DOCKED: ATOM      1  C   UNL     1     140.005  74.775 221.317 -0.27 -0.00    +0.023 C  
DOCKED: ENDROOT
DOCKED: BRANCH   1   2
DOCKED: ATOM      2  O   UNL     1     139.561  74.755 222.639 -0.48 +0.05    -0.530 OA 
DOCKED: ATOM      3  H   UNL     1     139.189  73.917 223.073 -0.48 -0.12    +0.290 HD 
DOCKED: ENDBRANCH   1   2
DOCKED: BRANCH   1   4
DOCKED: ATOM      4  N   UNL     1     140.093  76.059 220.678 +0.00 +0.15    -0.546 NA 
DOCKED: BRANCH   4   5
DOCKED: ATOM      5  N   UNL     1     140.837  77.146 221.157 -0.10 +0.15    -0.372 NA 
DOCKED: BRANCH   5   6
DOCKED: ATOM      6  C   UNL     1     140.293  78.213 221.662 -0.26 -0.03    +0.099 C  
DOCKED: BRANCH   6   7
DOCKED: ATOM      7  C   UNL     1     141.055  79.264 222.373 -0.39 -0.01    +0.046 A  
DOCKED: ATOM      8  C   UNL     1     141.834  78.924 223.491 -0.44 -0.07    +0.221 A  
DOCKED: ATOM      9  C   UNL     1     140.962  80.619 222.009 -0.37 -0.00    +0.016 A  
DOCKED: ATOM     10  N   UNL     1     142.514  79.887 224.171 -0.31 +0.05    -0.228 NA 
DOCKED: ATOM     11  C   UNL     1     141.670  81.586 222.725 -0.49 -0.00    +0.021 A  
DOCKED: ATOM     12  C   UNL     1     142.453  81.196 223.812 -0.54 -0.02    +0.114 A  
DOCKED: ATOM     13  F   UNL     1     141.933  77.633 223.896 -0.14 +0.07    -0.184 F  
DOCKED: ENDBRANCH   6   7
DOCKED: ENDBRANCH   5   6
DOCKED: ENDBRANCH   4   5
DOCKED: ENDBRANCH   1   4
DOCKED: BRANCH   1  14
DOCKED: ATOM     14  C   UNL     1     140.328  73.610 220.720 -0.19 +0.00    -0.001 C  
DOCKED: BRANCH  14  15
DOCKED: ATOM     15  C   UNL     1     140.047  72.239 221.278 -0.19 -0.01    +0.071 C  
DOCKED: BRANCH  15  16
DOCKED: ATOM     16  C   UNL     1     140.896  71.946 222.521 -0.13 -0.02    +0.234 C  
DOCKED: BRANCH  16  17
DOCKED: ATOM     17  O   UNL     1     140.125  72.075 223.717 -0.22 +0.09    -0.492 OA 
DOCKED: BRANCH  17  18
DOCKED: ATOM     18  C   UNL     1     140.245  71.266 224.861 -0.41 -0.02    +0.137 A  
DOCKED: ATOM     19  C   UNL     1     140.997  71.654 225.987 -0.59 -0.01    +0.049 A  
DOCKED: ATOM     20  C   UNL     1     139.594  70.020 224.872 -0.35 -0.01    +0.084 A  
DOCKED: ATOM     21  C   UNL     1     141.085  70.814 227.102 -0.63 -0.00    +0.024 A  
DOCKED: ATOM     22  C   UNL     1     139.686  69.184 225.989 -0.45 -0.01    +0.045 A  
DOCKED: ATOM     23  C   UNL     1     140.430  69.580 227.104 -0.55 -0.01    +0.042 A  
DOCKED: ATOM     24  Cl  UNL     1     138.647  69.499 223.486 -0.33 +0.01    -0.080 Cl 
DOCKED: ATOM     25  Cl  UNL     1     140.543  68.529 228.504 -0.76 +0.02    -0.084 Cl 
DOCKED: ENDBRANCH  17  18
DOCKED: ENDBRANCH  16  17
DOCKED: ENDBRANCH  15  16
DOCKED: ENDBRANCH  14  15
DOCKED: ENDBRANCH   1  14
DOCKED: TORSDOF 10
DOCKED: TER
DOCKED: ENDMDL
________________________________________________________________________________


    FINAL DOCKED STATE:
    ________________________


Run:   4 / 20
Time taken for this run:   0.036s

DOCKED: MODEL        4
DOCKED: USER    Run = 4
DOCKED: USER
DOCKED: USER    Estimated Free Energy of Binding    =  -6.38 kcal/mol  [=(1)+(2)+(3)-(4)]
DOCKED: USER
DOCKED: USER    (1) Final Intermolecular Energy     =  -9.36 kcal/mol
DOCKED: USER        vdW + Hbond + desolv Energy     =  -9.34 kcal/mol
DOCKED: USER        Electrostatic Energy            =  -0.02 kcal/mol
DOCKED: USER        Moving Ligand-Fixed Receptor    =  -9.36 kcal/mol
DOCKED: USER        Moving Ligand-Moving Receptor   =  +0.00 kcal/mol
DOCKED: USER    (2) Final Total Internal Energy     =  -0.75 kcal/mol
DOCKED: USER    (3) Torsional Free Energy           =  +2.98 kcal/mol
DOCKED: USER    (4) Unbound System's Energy         =  -0.75 kcal/mol
DOCKED: USER
DOCKED: USER
DOCKED: REMARK SMILES O/C(=C/CCOc1ccc(Cl)cc1Cl)[N-]/N=C\c1cccnc1F
DOCKED: REMARK SMILES IDX 2 1 1 2 15 4 16 5 17 6 18 7 23 8 19 9 22 10 20 11 21 12
DOCKED: REMARK SMILES IDX 24 13 3 14 4 15 5 16 6 17 7 18 8 19 13 20 9 21 12 22 10 23
DOCKED: REMARK SMILES IDX 14 24 11 25
DOCKED: REMARK H PARENT 1 3
DOCKED: USER                              x       y       z     vdW  Elec       q    Type
DOCKED: USER                           _______ _______ _______ _____ _____    ______ ____
DOCKED: ROOT
DOCKED: ATOM      1  C   UNL     1     140.288  74.239 221.641 -0.28 -0.00    +0.023 C  
DOCKED: ENDROOT
DOCKED: BRANCH   1   2
DOCKED: ATOM      2  O   UNL     1     139.522  75.154 222.364 -0.51 +0.08    -0.530 OA 
DOCKED: ATOM      3  H   UNL     1     138.972  74.882 223.171 -0.46 -0.12    +0.290 HD 
DOCKED: ENDBRANCH   1   2
DOCKED: BRANCH   1   4
DOCKED: ATOM      4  N   UNL     1     140.722  73.059 222.335 -0.48 +0.01    -0.546 NA 
DOCKED: BRANCH   4   5
DOCKED: ATOM      5  N   UNL     1     140.021  72.437 223.379 -0.23 +0.06    -0.372 NA 
DOCKED: BRANCH   5   6
DOCKED: ATOM      6  C   UNL     1     140.328  71.261 223.839 -0.35 -0.01    +0.099 C  
DOCKED: BRANCH   6   7
DOCKED: ATOM      7  C   UNL     1     140.469  70.957 225.282 -0.51 -0.01    +0.046 A  
DOCKED: ATOM      8  C   UNL     1     139.991  69.736 225.786 -0.32 -0.04    +0.221 A  
DOCKED: ATOM      9  C   UNL     1     141.001  71.892 226.187 -0.63 -0.00    +0.016 A  
DOCKED: ATOM     10  N   UNL     1     140.087  69.459 227.114 -0.32 +0.04    -0.228 NA 
DOCKED: ATOM     11  C   UNL     1     141.087  71.581 227.545 -0.78 -0.00    +0.021 A  
DOCKED: ATOM     12  C   UNL     1     140.624  70.344 227.994 -0.54 -0.02    +0.114 A  
DOCKED: ATOM     13  F   UNL     1     139.445  68.813 224.955 -0.10 +0.03    -0.184 F  
DOCKED: ENDBRANCH   6   7
DOCKED: ENDBRANCH   5   6
DOCKED: ENDBRANCH   4   5
DOCKED: ENDBRANCH   1   4
DOCKED: BRANCH   1  14
DOCKED: ATOM     14  C   UNL     1     140.572  74.504 220.350 -0.18 +0.00    -0.001 C  
DOCKED: BRANCH  14  15
DOCKED: ATOM     15  C   UNL     1     141.943  74.438 219.728 -0.18 -0.02    +0.071 C  
DOCKED: BRANCH  15  16
DOCKED: ATOM     16  C   UNL     1     142.568  75.831 219.582 -0.22 -0.12    +0.234 C  
DOCKED: BRANCH  16  17
DOCKED: ATOM     17  O   UNL     1     141.583  76.857 219.726 -0.05 +0.24    -0.492 OA 
DOCKED: BRANCH  17  18
DOCKED: ATOM     18  C   UNL     1     141.595  77.874 220.697 -0.25 -0.08    +0.137 A  
DOCKED: ATOM     19  C   UNL     1     141.359  77.618 222.063 -0.28 -0.02    +0.049 A  
DOCKED: ATOM     20  C   UNL     1     141.843  79.193 220.283 -0.25 -0.05    +0.084 A  
DOCKED: ATOM     21  C   UNL     1     141.382  78.664 222.991 -0.53 -0.01    +0.024 A  
DOCKED: ATOM     22  C   UNL     1     141.863  80.236 221.216 -0.37 -0.02    +0.045 A  
DOCKED: ATOM     23  C   UNL     1     141.634  79.972 222.569 -0.49 -0.01    +0.042 A  
DOCKED: ATOM     24  Cl  UNL     1     142.139  79.553 218.589 -0.38 +0.06    -0.080 Cl 
DOCKED: ATOM     25  Cl  UNL     1     141.662  81.281 223.736 -0.63 +0.01    -0.084 Cl 
DOCKED: ENDBRANCH  17  18
DOCKED: ENDBRANCH  16  17
DOCKED: ENDBRANCH  15  16
DOCKED: ENDBRANCH  14  15
DOCKED: ENDBRANCH   1  14
DOCKED: TORSDOF 10
DOCKED: TER
DOCKED: ENDMDL
________________________________________________________________________________


    FINAL DOCKED STATE:
    ________________________


Run:   5 / 20
Time taken for this run:   0.036s

DOCKED: MODEL        5
DOCKED: USER    Run = 5
DOCKED: USER
DOCKED: USER    Estimated Free Energy of Binding    =  -6.30 kcal/mol  [=(1)+(2)+(3)-(4)]
DOCKED: USER
DOCKED: USER    (1) Final Intermolecular Energy     =  -9.29 kcal/mol
DOCKED: USER        vdW + Hbond + desolv Energy     =  -9.30 kcal/mol
DOCKED: USER        Electrostatic Energy            =  +0.01 kcal/mol
DOCKED: USER        Moving Ligand-Fixed Receptor    =  -9.29 kcal/mol
DOCKED: USER        Moving Ligand-Moving Receptor   =  +0.00 kcal/mol
DOCKED: USER    (2) Final Total Internal Energy     =  -0.61 kcal/mol
DOCKED: USER    (3) Torsional Free Energy           =  +2.98 kcal/mol
DOCKED: USER    (4) Unbound System's Energy         =  -0.61 kcal/mol
DOCKED: USER
DOCKED: USER
DOCKED: REMARK SMILES O/C(=C/CCOc1ccc(Cl)cc1Cl)[N-]/N=C\c1cccnc1F
DOCKED: REMARK SMILES IDX 2 1 1 2 15 4 16 5 17 6 18 7 23 8 19 9 22 10 20 11 21 12
DOCKED: REMARK SMILES IDX 24 13 3 14 4 15 5 16 6 17 7 18 8 19 13 20 9 21 12 22 10 23
DOCKED: REMARK SMILES IDX 14 24 11 25
DOCKED: REMARK H PARENT 1 3
DOCKED: USER                              x       y       z     vdW  Elec       q    Type
DOCKED: USER                           _______ _______ _______ _____ _____    ______ ____
DOCKED: ROOT
DOCKED: ATOM      1  C   UNL     1     138.236  69.179 224.529 -0.33 -0.00    +0.023 C  
DOCKED: ENDROOT
DOCKED: BRANCH   1   2
DOCKED: ATOM      2  O   UNL     1     136.855  69.057 224.374 -0.08 +0.03    -0.530 OA 
DOCKED: ATOM      3  H   UNL     1     136.439  68.548 223.603 +0.08 -0.01    +0.290 HD 
DOCKED: ENDBRANCH   1   2
DOCKED: BRANCH   1   4
DOCKED: ATOM      4  N   UNL     1     138.974  67.974 224.787 -0.43 +0.01    -0.546 NA 
DOCKED: BRANCH   4   5
DOCKED: ATOM      5  N   UNL     1     139.195  67.424 226.058 -0.74 +0.00    -0.372 NA 
DOCKED: BRANCH   5   6
DOCKED: ATOM      6  C   UNL     1     140.120  67.850 226.865 -0.59 -0.02    +0.099 C  
DOCKED: BRANCH   6   7
DOCKED: ATOM      7  C   UNL     1     140.486  69.277 227.013 -0.55 -0.01    +0.046 A  
DOCKED: ATOM      8  C   UNL     1     139.965  70.023 228.083 -0.43 -0.04    +0.221 A  
DOCKED: ATOM      9  C   UNL     1     141.285  69.938 226.063 -0.52 -0.00    +0.016 A  
DOCKED: ATOM     10  N   UNL     1     140.270  71.343 228.211 -0.46 +0.05    -0.228 NA 
DOCKED: ATOM     11  C   UNL     1     141.581  71.293 226.219 -0.54 -0.00    +0.021 A  
DOCKED: ATOM     12  C   UNL     1     141.063  71.985 227.314 -0.71 -0.02    +0.114 A  
DOCKED: ATOM     13  F   UNL     1     139.168  69.435 229.010 -0.15 +0.02    -0.184 F  
DOCKED: ENDBRANCH   6   7
DOCKED: ENDBRANCH   5   6
DOCKED: ENDBRANCH   4   5
DOCKED: ENDBRANCH   1   4
DOCKED: BRANCH   1  14
DOCKED: ATOM     14  C   UNL     1     138.797  70.402 224.424 -0.35 +0.00    -0.001 C  
DOCKED: BRANCH  14  15
DOCKED: ATOM     15  C   UNL     1     138.701  71.303 223.221 -0.24 -0.02    +0.071 C  
DOCKED: BRANCH  15  16
DOCKED: ATOM     16  C   UNL     1     139.966  72.152 223.046 -0.21 -0.04    +0.234 C  
DOCKED: BRANCH  16  17
DOCKED: ATOM     17  O   UNL     1     139.667  73.405 222.427 -0.63 +0.08    -0.492 OA 
DOCKED: BRANCH  17  18
DOCKED: ATOM     18  C   UNL     1     140.547  74.157 221.630 -0.25 -0.01    +0.137 A  
DOCKED: ATOM     19  C   UNL     1     141.635  73.576 220.947 -0.25 -0.01    +0.049 A  
DOCKED: ATOM     20  C   UNL     1     140.335  75.542 221.520 -0.30 -0.02    +0.084 A  
DOCKED: ATOM     21  C   UNL     1     142.483  74.367 220.166 -0.27 -0.01    +0.024 A  
DOCKED: ATOM     22  C   UNL     1     141.187  76.328 220.737 -0.27 -0.02    +0.045 A  
DOCKED: ATOM     23  C   UNL     1     142.259  75.742 220.059 -0.29 -0.02    +0.042 A  
DOCKED: ATOM     24  Cl  UNL     1     138.992  76.305 222.357 -0.39 +0.02    -0.080 Cl 
DOCKED: ATOM     25  Cl  UNL     1     143.326  76.731 219.078 -0.41 +0.06    -0.084 Cl 
DOCKED: ENDBRANCH  17  18
DOCKED: ENDBRANCH  16  17
DOCKED: ENDBRANCH  15  16
DOCKED: ENDBRANCH  14  15
DOCKED: ENDBRANCH   1  14
DOCKED: TORSDOF 10
DOCKED: TER
DOCKED: ENDMDL
________________________________________________________________________________


    FINAL DOCKED STATE:
    ________________________


Run:   6 / 20
Time taken for this run:   0.036s

DOCKED: MODEL        6
DOCKED: USER    Run = 6
DOCKED: USER
DOCKED: USER    Estimated Free Energy of Binding    =  -5.52 kcal/mol  [=(1)+(2)+(3)-(4)]
DOCKED: USER
DOCKED: USER    (1) Final Intermolecular Energy     =  -8.50 kcal/mol
DOCKED: USER        vdW + Hbond + desolv Energy     =  -8.52 kcal/mol
DOCKED: USER        Electrostatic Energy            =  +0.02 kcal/mol
DOCKED: USER        Moving Ligand-Fixed Receptor    =  -8.50 kcal/mol
DOCKED: USER        Moving Ligand-Moving Receptor   =  +0.00 kcal/mol
DOCKED: USER    (2) Final Total Internal Energy     =  -0.91 kcal/mol
DOCKED: USER    (3) Torsional Free Energy           =  +2.98 kcal/mol
DOCKED: USER    (4) Unbound System's Energy         =  -0.91 kcal/mol
DOCKED: USER
DOCKED: USER
DOCKED: REMARK SMILES O/C(=C/CCOc1ccc(Cl)cc1Cl)[N-]/N=C\c1cccnc1F
DOCKED: REMARK SMILES IDX 2 1 1 2 15 4 16 5 17 6 18 7 23 8 19 9 22 10 20 11 21 12
DOCKED: REMARK SMILES IDX 24 13 3 14 4 15 5 16 6 17 7 18 8 19 13 20 9 21 12 22 10 23
DOCKED: REMARK SMILES IDX 14 24 11 25
DOCKED: REMARK H PARENT 1 3
DOCKED: USER                              x       y       z     vdW  Elec       q    Type
DOCKED: USER                           _______ _______ _______ _____ _____    ______ ____
DOCKED: ROOT
DOCKED: ATOM      1  C   UNL     1     138.513  68.420 223.788 -0.28 -0.00    +0.023 C  
DOCKED: ENDROOT
DOCKED: BRANCH   1   2
DOCKED: ATOM      2  O   UNL     1     138.870  67.393 222.913 -0.14 +0.08    -0.530 OA 
DOCKED: ATOM      3  H   UNL     1     139.504  66.648 223.181 +0.02 -0.06    +0.290 HD 
DOCKED: ENDBRANCH   1   2
DOCKED: BRANCH   1   4
DOCKED: ATOM      4  N   UNL     1     138.601  68.140 225.194 -0.36 -0.01    -0.546 NA 
DOCKED: BRANCH   4   5
DOCKED: ATOM      5  N   UNL     1     139.573  67.326 225.792 -0.64 +0.02    -0.372 NA 
DOCKED: BRANCH   5   6
DOCKED: ATOM      6  C   UNL     1     140.544  67.795 226.518 -0.60 -0.02    +0.099 C  
DOCKED: BRANCH   6   7
DOCKED: ATOM      7  C   UNL     1     140.716  69.233 226.827 -0.54 -0.01    +0.046 A  
DOCKED: ATOM      8  C   UNL     1     140.254  69.742 228.052 -0.43 -0.04    +0.221 A  
DOCKED: ATOM      9  C   UNL     1     141.262  70.130 225.892 -0.52 -0.00    +0.016 A  
DOCKED: ATOM     10  N   UNL     1     140.379  71.068 228.333 -0.43 +0.05    -0.228 NA 
DOCKED: ATOM     11  C   UNL     1     141.378  71.484 226.207 -0.65 -0.00    +0.021 A  
DOCKED: ATOM     12  C   UNL     1     140.931  71.939 227.448 -0.71 -0.02    +0.114 A  
DOCKED: ATOM     13  F   UNL     1     139.696  68.920 228.974 -0.16 +0.03    -0.184 F  
DOCKED: ENDBRANCH   6   7
DOCKED: ENDBRANCH   5   6
DOCKED: ENDBRANCH   4   5
DOCKED: ENDBRANCH   1   4
DOCKED: BRANCH   1  14
DOCKED: ATOM     14  C   UNL     1     138.117  69.603 223.275 -0.24 +0.00    -0.001 C  
DOCKED: BRANCH  14  15
DOCKED: ATOM     15  C   UNL     1     137.271  70.623 223.992 -0.21 -0.01    +0.071 C  
DOCKED: BRANCH  15  16
DOCKED: ATOM     16  C   UNL     1     136.164  69.960 224.820 -0.12 -0.02    +0.234 C  
DOCKED: BRANCH  16  17
DOCKED: ATOM     17  O   UNL     1     134.888  70.535 224.533 -0.03 +0.05    -0.492 OA 
DOCKED: BRANCH  17  18
DOCKED: ATOM     18  C   UNL     1     134.211  71.472 225.334 -0.18 -0.01    +0.137 A  
DOCKED: ATOM     19  C   UNL     1     133.412  71.093 226.432 -0.33 -0.00    +0.049 A  
DOCKED: ATOM     20  C   UNL     1     134.333  72.836 225.018 -0.22 -0.01    +0.084 A  
DOCKED: ATOM     21  C   UNL     1     132.760  72.063 227.198 -0.42 -0.00    +0.024 A  
DOCKED: ATOM     22  C   UNL     1     133.677  73.802 225.789 -0.30 -0.00    +0.045 A  
DOCKED: ATOM     23  C   UNL     1     132.892  73.417 226.879 -0.37 -0.00    +0.042 A  
DOCKED: ATOM     24  Cl  UNL     1     135.318  73.349 223.656 -0.25 +0.02    -0.080 Cl 
DOCKED: ATOM     25  Cl  UNL     1     132.072  74.631 227.843 -0.42 +0.00    -0.084 Cl 
DOCKED: ENDBRANCH  17  18
DOCKED: ENDBRANCH  16  17
DOCKED: ENDBRANCH  15  16
DOCKED: ENDBRANCH  14  15
DOCKED: ENDBRANCH   1  14
DOCKED: TORSDOF 10
DOCKED: TER
DOCKED: ENDMDL
________________________________________________________________________________


    FINAL DOCKED STATE:
    ________________________


Run:   7 / 20
Time taken for this run:   0.036s

DOCKED: MODEL        7
DOCKED: USER    Run = 7
DOCKED: USER
DOCKED: USER    Estimated Free Energy of Binding    =  -5.55 kcal/mol  [=(1)+(2)+(3)-(4)]
DOCKED: USER
DOCKED: USER    (1) Final Intermolecular Energy     =  -8.53 kcal/mol
DOCKED: USER        vdW + Hbond + desolv Energy     =  -8.59 kcal/mol
DOCKED: USER        Electrostatic Energy            =  +0.06 kcal/mol
DOCKED: USER        Moving Ligand-Fixed Receptor    =  -8.53 kcal/mol
DOCKED: USER        Moving Ligand-Moving Receptor   =  +0.00 kcal/mol
DOCKED: USER    (2) Final Total Internal Energy     =  -1.11 kcal/mol
DOCKED: USER    (3) Torsional Free Energy           =  +2.98 kcal/mol
DOCKED: USER    (4) Unbound System's Energy         =  -1.11 kcal/mol
DOCKED: USER
DOCKED: USER
DOCKED: REMARK SMILES O/C(=C/CCOc1ccc(Cl)cc1Cl)[N-]/N=C\c1cccnc1F
DOCKED: REMARK SMILES IDX 2 1 1 2 15 4 16 5 17 6 18 7 23 8 19 9 22 10 20 11 21 12
DOCKED: REMARK SMILES IDX 24 13 3 14 4 15 5 16 6 17 7 18 8 19 13 20 9 21 12 22 10 23
DOCKED: REMARK SMILES IDX 14 24 11 25
DOCKED: REMARK H PARENT 1 3
DOCKED: USER                              x       y       z     vdW  Elec       q    Type
DOCKED: USER                           _______ _______ _______ _____ _____    ______ ____
DOCKED: ROOT
DOCKED: ATOM      1  C   UNL     1     140.310  73.186 221.760 -0.28 -0.00    +0.023 C  
DOCKED: ENDROOT
DOCKED: BRANCH   1   2
DOCKED: ATOM      2  O   UNL     1     139.272  73.694 220.979 -0.04 +0.11    -0.530 OA 
DOCKED: ATOM      3  H   UNL     1     139.264  74.651 220.644 +0.07 -0.06    +0.290 HD 
DOCKED: ENDBRANCH   1   2
DOCKED: BRANCH   1   4
DOCKED: ATOM      4  N   UNL     1     139.959  72.663 223.051 -0.33 +0.08    -0.546 NA 
DOCKED: BRANCH   4   5
DOCKED: ATOM      5  N   UNL     1     140.694  71.697 223.753 -0.17 +0.04    -0.372 NA 
DOCKED: BRANCH   5   6
DOCKED: ATOM      6  C   UNL     1     140.438  71.365 224.983 -0.44 -0.02    +0.099 C  
DOCKED: BRANCH   6   7
DOCKED: ATOM      7  C   UNL     1     140.325  69.963 225.448 -0.44 -0.01    +0.046 A  
DOCKED: ATOM      8  C   UNL     1     139.332  69.129 224.909 -0.26 -0.03    +0.221 A  
DOCKED: ATOM      9  C   UNL     1     141.139  69.457 226.477 -0.53 -0.00    +0.016 A  
DOCKED: ATOM     10  N   UNL     1     139.199  67.849 225.351 -0.78 +0.01    -0.228 NA 
DOCKED: ATOM     11  C   UNL     1     140.980  68.140 226.911 -0.64 -0.01    +0.021 A  
DOCKED: ATOM     12  C   UNL     1     139.997  67.341 226.326 -0.54 -0.02    +0.114 A  
DOCKED: ATOM     13  F   UNL     1     138.506  69.581 223.933 -0.07 +0.03    -0.184 F  
DOCKED: ENDBRANCH   6   7
DOCKED: ENDBRANCH   5   6
DOCKED: ENDBRANCH   4   5
DOCKED: ENDBRANCH   1   4
DOCKED: BRANCH   1  14
DOCKED: ATOM     14  C   UNL     1     141.566  73.208 221.269 -0.25 +0.00    -0.001 C  
DOCKED: BRANCH  14  15
DOCKED: ATOM     15  C   UNL     1     142.317  74.447 220.854 -0.23 -0.02    +0.071 C  
DOCKED: BRANCH  15  16
DOCKED: ATOM     16  C   UNL     1     141.540  75.259 219.811 -0.13 -0.08    +0.234 C  
DOCKED: BRANCH  16  17
DOCKED: ATOM     17  O   UNL     1     140.706  76.238 220.435 -0.03 +0.17    -0.492 OA 
DOCKED: BRANCH  17  18
DOCKED: ATOM     18  C   UNL     1     141.147  77.279 221.270 -0.26 -0.06    +0.137 A  
DOCKED: ATOM     19  C   UNL     1     141.042  77.219 222.675 -0.39 -0.02    +0.049 A  
DOCKED: ATOM     20  C   UNL     1     141.706  78.424 220.676 -0.28 -0.05    +0.084 A  
DOCKED: ATOM     21  C   UNL     1     141.496  78.281 223.463 -0.53 -0.01    +0.024 A  
DOCKED: ATOM     22  C   UNL     1     142.158  79.483 221.470 -0.33 -0.02    +0.045 A  
DOCKED: ATOM     23  C   UNL     1     142.055  79.412 222.862 -0.56 -0.02    +0.042 A  
DOCKED: ATOM     24  Cl  UNL     1     141.853  78.537 218.929 -0.34 +0.05    -0.080 Cl 
DOCKED: ATOM     25  Cl  UNL     1     142.623  80.743 223.854 -0.80 +0.02    -0.084 Cl 
DOCKED: ENDBRANCH  17  18
DOCKED: ENDBRANCH  16  17
DOCKED: ENDBRANCH  15  16
DOCKED: ENDBRANCH  14  15
DOCKED: ENDBRANCH   1  14
DOCKED: TORSDOF 10
DOCKED: TER
DOCKED: ENDMDL
________________________________________________________________________________


    FINAL DOCKED STATE:
    ________________________


Run:   8 / 20
Time taken for this run:   0.036s

DOCKED: MODEL        8
DOCKED: USER    Run = 8
DOCKED: USER
DOCKED: USER    Estimated Free Energy of Binding    =  -5.31 kcal/mol  [=(1)+(2)+(3)-(4)]
DOCKED: USER
DOCKED: USER    (1) Final Intermolecular Energy     =  -8.30 kcal/mol
DOCKED: USER        vdW + Hbond + desolv Energy     =  -8.57 kcal/mol
DOCKED: USER        Electrostatic Energy            =  +0.27 kcal/mol
DOCKED: USER        Moving Ligand-Fixed Receptor    =  -8.30 kcal/mol
DOCKED: USER        Moving Ligand-Moving Receptor   =  +0.00 kcal/mol
DOCKED: USER    (2) Final Total Internal Energy     =  -1.06 kcal/mol
DOCKED: USER    (3) Torsional Free Energy           =  +2.98 kcal/mol
DOCKED: USER    (4) Unbound System's Energy         =  -1.06 kcal/mol
DOCKED: USER
DOCKED: USER
DOCKED: REMARK SMILES O/C(=C/CCOc1ccc(Cl)cc1Cl)[N-]/N=C\c1cccnc1F
DOCKED: REMARK SMILES IDX 2 1 1 2 15 4 16 5 17 6 18 7 23 8 19 9 22 10 20 11 21 12
DOCKED: REMARK SMILES IDX 24 13 3 14 4 15 5 16 6 17 7 18 8 19 13 20 9 21 12 22 10 23
DOCKED: REMARK SMILES IDX 14 24 11 25
DOCKED: REMARK H PARENT 1 3
DOCKED: USER                              x       y       z     vdW  Elec       q    Type
DOCKED: USER                           _______ _______ _______ _____ _____    ______ ____
DOCKED: ROOT
DOCKED: ATOM      1  C   UNL     1     140.310  75.772 221.930 -0.35 -0.00    +0.023 C  
DOCKED: ENDROOT
DOCKED: BRANCH   1   2
DOCKED: ATOM      2  O   UNL     1     139.199  75.275 222.612 -0.38 +0.11    -0.530 OA 
DOCKED: ATOM      3  H   UNL     1     139.212  74.381 223.090 -0.49 -0.10    +0.290 HD 
DOCKED: ENDBRANCH   1   2
DOCKED: BRANCH   1   4
DOCKED: ATOM      4  N   UNL     1     140.761  77.087 222.291 -0.09 +0.19    -0.546 NA 
DOCKED: BRANCH   4   5
DOCKED: ATOM      5  N   UNL     1     141.451  77.405 223.469 -0.01 +0.14    -0.372 NA 
DOCKED: BRANCH   5   6
DOCKED: ATOM      6  C   UNL     1     141.806  78.616 223.780 -0.50 -0.03    +0.099 C  
DOCKED: BRANCH   6   7
DOCKED: ATOM      7  C   UNL     1     141.323  79.821 223.067 -0.49 -0.01    +0.046 A  
DOCKED: ATOM      8  C   UNL     1     142.249  80.754 222.571 -0.40 -0.06    +0.221 A  
DOCKED: ATOM      9  C   UNL     1     139.952  80.103 222.934 -0.37 -0.00    +0.016 A  
DOCKED: ATOM     10  N   UNL     1     141.815  81.879 221.941 -0.26 +0.04    -0.228 NA 
DOCKED: ATOM     11  C   UNL     1     139.536  81.265 222.283 -0.26 -0.00    +0.021 A  
DOCKED: ATOM     12  C   UNL     1     140.493  82.149 221.783 -0.27 -0.02    +0.114 A  
DOCKED: ATOM     13  F   UNL     1     143.582  80.538 222.699 -0.20 +0.06    -0.184 F  
DOCKED: ENDBRANCH   6   7
DOCKED: ENDBRANCH   5   6
DOCKED: ENDBRANCH   4   5
DOCKED: ENDBRANCH   1   4
DOCKED: BRANCH   1  14
DOCKED: ATOM     14  C   UNL     1     140.894  75.003 220.989 -0.29 +0.00    -0.001 C  
DOCKED: BRANCH  14  15
DOCKED: ATOM     15  C   UNL     1     141.494  73.642 221.226 -0.24 -0.01    +0.071 C  
DOCKED: BRANCH  15  16
DOCKED: ATOM     16  C   UNL     1     140.442  72.632 221.697 -0.20 -0.03    +0.234 C  
DOCKED: BRANCH  16  17
DOCKED: ATOM     17  O   UNL     1     140.191  72.761 223.098 -0.43 +0.04    -0.492 OA 
DOCKED: BRANCH  17  18
DOCKED: ATOM     18  C   UNL     1     140.127  71.702 224.021 -0.32 -0.02    +0.137 A  
DOCKED: ATOM     19  C   UNL     1     141.085  71.526 225.040 -0.39 -0.00    +0.049 A  
DOCKED: ATOM     20  C   UNL     1     139.071  70.782 223.912 -0.30 -0.02    +0.084 A  
DOCKED: ATOM     21  C   UNL     1     140.977  70.456 225.934 -0.55 -0.00    +0.024 A  
DOCKED: ATOM     22  C   UNL     1     138.968  69.713 224.809 -0.35 -0.01    +0.045 A  
DOCKED: ATOM     23  C   UNL     1     139.919  69.550 225.820 -0.44 -0.01    +0.042 A  
DOCKED: ATOM     24  Cl  UNL     1     137.857  70.965 222.655 -0.22 +0.02    -0.080 Cl 
DOCKED: ATOM     25  Cl  UNL     1     139.787  68.209 226.944 -0.78 +0.01    -0.084 Cl 
DOCKED: ENDBRANCH  17  18
DOCKED: ENDBRANCH  16  17
DOCKED: ENDBRANCH  15  16
DOCKED: ENDBRANCH  14  15
DOCKED: ENDBRANCH   1  14
DOCKED: TORSDOF 10
DOCKED: TER
DOCKED: ENDMDL
________________________________________________________________________________


    FINAL DOCKED STATE:
    ________________________


Run:   9 / 20
Time taken for this run:   0.036s

DOCKED: MODEL        9
DOCKED: USER    Run = 9
DOCKED: USER
DOCKED: USER    Estimated Free Energy of Binding    =  -6.32 kcal/mol  [=(1)+(2)+(3)-(4)]
DOCKED: USER
DOCKED: USER    (1) Final Intermolecular Energy     =  -9.31 kcal/mol
DOCKED: USER        vdW + Hbond + desolv Energy     =  -9.30 kcal/mol
DOCKED: USER        Electrostatic Energy            =  -0.01 kcal/mol
DOCKED: USER        Moving Ligand-Fixed Receptor    =  -9.31 kcal/mol
DOCKED: USER        Moving Ligand-Moving Receptor   =  +0.00 kcal/mol
DOCKED: USER    (2) Final Total Internal Energy     =  -0.57 kcal/mol
DOCKED: USER    (3) Torsional Free Energy           =  +2.98 kcal/mol
DOCKED: USER    (4) Unbound System's Energy         =  -0.57 kcal/mol
DOCKED: USER
DOCKED: USER
DOCKED: REMARK SMILES O/C(=C/CCOc1ccc(Cl)cc1Cl)[N-]/N=C\c1cccnc1F
DOCKED: REMARK SMILES IDX 2 1 1 2 15 4 16 5 17 6 18 7 23 8 19 9 22 10 20 11 21 12
DOCKED: REMARK SMILES IDX 24 13 3 14 4 15 5 16 6 17 7 18 8 19 13 20 9 21 12 22 10 23
DOCKED: REMARK SMILES IDX 14 24 11 25
DOCKED: REMARK H PARENT 1 3
DOCKED: USER                              x       y       z     vdW  Elec       q    Type
DOCKED: USER                           _______ _______ _______ _____ _____    ______ ____
DOCKED: ROOT
DOCKED: ATOM      1  C   UNL     1     140.312  74.274 221.727 -0.25 -0.00    +0.023 C  
DOCKED: ENDROOT
DOCKED: BRANCH   1   2
DOCKED: ATOM      2  O   UNL     1     141.130  75.376 221.978 -0.36 +0.11    -0.530 OA 
DOCKED: ATOM      3  H   UNL     1     142.142  75.320 221.939 -0.37 -0.13    +0.290 HD 
DOCKED: ENDBRANCH   1   2
DOCKED: BRANCH   1   4
DOCKED: ATOM      4  N   UNL     1     140.688  73.029 222.339 -0.49 +0.01    -0.546 NA 
DOCKED: BRANCH   4   5
DOCKED: ATOM      5  N   UNL     1     139.929  72.344 223.299 -0.25 +0.07    -0.372 NA 
DOCKED: BRANCH   5   6
DOCKED: ATOM      6  C   UNL     1     140.324  71.241 223.861 -0.35 -0.01    +0.099 C  
DOCKED: BRANCH   6   7
DOCKED: ATOM      7  C   UNL     1     140.325  71.022 225.326 -0.51 -0.01    +0.046 A  
DOCKED: ATOM      8  C   UNL     1     139.582  69.963 225.872 -0.30 -0.03    +0.221 A  
DOCKED: ATOM      9  C   UNL     1     140.990  71.896 226.204 -0.63 -0.00    +0.016 A  
DOCKED: ATOM     10  N   UNL     1     139.551  69.772 227.219 -0.30 +0.03    -0.228 NA 
DOCKED: ATOM     11  C   UNL     1     140.941  71.676 227.581 -0.79 -0.00    +0.021 A  
DOCKED: ATOM     12  C   UNL     1     140.212  70.594 228.075 -0.55 -0.02    +0.114 A  
DOCKED: ATOM     13  F   UNL     1     138.902  69.110 225.067 -0.10 +0.02    -0.184 F  
DOCKED: ENDBRANCH   6   7
DOCKED: ENDBRANCH   5   6
DOCKED: ENDBRANCH   4   5
DOCKED: ENDBRANCH   1   4
DOCKED: BRANCH   1  14
DOCKED: ATOM     14  C   UNL     1     139.227  74.433 220.942 -0.18 +0.00    -0.001 C  
DOCKED: BRANCH  14  15
DOCKED: ATOM     15  C   UNL     1     138.180  75.503 221.111 -0.14 -0.02    +0.071 C  
DOCKED: BRANCH  15  16
DOCKED: ATOM     16  C   UNL     1     138.171  76.068 222.537 -0.19 -0.06    +0.234 C  
DOCKED: BRANCH  16  17
DOCKED: ATOM     17  O   UNL     1     138.130  77.497 222.527 -0.10 +0.09    -0.492 OA 
DOCKED: BRANCH  17  18
DOCKED: ATOM     18  C   UNL     1     139.199  78.350 222.851 -0.25 -0.02    +0.137 A  
DOCKED: ATOM     19  C   UNL     1     140.547  77.961 222.714 -0.41 -0.01    +0.049 A  
DOCKED: ATOM     20  C   UNL     1     138.907  79.636 223.337 -0.32 -0.01    +0.084 A  
DOCKED: ATOM     21  C   UNL     1     141.575  78.847 223.050 -0.54 -0.01    +0.024 A  
DOCKED: ATOM     22  C   UNL     1     139.940  80.518 223.672 -0.39 -0.01    +0.045 A  
DOCKED: ATOM     23  C   UNL     1     141.273  80.125 223.528 -0.52 -0.01    +0.042 A  
DOCKED: ATOM     24  Cl  UNL     1     137.239  80.158 223.523 -0.32 +0.01    -0.080 Cl 
DOCKED: ATOM     25  Cl  UNL     1     142.566  81.233 223.948 -0.69 +0.01    -0.084 Cl 
DOCKED: ENDBRANCH  17  18
DOCKED: ENDBRANCH  16  17
DOCKED: ENDBRANCH  15  16
DOCKED: ENDBRANCH  14  15
DOCKED: ENDBRANCH   1  14
DOCKED: TORSDOF 10
DOCKED: TER
DOCKED: ENDMDL
________________________________________________________________________________


    FINAL DOCKED STATE:
    ________________________


Run:   10 / 20
Time taken for this run:   0.036s

DOCKED: MODEL        10
DOCKED: USER    Run = 10
DOCKED: USER
DOCKED: USER    Estimated Free Energy of Binding    =  -6.26 kcal/mol  [=(1)+(2)+(3)-(4)]
DOCKED: USER
DOCKED: USER    (1) Final Intermolecular Energy     =  -9.24 kcal/mol
DOCKED: USER        vdW + Hbond + desolv Energy     =  -9.23 kcal/mol
DOCKED: USER        Electrostatic Energy            =  -0.01 kcal/mol
DOCKED: USER        Moving Ligand-Fixed Receptor    =  -9.24 kcal/mol
DOCKED: USER        Moving Ligand-Moving Receptor   =  +0.00 kcal/mol
DOCKED: USER    (2) Final Total Internal Energy     =  -0.57 kcal/mol
DOCKED: USER    (3) Torsional Free Energy           =  +2.98 kcal/mol
DOCKED: USER    (4) Unbound System's Energy         =  -0.57 kcal/mol
DOCKED: USER
DOCKED: USER
DOCKED: REMARK SMILES O/C(=C/CCOc1ccc(Cl)cc1Cl)[N-]/N=C\c1cccnc1F
DOCKED: REMARK SMILES IDX 2 1 1 2 15 4 16 5 17 6 18 7 23 8 19 9 22 10 20 11 21 12
DOCKED: REMARK SMILES IDX 24 13 3 14 4 15 5 16 6 17 7 18 8 19 13 20 9 21 12 22 10 23
DOCKED: REMARK SMILES IDX 14 24 11 25
DOCKED: REMARK H PARENT 1 3
DOCKED: USER                              x       y       z     vdW  Elec       q    Type
DOCKED: USER                           _______ _______ _______ _____ _____    ______ ____
DOCKED: ROOT
DOCKED: ATOM      1  C   UNL     1     140.167  74.498 221.806 -0.23 -0.00    +0.023 C  
DOCKED: ENDROOT
DOCKED: BRANCH   1   2
DOCKED: ATOM      2  O   UNL     1     141.494  74.925 221.871 -0.23 +0.09    -0.530 OA 
DOCKED: ATOM      3  H   UNL     1     141.786  75.696 222.462 -0.36 -0.11    +0.290 HD 
DOCKED: ENDBRANCH   1   2
DOCKED: BRANCH   1   4
DOCKED: ATOM      4  N   UNL     1     139.870  73.205 222.355 -0.53 +0.07    -0.546 NA 
DOCKED: BRANCH   4   5
DOCKED: ATOM      5  N   UNL     1     140.626  72.559 223.344 -0.16 +0.01    -0.372 NA 
DOCKED: BRANCH   5   6
DOCKED: ATOM      6  C   UNL     1     140.298  71.408 223.851 -0.36 -0.01    +0.099 C  
DOCKED: BRANCH   6   7
DOCKED: ATOM      7  C   UNL     1     140.381  71.094 225.296 -0.52 -0.01    +0.046 A  
DOCKED: ATOM      8  C   UNL     1     139.698  69.978 225.807 -0.31 -0.03    +0.221 A  
DOCKED: ATOM      9  C   UNL     1     141.066  71.930 226.196 -0.61 -0.00    +0.016 A  
DOCKED: ATOM     10  N   UNL     1     139.743  69.698 227.138 -0.31 +0.03    -0.228 NA 
DOCKED: ATOM     11  C   UNL     1     141.095  71.618 227.556 -0.78 -0.00    +0.021 A  
DOCKED: ATOM     12  C   UNL     1     140.424  70.484 228.012 -0.55 -0.02    +0.114 A  
DOCKED: ATOM     13  F   UNL     1     139.002  69.158 224.981 -0.10 +0.02    -0.184 F  
DOCKED: ENDBRANCH   6   7
DOCKED: ENDBRANCH   5   6
DOCKED: ENDBRANCH   4   5
DOCKED: ENDBRANCH   1   4
DOCKED: BRANCH   1  14
DOCKED: ATOM     14  C   UNL     1     139.249  75.310 221.244 -0.23 +0.00    -0.001 C  
DOCKED: BRANCH  14  15
DOCKED: ATOM     15  C   UNL     1     137.855  75.543 221.768 -0.20 -0.02    +0.071 C  
DOCKED: BRANCH  15  16
DOCKED: ATOM     16  C   UNL     1     137.846  76.542 222.931 -0.15 -0.05    +0.234 C  
DOCKED: BRANCH  16  17
DOCKED: ATOM     17  O   UNL     1     138.187  77.857 222.487 -0.08 +0.09    -0.492 OA 
DOCKED: BRANCH  17  18
DOCKED: ATOM     18  C   UNL     1     139.375  78.543 222.793 -0.27 -0.03    +0.137 A  
DOCKED: ATOM     19  C   UNL     1     140.650  78.017 222.500 -0.40 -0.02    +0.049 A  
DOCKED: ATOM     20  C   UNL     1     139.283  79.796 223.421 -0.36 -0.01    +0.084 A  
DOCKED: ATOM     21  C   UNL     1     141.803  78.739 222.824 -0.51 -0.01    +0.024 A  
DOCKED: ATOM     22  C   UNL     1     140.440  80.514 223.743 -0.40 -0.01    +0.045 A  
DOCKED: ATOM     23  C   UNL     1     141.699  79.987 223.444 -0.56 -0.01    +0.042 A  
DOCKED: ATOM     24  Cl  UNL     1     137.712  80.485 223.804 -0.40 +0.01    -0.080 Cl 
DOCKED: ATOM     25  Cl  UNL     1     143.148  80.890 223.849 -0.64 +0.02    -0.084 Cl 
DOCKED: ENDBRANCH  17  18
DOCKED: ENDBRANCH  16  17
DOCKED: ENDBRANCH  15  16
DOCKED: ENDBRANCH  14  15
DOCKED: ENDBRANCH   1  14
DOCKED: TORSDOF 10
DOCKED: TER
DOCKED: ENDMDL
________________________________________________________________________________


    FINAL DOCKED STATE:
    ________________________


Run:   11 / 20
Time taken for this run:   0.036s

DOCKED: MODEL        11
DOCKED: USER    Run = 11
DOCKED: USER
DOCKED: USER    Estimated Free Energy of Binding    =  -6.74 kcal/mol  [=(1)+(2)+(3)-(4)]
DOCKED: USER
DOCKED: USER    (1) Final Intermolecular Energy     =  -9.73 kcal/mol
DOCKED: USER        vdW + Hbond + desolv Energy     =  -8.34 kcal/mol
DOCKED: USER        Electrostatic Energy            =  -1.39 kcal/mol
DOCKED: USER        Moving Ligand-Fixed Receptor    =  -9.73 kcal/mol
DOCKED: USER        Moving Ligand-Moving Receptor   =  +0.00 kcal/mol
DOCKED: USER    (2) Final Total Internal Energy     =  -0.44 kcal/mol
DOCKED: USER    (3) Torsional Free Energy           =  +2.98 kcal/mol
DOCKED: USER    (4) Unbound System's Energy         =  -0.44 kcal/mol
DOCKED: USER
DOCKED: USER
DOCKED: REMARK SMILES O/C(=C/CCOc1ccc(Cl)cc1Cl)[N-]/N=C\c1cccnc1F
DOCKED: REMARK SMILES IDX 2 1 1 2 15 4 16 5 17 6 18 7 23 8 19 9 22 10 20 11 21 12
DOCKED: REMARK SMILES IDX 24 13 3 14 4 15 5 16 6 17 7 18 8 19 13 20 9 21 12 22 10 23
DOCKED: REMARK SMILES IDX 14 24 11 25
DOCKED: REMARK H PARENT 1 3
DOCKED: USER                              x       y       z     vdW  Elec       q    Type
DOCKED: USER                           _______ _______ _______ _____ _____    ______ ____
DOCKED: ROOT
DOCKED: ATOM      1  C   UNL     1     145.856  73.383 220.141 -0.57 +0.00    +0.023 C  
DOCKED: ENDROOT
DOCKED: BRANCH   1   2
DOCKED: ATOM      2  O   UNL     1     146.603  72.863 221.199 -0.19 -0.02    -0.530 OA 
DOCKED: ATOM      3  H   UNL     1     146.426  71.942 221.585 -0.36 -0.17    +0.290 HD 
DOCKED: ENDBRANCH   1   2
DOCKED: BRANCH   1   4
DOCKED: ATOM      4  N   UNL     1     146.285  73.050 218.812 -0.49 -0.57    -0.546 NA 
DOCKED: BRANCH   4   5
DOCKED: ATOM      5  N   UNL     1     145.939  71.877 218.126 -0.33 -0.46    -0.372 NA 
DOCKED: BRANCH   5   6
DOCKED: ATOM      6  C   UNL     1     144.891  71.166 218.420 -0.17 +0.03    +0.099 C  
DOCKED: BRANCH   6   7
DOCKED: ATOM      7  C   UNL     1     144.949  69.730 218.779 -0.25 +0.01    +0.046 A  
DOCKED: ATOM      8  C   UNL     1     146.124  69.197 219.333 -0.22 +0.12    +0.221 A  
DOCKED: ATOM      9  C   UNL     1     143.880  68.857 218.509 -0.18 -0.00    +0.016 A  
DOCKED: ATOM     10  N   UNL     1     146.198  67.873 219.638 -0.63 -0.03    -0.228 NA 
DOCKED: ATOM     11  C   UNL     1     143.984  67.503 218.832 -0.29 -0.01    +0.021 A  
DOCKED: ATOM     12  C   UNL     1     145.162  67.025 219.406 -0.42 -0.03    +0.114 A  
DOCKED: ATOM     13  F   UNL     1     147.191  69.996 219.587 -0.08 -0.22    -0.184 F  
DOCKED: ENDBRANCH   6   7
DOCKED: ENDBRANCH   5   6
DOCKED: ENDBRANCH   4   5
DOCKED: ENDBRANCH   1   4
DOCKED: BRANCH   1  14
DOCKED: ATOM     14  C   UNL     1     144.785  74.155 220.419 -0.52 +0.00    -0.001 C  
DOCKED: BRANCH  14  15
DOCKED: ATOM     15  C   UNL     1     143.548  74.268 219.566 -0.29 -0.02    +0.071 C  
DOCKED: BRANCH  15  16
DOCKED: ATOM     16  C   UNL     1     142.270  74.223 220.411 -0.18 -0.06    +0.234 C  
DOCKED: BRANCH  16  17
DOCKED: ATOM     17  O   UNL     1     141.457  75.376 220.181 -0.05 +0.17    -0.492 OA 
DOCKED: BRANCH  17  18
DOCKED: ATOM     18  C   UNL     1     141.460  76.549 220.958 -0.23 -0.07    +0.137 A  
DOCKED: ATOM     19  C   UNL     1     141.071  76.561 222.313 -0.34 -0.02    +0.049 A  
DOCKED: ATOM     20  C   UNL     1     141.860  77.752 220.352 -0.28 -0.05    +0.084 A  
DOCKED: ATOM     21  C   UNL     1     141.092  77.753 223.043 -0.42 -0.01    +0.024 A  
DOCKED: ATOM     22  C   UNL     1     141.878  78.942 221.088 -0.31 -0.03    +0.045 A  
DOCKED: ATOM     23  C   UNL     1     141.495  78.943 222.432 -0.46 -0.02    +0.042 A  
DOCKED: ATOM     24  Cl  UNL     1     142.351  77.779 218.666 -0.38 +0.05    -0.080 Cl 
DOCKED: ATOM     25  Cl  UNL     1     141.520  80.437 223.352 -0.70 +0.02    -0.084 Cl 
DOCKED: ENDBRANCH  17  18
DOCKED: ENDBRANCH  16  17
DOCKED: ENDBRANCH  15  16
DOCKED: ENDBRANCH  14  15
DOCKED: ENDBRANCH   1  14
DOCKED: TORSDOF 10
DOCKED: TER
DOCKED: ENDMDL
________________________________________________________________________________


    FINAL DOCKED STATE:
    ________________________


Run:   12 / 20
Time taken for this run:   0.036s

DOCKED: MODEL        12
DOCKED: USER    Run = 12
DOCKED: USER
DOCKED: USER    Estimated Free Energy of Binding    =  -6.66 kcal/mol  [=(1)+(2)+(3)-(4)]
DOCKED: USER
DOCKED: USER    (1) Final Intermolecular Energy     =  -9.64 kcal/mol
DOCKED: USER        vdW + Hbond + desolv Energy     =  -9.60 kcal/mol
DOCKED: USER        Electrostatic Energy            =  -0.05 kcal/mol
DOCKED: USER        Moving Ligand-Fixed Receptor    =  -9.64 kcal/mol
DOCKED: USER        Moving Ligand-Moving Receptor   =  +0.00 kcal/mol
DOCKED: USER    (2) Final Total Internal Energy     =  -0.53 kcal/mol
DOCKED: USER    (3) Torsional Free Energy           =  +2.98 kcal/mol
DOCKED: USER    (4) Unbound System's Energy         =  -0.53 kcal/mol
DOCKED: USER
DOCKED: USER
DOCKED: REMARK SMILES O/C(=C/CCOc1ccc(Cl)cc1Cl)[N-]/N=C\c1cccnc1F
DOCKED: REMARK SMILES IDX 2 1 1 2 15 4 16 5 17 6 18 7 23 8 19 9 22 10 20 11 21 12
DOCKED: REMARK SMILES IDX 24 13 3 14 4 15 5 16 6 17 7 18 8 19 13 20 9 21 12 22 10 23
DOCKED: REMARK SMILES IDX 14 24 11 25
DOCKED: REMARK H PARENT 1 3
DOCKED: USER                              x       y       z     vdW  Elec       q    Type
DOCKED: USER                           _______ _______ _______ _____ _____    ______ ____
DOCKED: ROOT
DOCKED: ATOM      1  C   UNL     1     140.545  73.238 222.023 -0.25 -0.00    +0.023 C  
DOCKED: ENDROOT
DOCKED: BRANCH   1   2
DOCKED: ATOM      2  O   UNL     1     139.639  74.253 222.332 -0.69 +0.06    -0.530 OA 
DOCKED: ATOM      3  H   UNL     1     138.903  74.133 223.019 -0.50 -0.16    +0.290 HD 
DOCKED: ENDBRANCH   1   2
DOCKED: BRANCH   1   4
DOCKED: ATOM      4  N   UNL     1     140.324  71.958 222.635 -0.12 +0.07    -0.546 NA 
DOCKED: BRANCH   4   5
DOCKED: ATOM      5  N   UNL     1     140.783  71.585 223.907 -0.13 +0.03    -0.372 NA 
DOCKED: BRANCH   5   6
DOCKED: ATOM      6  C   UNL     1     139.996  71.439 224.931 -0.37 -0.02    +0.099 C  
DOCKED: BRANCH   6   7
DOCKED: ATOM      7  C   UNL     1     140.297  70.547 226.075 -0.53 -0.01    +0.046 A  
DOCKED: ATOM      8  C   UNL     1     140.771  71.094 227.278 -0.51 -0.04    +0.221 A  
DOCKED: ATOM      9  C   UNL     1     140.194  69.149 225.969 -0.49 -0.00    +0.016 A  
DOCKED: ATOM     10  N   UNL     1     141.079  70.281 228.325 -0.34 +0.04    -0.228 NA 
DOCKED: ATOM     11  C   UNL     1     140.518  68.339 227.059 -0.65 -0.00    +0.021 A  
DOCKED: ATOM     12  C   UNL     1     140.959  68.930 228.243 -0.53 -0.03    +0.114 A  
DOCKED: ATOM     13  F   UNL     1     140.912  72.436 227.419 -0.31 +0.04    -0.184 F  
DOCKED: ENDBRANCH   6   7
DOCKED: ENDBRANCH   5   6
DOCKED: ENDBRANCH   4   5
DOCKED: ENDBRANCH   1   4
DOCKED: BRANCH   1  14
DOCKED: ATOM     14  C   UNL     1     141.559  73.507 221.176 -0.27 +0.00    -0.001 C  
DOCKED: BRANCH  14  15
DOCKED: ATOM     15  C   UNL     1     142.075  74.883 220.843 -0.26 -0.02    +0.071 C  
DOCKED: BRANCH  15  16
DOCKED: ATOM     16  C   UNL     1     141.204  75.575 219.788 -0.11 -0.08    +0.234 C  
DOCKED: BRANCH  16  17
DOCKED: ATOM     17  O   UNL     1     140.481  76.671 220.353 -0.02 +0.17    -0.492 OA 
DOCKED: BRANCH  17  18
DOCKED: ATOM     18  C   UNL     1     141.010  77.642 221.222 -0.25 -0.06    +0.137 A  
DOCKED: ATOM     19  C   UNL     1     140.943  77.518 222.625 -0.42 -0.02    +0.049 A  
DOCKED: ATOM     20  C   UNL     1     141.619  78.779 220.666 -0.28 -0.05    +0.084 A  
DOCKED: ATOM     21  C   UNL     1     141.484  78.511 223.448 -0.56 -0.01    +0.024 A  
DOCKED: ATOM     22  C   UNL     1     142.159  79.769 221.494 -0.37 -0.02    +0.045 A  
DOCKED: ATOM     23  C   UNL     1     142.093  79.635 222.884 -0.56 -0.02    +0.042 A  
DOCKED: ATOM     24  Cl  UNL     1     141.721  78.970 218.923 -0.33 +0.05    -0.080 Cl 
DOCKED: ATOM     25  Cl  UNL     1     142.771  80.878 223.920 -0.75 +0.01    -0.084 Cl 
DOCKED: ENDBRANCH  17  18
DOCKED: ENDBRANCH  16  17
DOCKED: ENDBRANCH  15  16
DOCKED: ENDBRANCH  14  15
DOCKED: ENDBRANCH   1  14
DOCKED: TORSDOF 10
DOCKED: TER
DOCKED: ENDMDL
________________________________________________________________________________


    FINAL DOCKED STATE:
    ________________________


Run:   13 / 20
Time taken for this run:   0.036s

DOCKED: MODEL        13
DOCKED: USER    Run = 13
DOCKED: USER
DOCKED: USER    Estimated Free Energy of Binding    =  -5.88 kcal/mol  [=(1)+(2)+(3)-(4)]
DOCKED: USER
DOCKED: USER    (1) Final Intermolecular Energy     =  -8.86 kcal/mol
DOCKED: USER        vdW + Hbond + desolv Energy     =  -8.75 kcal/mol
DOCKED: USER        Electrostatic Energy            =  -0.11 kcal/mol
DOCKED: USER        Moving Ligand-Fixed Receptor    =  -8.86 kcal/mol
DOCKED: USER        Moving Ligand-Moving Receptor   =  +0.00 kcal/mol
DOCKED: USER    (2) Final Total Internal Energy     =  -0.60 kcal/mol
DOCKED: USER    (3) Torsional Free Energy           =  +2.98 kcal/mol
DOCKED: USER    (4) Unbound System's Energy         =  -0.60 kcal/mol
DOCKED: USER
DOCKED: USER
DOCKED: REMARK SMILES O/C(=C/CCOc1ccc(Cl)cc1Cl)[N-]/N=C\c1cccnc1F
DOCKED: REMARK SMILES IDX 2 1 1 2 15 4 16 5 17 6 18 7 23 8 19 9 22 10 20 11 21 12
DOCKED: REMARK SMILES IDX 24 13 3 14 4 15 5 16 6 17 7 18 8 19 13 20 9 21 12 22 10 23
DOCKED: REMARK SMILES IDX 14 24 11 25
DOCKED: REMARK H PARENT 1 3
DOCKED: USER                              x       y       z     vdW  Elec       q    Type
DOCKED: USER                           _______ _______ _______ _____ _____    ______ ____
DOCKED: ROOT
DOCKED: ATOM      1  C   UNL     1     139.549  73.720 221.632 -0.25 -0.00    +0.023 C  
DOCKED: ENDROOT
DOCKED: BRANCH   1   2
DOCKED: ATOM      2  O   UNL     1     138.224  74.016 221.953 -0.08 +0.16    -0.530 OA 
DOCKED: ATOM      3  H   UNL     1     137.884  74.016 222.908 -0.47 -0.18    +0.290 HD 
DOCKED: ENDBRANCH   1   2
DOCKED: BRANCH   1   4
DOCKED: ATOM      4  N   UNL     1     140.415  73.344 222.715 -0.40 -0.04    -0.546 NA 
DOCKED: BRANCH   4   5
DOCKED: ATOM      5  N   UNL     1     140.705  72.025 223.091 -0.22 +0.03    -0.372 NA 
DOCKED: BRANCH   5   6
DOCKED: ATOM      6  C   UNL     1     139.911  71.305 223.825 -0.35 -0.02    +0.099 C  
DOCKED: BRANCH   6   7
DOCKED: ATOM      7  C   UNL     1     140.171  70.991 225.249 -0.49 -0.01    +0.046 A  
DOCKED: ATOM      8  C   UNL     1     139.589  69.851 225.828 -0.30 -0.03    +0.221 A  
DOCKED: ATOM      9  C   UNL     1     140.927  71.847 226.069 -0.60 -0.00    +0.016 A  
DOCKED: ATOM     10  N   UNL     1     139.796  69.570 227.143 -0.31 +0.04    -0.228 NA 
DOCKED: ATOM     11  C   UNL     1     141.123  71.534 227.415 -0.75 -0.00    +0.021 A  
DOCKED: ATOM     12  C   UNL     1     140.547  70.376 227.939 -0.55 -0.02    +0.114 A  
DOCKED: ATOM     13  F   UNL     1     138.830  69.010 225.083 -0.11 +0.02    -0.184 F  
DOCKED: ENDBRANCH   6   7
DOCKED: ENDBRANCH   5   6
DOCKED: ENDBRANCH   4   5
DOCKED: ENDBRANCH   1   4
DOCKED: BRANCH   1  14
DOCKED: ATOM     14  C   UNL     1     139.939  73.797 220.343 -0.13 +0.00    -0.001 C  
DOCKED: BRANCH  14  15
DOCKED: ATOM     15  C   UNL     1     141.367  73.772 219.862 -0.14 -0.02    +0.071 C  
DOCKED: BRANCH  15  16
DOCKED: ATOM     16  C   UNL     1     142.001  75.167 219.893 -0.16 -0.09    +0.234 C  
DOCKED: BRANCH  16  17
DOCKED: ATOM     17  O   UNL     1     141.052  76.157 220.297 -0.04 +0.18    -0.492 OA 
DOCKED: BRANCH  17  18
DOCKED: ATOM     18  C   UNL     1     141.312  77.240 221.155 -0.24 -0.07    +0.137 A  
DOCKED: ATOM     19  C   UNL     1     141.086  77.176 222.545 -0.37 -0.02    +0.049 A  
DOCKED: ATOM     20  C   UNL     1     141.808  78.432 220.600 -0.28 -0.05    +0.084 A  
DOCKED: ATOM     21  C   UNL     1     141.360  78.280 223.357 -0.51 -0.01    +0.024 A  
DOCKED: ATOM     22  C   UNL     1     142.080  79.534 221.417 -0.34 -0.02    +0.045 A  
DOCKED: ATOM     23  C   UNL     1     141.858  79.459 222.795 -0.53 -0.02    +0.042 A  
DOCKED: ATOM     24  Cl  UNL     1     142.102  78.553 218.872 -0.35 +0.05    -0.080 Cl 
DOCKED: ATOM     25  Cl  UNL     1     142.201  80.842 223.817 -0.77 +0.01    -0.084 Cl 
DOCKED: ENDBRANCH  17  18
DOCKED: ENDBRANCH  16  17
DOCKED: ENDBRANCH  15  16
DOCKED: ENDBRANCH  14  15
DOCKED: ENDBRANCH   1  14
DOCKED: TORSDOF 10
DOCKED: TER
DOCKED: ENDMDL
________________________________________________________________________________


    FINAL DOCKED STATE:
    ________________________


Run:   14 / 20
Time taken for this run:   0.036s

DOCKED: MODEL        14
DOCKED: USER    Run = 14
DOCKED: USER
DOCKED: USER    Estimated Free Energy of Binding    =  -5.84 kcal/mol  [=(1)+(2)+(3)-(4)]
DOCKED: USER
DOCKED: USER    (1) Final Intermolecular Energy     =  -8.82 kcal/mol
DOCKED: USER        vdW + Hbond + desolv Energy     =  -8.79 kcal/mol
DOCKED: USER        Electrostatic Energy            =  -0.03 kcal/mol
DOCKED: USER        Moving Ligand-Fixed Receptor    =  -8.82 kcal/mol
DOCKED: USER        Moving Ligand-Moving Receptor   =  +0.00 kcal/mol
DOCKED: USER    (2) Final Total Internal Energy     =  -1.12 kcal/mol
DOCKED: USER    (3) Torsional Free Energy           =  +2.98 kcal/mol
DOCKED: USER    (4) Unbound System's Energy         =  -1.12 kcal/mol
DOCKED: USER
DOCKED: USER
DOCKED: REMARK SMILES O/C(=C/CCOc1ccc(Cl)cc1Cl)[N-]/N=C\c1cccnc1F
DOCKED: REMARK SMILES IDX 2 1 1 2 15 4 16 5 17 6 18 7 23 8 19 9 22 10 20 11 21 12
DOCKED: REMARK SMILES IDX 24 13 3 14 4 15 5 16 6 17 7 18 8 19 13 20 9 21 12 22 10 23
DOCKED: REMARK SMILES IDX 14 24 11 25
DOCKED: REMARK H PARENT 1 3
DOCKED: USER                              x       y       z     vdW  Elec       q    Type
DOCKED: USER                           _______ _______ _______ _____ _____    ______ ____
DOCKED: ROOT
DOCKED: ATOM      1  C   UNL     1     140.539  74.190 221.521 -0.30 -0.00    +0.023 C  
DOCKED: ENDROOT
DOCKED: BRANCH   1   2
DOCKED: ATOM      2  O   UNL     1     141.812  74.736 221.688 -0.02 +0.11    -0.530 OA 
DOCKED: ATOM      3  H   UNL     1     141.992  75.729 221.595 -0.33 -0.16    +0.290 HD 
DOCKED: ENDBRANCH   1   2
DOCKED: BRANCH   1   4
DOCKED: ATOM      4  N   UNL     1     140.037  73.367 222.586 -0.53 +0.03    -0.546 NA 
DOCKED: BRANCH   4   5
DOCKED: ATOM      5  N   UNL     1     140.712  72.271 223.142 -0.25 +0.02    -0.372 NA 
DOCKED: BRANCH   5   6
DOCKED: ATOM      6  C   UNL     1     140.106  71.307 223.769 -0.35 -0.02    +0.099 C  
DOCKED: BRANCH   6   7
DOCKED: ATOM      7  C   UNL     1     140.283  71.029 225.213 -0.50 -0.01    +0.046 A  
DOCKED: ATOM      8  C   UNL     1     139.618  69.940 225.799 -0.31 -0.03    +0.221 A  
DOCKED: ATOM      9  C   UNL     1     141.043  71.875 226.041 -0.60 -0.00    +0.016 A  
DOCKED: ATOM     10  N   UNL     1     139.749  69.694 227.131 -0.31 +0.03    -0.228 NA 
DOCKED: ATOM     11  C   UNL     1     141.159  71.598 227.404 -0.75 -0.00    +0.021 A  
DOCKED: ATOM     12  C   UNL     1     140.502  70.489 227.936 -0.56 -0.02    +0.114 A  
DOCKED: ATOM     13  F   UNL     1     138.853  69.112 225.045 -0.10 +0.02    -0.184 F  
DOCKED: ENDBRANCH   6   7
DOCKED: ENDBRANCH   5   6
DOCKED: ENDBRANCH   4   5
DOCKED: ENDBRANCH   1   4
DOCKED: BRANCH   1  14
DOCKED: ATOM     14  C   UNL     1     139.856  74.463 220.390 -0.15 +0.00    -0.001 C  
DOCKED: BRANCH  14  15
DOCKED: ATOM     15  C   UNL     1     138.754  75.483 220.263 -0.08 -0.02    +0.071 C  
DOCKED: BRANCH  15  16
DOCKED: ATOM     16  C   UNL     1     139.310  76.889 220.010 -0.04 -0.06    +0.234 C  
DOCKED: BRANCH  16  17
DOCKED: ATOM     17  O   UNL     1     140.645  77.016 220.504 -0.03 +0.18    -0.492 OA 
DOCKED: BRANCH  17  18
DOCKED: ATOM     18  C   UNL     1     141.096  77.997 221.404 -0.27 -0.06    +0.137 A  
DOCKED: ATOM     19  C   UNL     1     140.994  77.847 222.802 -0.44 -0.02    +0.049 A  
DOCKED: ATOM     20  C   UNL     1     141.663  79.173 220.884 -0.29 -0.04    +0.084 A  
DOCKED: ATOM     21  C   UNL     1     141.459  78.851 223.656 -0.58 -0.01    +0.024 A  
DOCKED: ATOM     22  C   UNL     1     142.126  80.175 221.744 -0.44 -0.02    +0.045 A  
DOCKED: ATOM     23  C   UNL     1     142.026  80.014 223.128 -0.58 -0.01    +0.042 A  
DOCKED: ATOM     24  Cl  UNL     1     141.808  79.398 219.148 -0.35 +0.05    -0.080 Cl 
DOCKED: ATOM     25  Cl  UNL     1     142.607  81.273 224.203 -0.63 +0.01    -0.084 Cl 
DOCKED: ENDBRANCH  17  18
DOCKED: ENDBRANCH  16  17
DOCKED: ENDBRANCH  15  16
DOCKED: ENDBRANCH  14  15
DOCKED: ENDBRANCH   1  14
DOCKED: TORSDOF 10
DOCKED: TER
DOCKED: ENDMDL
________________________________________________________________________________


    FINAL DOCKED STATE:
    ________________________


Run:   15 / 20
Time taken for this run:   0.036s

DOCKED: MODEL        15
DOCKED: USER    Run = 15
DOCKED: USER
DOCKED: USER    Estimated Free Energy of Binding    =  -5.94 kcal/mol  [=(1)+(2)+(3)-(4)]
DOCKED: USER
DOCKED: USER    (1) Final Intermolecular Energy     =  -8.93 kcal/mol
DOCKED: USER        vdW + Hbond + desolv Energy     =  -9.13 kcal/mol
DOCKED: USER        Electrostatic Energy            =  +0.21 kcal/mol
DOCKED: USER        Moving Ligand-Fixed Receptor    =  -8.93 kcal/mol
DOCKED: USER        Moving Ligand-Moving Receptor   =  +0.00 kcal/mol
DOCKED: USER    (2) Final Total Internal Energy     =  -0.61 kcal/mol
DOCKED: USER    (3) Torsional Free Energy           =  +2.98 kcal/mol
DOCKED: USER    (4) Unbound System's Energy         =  -0.61 kcal/mol
DOCKED: USER
DOCKED: USER
DOCKED: REMARK SMILES O/C(=C/CCOc1ccc(Cl)cc1Cl)[N-]/N=C\c1cccnc1F
DOCKED: REMARK SMILES IDX 2 1 1 2 15 4 16 5 17 6 18 7 23 8 19 9 22 10 20 11 21 12
DOCKED: REMARK SMILES IDX 24 13 3 14 4 15 5 16 6 17 7 18 8 19 13 20 9 21 12 22 10 23
DOCKED: REMARK SMILES IDX 14 24 11 25
DOCKED: REMARK H PARENT 1 3
DOCKED: USER                              x       y       z     vdW  Elec       q    Type
DOCKED: USER                           _______ _______ _______ _____ _____    ______ ____
DOCKED: ROOT
DOCKED: ATOM      1  C   UNL     1     141.034  74.789 221.370 -0.31 -0.00    +0.023 C  
DOCKED: ENDROOT
DOCKED: BRANCH   1   2
DOCKED: ATOM      2  O   UNL     1     142.290  75.234 220.956 -0.07 +0.24    -0.530 OA 
DOCKED: ATOM      3  H   UNL     1     142.586  76.197 221.062 -0.37 -0.25    +0.290 HD 
DOCKED: ENDBRANCH   1   2
DOCKED: BRANCH   1   4
DOCKED: ATOM      4  N   UNL     1     140.027  75.790 221.588 -0.13 +0.12    -0.546 NA 
DOCKED: BRANCH   4   5
DOCKED: ATOM      5  N   UNL     1     140.204  77.166 221.385 -0.09 +0.12    -0.372 NA 
DOCKED: BRANCH   5   6
DOCKED: ATOM      6  C   UNL     1     139.859  78.064 222.259 -0.30 -0.02    +0.099 C  
DOCKED: BRANCH   6   7
DOCKED: ATOM      7  C   UNL     1     140.770  79.123 222.750 -0.41 -0.01    +0.046 A  
DOCKED: ATOM      8  C   UNL     1     140.243  80.239 223.420 -0.31 -0.04    +0.221 A  
DOCKED: ATOM      9  C   UNL     1     142.152  79.085 222.496 -0.52 -0.01    +0.016 A  
DOCKED: ATOM     10  N   UNL     1     141.068  81.233 223.848 -0.28 +0.02    -0.228 NA 
DOCKED: ATOM     11  C   UNL     1     142.975  80.119 222.947 -0.64 -0.01    +0.021 A  
DOCKED: ATOM     12  C   UNL     1     142.409  81.194 223.633 -0.52 -0.02    +0.114 A  
DOCKED: ATOM     13  F   UNL     1     138.912  80.332 223.664 -0.12 +0.02    -0.184 F  
DOCKED: ENDBRANCH   6   7
DOCKED: ENDBRANCH   5   6
DOCKED: ENDBRANCH   4   5
DOCKED: ENDBRANCH   1   4
DOCKED: BRANCH   1  14
DOCKED: ATOM     14  C   UNL     1     140.833  73.466 221.534 -0.29 +0.00    -0.001 C  
DOCKED: BRANCH  14  15
DOCKED: ATOM     15  C   UNL     1     139.730  72.847 222.353 -0.25 -0.01    +0.071 C  
DOCKED: BRANCH  15  16
DOCKED: ATOM     16  C   UNL     1     140.219  71.618 223.127 -0.25 -0.03    +0.234 C  
DOCKED: BRANCH  16  17
DOCKED: ATOM     17  O   UNL     1     139.529  71.483 224.372 -0.17 +0.12    -0.492 OA 
DOCKED: BRANCH  17  18
DOCKED: ATOM     18  C   UNL     1     139.966  70.725 225.473 -0.41 -0.02    +0.137 A  
DOCKED: ATOM     19  C   UNL     1     140.672  71.296 226.552 -0.63 -0.01    +0.049 A  
DOCKED: ATOM     20  C   UNL     1     139.693  69.347 225.490 -0.38 -0.01    +0.084 A  
DOCKED: ATOM     21  C   UNL     1     141.085  70.500 227.625 -0.60 -0.00    +0.024 A  
DOCKED: ATOM     22  C   UNL     1     140.109  68.556 226.566 -0.57 -0.01    +0.045 A  
DOCKED: ATOM     23  C   UNL     1     140.803  69.131 227.634 -0.59 -0.01    +0.042 A  
DOCKED: ATOM     24  Cl  UNL     1     138.816  68.598 224.163 -0.42 +0.01    -0.080 Cl 
DOCKED: ATOM     25  Cl  UNL     1     141.323  68.137 228.982 -0.51 +0.02    -0.084 Cl 
DOCKED: ENDBRANCH  17  18
DOCKED: ENDBRANCH  16  17
DOCKED: ENDBRANCH  15  16
DOCKED: ENDBRANCH  14  15
DOCKED: ENDBRANCH   1  14
DOCKED: TORSDOF 10
DOCKED: TER
DOCKED: ENDMDL
________________________________________________________________________________


    FINAL DOCKED STATE:
    ________________________


Run:   16 / 20
Time taken for this run:   0.036s

DOCKED: MODEL        16
DOCKED: USER    Run = 16
DOCKED: USER
DOCKED: USER    Estimated Free Energy of Binding    =  -5.78 kcal/mol  [=(1)+(2)+(3)-(4)]
DOCKED: USER
DOCKED: USER    (1) Final Intermolecular Energy     =  -8.76 kcal/mol
DOCKED: USER        vdW + Hbond + desolv Energy     =  -8.75 kcal/mol
DOCKED: USER        Electrostatic Energy            =  -0.01 kcal/mol
DOCKED: USER        Moving Ligand-Fixed Receptor    =  -8.76 kcal/mol
DOCKED: USER        Moving Ligand-Moving Receptor   =  +0.00 kcal/mol
DOCKED: USER    (2) Final Total Internal Energy     =  -0.67 kcal/mol
DOCKED: USER    (3) Torsional Free Energy           =  +2.98 kcal/mol
DOCKED: USER    (4) Unbound System's Energy         =  -0.67 kcal/mol
DOCKED: USER
DOCKED: USER
DOCKED: REMARK SMILES O/C(=C/CCOc1ccc(Cl)cc1Cl)[N-]/N=C\c1cccnc1F
DOCKED: REMARK SMILES IDX 2 1 1 2 15 4 16 5 17 6 18 7 23 8 19 9 22 10 20 11 21 12
DOCKED: REMARK SMILES IDX 24 13 3 14 4 15 5 16 6 17 7 18 8 19 13 20 9 21 12 22 10 23
DOCKED: REMARK SMILES IDX 14 24 11 25
DOCKED: REMARK H PARENT 1 3
DOCKED: USER                              x       y       z     vdW  Elec       q    Type
DOCKED: USER                           _______ _______ _______ _____ _____    ______ ____
DOCKED: ROOT
DOCKED: ATOM      1  C   UNL     1     140.505  74.515 221.038 -0.26 -0.00    +0.023 C  
DOCKED: ENDROOT
DOCKED: BRANCH   1   2
DOCKED: ATOM      2  O   UNL     1     141.387  75.049 221.978 -0.30 +0.09    -0.530 OA 
DOCKED: ATOM      3  H   UNL     1     142.171  75.635 221.714 -0.42 -0.17    +0.290 HD 
DOCKED: ENDBRANCH   1   2
DOCKED: BRANCH   1   4
DOCKED: ATOM      4  N   UNL     1     140.721  74.873 219.664 +0.03 +0.15    -0.546 NA 
DOCKED: BRANCH   4   5
DOCKED: ATOM      5  N   UNL     1     141.660  74.271 218.815 +0.01 +0.10    -0.372 NA 
DOCKED: BRANCH   5   6
DOCKED: ATOM      6  C   UNL     1     142.874  74.713 218.670 -0.17 -0.03    +0.099 C  
DOCKED: BRANCH   6   7
DOCKED: ATOM      7  C   UNL     1     144.058  74.073 219.288 -0.29 -0.01    +0.046 A  
DOCKED: ATOM      8  C   UNL     1     144.935  73.317 218.494 -0.15 +0.01    +0.221 A  
DOCKED: ATOM      9  C   UNL     1     144.294  74.136 220.673 -0.43 -0.01    +0.016 A  
DOCKED: ATOM     10  N   UNL     1     146.009  72.700 219.056 -0.72 -0.20    -0.228 NA 
DOCKED: ATOM     11  C   UNL     1     145.404  73.493 221.223 -0.61 -0.00    +0.021 A  
DOCKED: ATOM     12  C   UNL     1     146.262  72.776 220.389 -0.41 +0.03    +0.114 A  
DOCKED: ATOM     13  F   UNL     1     144.733  73.205 217.157 -0.02 -0.00    -0.184 F  
DOCKED: ENDBRANCH   6   7
DOCKED: ENDBRANCH   5   6
DOCKED: ENDBRANCH   4   5
DOCKED: ENDBRANCH   1   4
DOCKED: BRANCH   1  14
DOCKED: ATOM     14  C   UNL     1     139.517  73.701 221.462 -0.24 +0.00    -0.001 C  
DOCKED: BRANCH  14  15
DOCKED: ATOM     15  C   UNL     1     139.648  72.217 221.689 -0.21 -0.01    +0.071 C  
DOCKED: BRANCH  15  16
DOCKED: ATOM     16  C   UNL     1     140.583  71.904 222.864 -0.21 -0.02    +0.234 C  
DOCKED: BRANCH  16  17
DOCKED: ATOM     17  O   UNL     1     139.873  71.900 224.104 -0.17 +0.11    -0.492 OA 
DOCKED: BRANCH  17  18
DOCKED: ATOM     18  C   UNL     1     140.144  71.063 225.201 -0.42 -0.02    +0.137 A  
DOCKED: ATOM     19  C   UNL     1     140.815  71.518 226.353 -0.64 -0.01    +0.049 A  
DOCKED: ATOM     20  C   UNL     1     139.734  69.720 225.136 -0.36 -0.01    +0.084 A  
DOCKED: ATOM     21  C   UNL     1     141.060  70.646 227.418 -0.62 -0.00    +0.024 A  
DOCKED: ATOM     22  C   UNL     1     139.983  68.852 226.205 -0.51 -0.01    +0.045 A  
DOCKED: ATOM     23  C   UNL     1     140.644  69.315 227.346 -0.57 -0.01    +0.042 A  
DOCKED: ATOM     24  Cl  UNL     1     138.896  69.113 223.716 -0.35 +0.01    -0.080 Cl 
DOCKED: ATOM     25  Cl  UNL     1     140.954  68.224 228.685 -0.69 +0.02    -0.084 Cl 
DOCKED: ENDBRANCH  17  18
DOCKED: ENDBRANCH  16  17
DOCKED: ENDBRANCH  15  16
DOCKED: ENDBRANCH  14  15
DOCKED: ENDBRANCH   1  14
DOCKED: TORSDOF 10
DOCKED: TER
DOCKED: ENDMDL
________________________________________________________________________________


    FINAL DOCKED STATE:
    ________________________


Run:   17 / 20
Time taken for this run:   0.036s

DOCKED: MODEL        17
DOCKED: USER    Run = 17
DOCKED: USER
DOCKED: USER    Estimated Free Energy of Binding    =  -6.46 kcal/mol  [=(1)+(2)+(3)-(4)]
DOCKED: USER
DOCKED: USER    (1) Final Intermolecular Energy     =  -9.44 kcal/mol
DOCKED: USER        vdW + Hbond + desolv Energy     =  -9.73 kcal/mol
DOCKED: USER        Electrostatic Energy            =  +0.29 kcal/mol
DOCKED: USER        Moving Ligand-Fixed Receptor    =  -9.44 kcal/mol
DOCKED: USER        Moving Ligand-Moving Receptor   =  +0.00 kcal/mol
DOCKED: USER    (2) Final Total Internal Energy     =  -0.96 kcal/mol
DOCKED: USER    (3) Torsional Free Energy           =  +2.98 kcal/mol
DOCKED: USER    (4) Unbound System's Energy         =  -0.96 kcal/mol
DOCKED: USER
DOCKED: USER
DOCKED: REMARK SMILES O/C(=C/CCOc1ccc(Cl)cc1Cl)[N-]/N=C\c1cccnc1F
DOCKED: REMARK SMILES IDX 2 1 1 2 15 4 16 5 17 6 18 7 23 8 19 9 22 10 20 11 21 12
DOCKED: REMARK SMILES IDX 24 13 3 14 4 15 5 16 6 17 7 18 8 19 13 20 9 21 12 22 10 23
DOCKED: REMARK SMILES IDX 14 24 11 25
DOCKED: REMARK H PARENT 1 3
DOCKED: USER                              x       y       z     vdW  Elec       q    Type
DOCKED: USER                           _______ _______ _______ _____ _____    ______ ____
DOCKED: ROOT
DOCKED: ATOM      1  C   UNL     1     140.678  74.373 221.588 -0.31 -0.00    +0.023 C  
DOCKED: ENDROOT
DOCKED: BRANCH   1   2
DOCKED: ATOM      2  O   UNL     1     139.518  74.451 222.359 -0.64 +0.08    -0.530 OA 
DOCKED: ATOM      3  H   UNL     1     139.292  73.764 223.070 -0.46 -0.11    +0.290 HD 
DOCKED: ENDBRANCH   1   2
DOCKED: BRANCH   1   4
DOCKED: ATOM      4  N   UNL     1     141.341  75.609 221.279 -0.08 +0.19    -0.546 NA 
DOCKED: BRANCH   4   5
DOCKED: ATOM      5  N   UNL     1     140.807  76.886 221.505 -0.14 +0.14    -0.372 NA 
DOCKED: BRANCH   5   6
DOCKED: ATOM      6  C   UNL     1     140.708  77.416 222.688 -0.35 -0.03    +0.099 C  
DOCKED: BRANCH   6   7
DOCKED: ATOM      7  C   UNL     1     141.245  78.752 223.035 -0.50 -0.01    +0.046 A  
DOCKED: ATOM      8  C   UNL     1     140.384  79.738 223.542 -0.33 -0.04    +0.221 A  
DOCKED: ATOM      9  C   UNL     1     142.588  79.093 222.798 -0.48 -0.01    +0.016 A  
DOCKED: ATOM     10  N   UNL     1     140.860  80.978 223.835 -0.27 +0.03    -0.228 NA 
DOCKED: ATOM     11  C   UNL     1     143.050  80.373 223.108 -0.64 -0.01    +0.021 A  
DOCKED: ATOM     12  C   UNL     1     142.162  81.311 223.636 -0.52 -0.02    +0.114 A  
DOCKED: ATOM     13  F   UNL     1     139.074  79.463 223.762 -0.13 +0.02    -0.184 F  
DOCKED: ENDBRANCH   6   7
DOCKED: ENDBRANCH   5   6
DOCKED: ENDBRANCH   4   5
DOCKED: ENDBRANCH   1   4
DOCKED: BRANCH   1  14
DOCKED: ATOM     14  C   UNL     1     141.110  73.161 221.184 -0.27 +0.00    -0.001 C  
DOCKED: BRANCH  14  15
DOCKED: ATOM     15  C   UNL     1     141.146  71.920 222.038 -0.20 -0.01    +0.071 C  
DOCKED: BRANCH  15  16
DOCKED: ATOM     16  C   UNL     1     139.735  71.434 222.392 -0.19 -0.04    +0.234 C  
DOCKED: BRANCH  16  17
DOCKED: ATOM     17  O   UNL     1     139.402  71.754 223.744 -0.14 +0.13    -0.492 OA 
DOCKED: BRANCH  17  18
DOCKED: ATOM     18  C   UNL     1     139.787  71.020 224.880 -0.38 -0.03    +0.137 A  
DOCKED: ATOM     19  C   UNL     1     140.724  71.507 225.814 -0.58 -0.01    +0.049 A  
DOCKED: ATOM     20  C   UNL     1     139.220  69.750 225.081 -0.35 -0.01    +0.084 A  
DOCKED: ATOM     21  C   UNL     1     141.074  70.738 226.928 -0.62 -0.00    +0.024 A  
DOCKED: ATOM     22  C   UNL     1     139.575  68.985 226.197 -0.48 -0.01    +0.045 A  
DOCKED: ATOM     23  C   UNL     1     140.500  69.479 227.121 -0.55 -0.01    +0.042 A  
DOCKED: ATOM     24  Cl  UNL     1     138.051  69.107 223.938 -0.36 +0.01    -0.080 Cl 
DOCKED: ATOM     25  Cl  UNL     1     140.943  68.518 228.521 -0.75 +0.02    -0.084 Cl 
DOCKED: ENDBRANCH  17  18
DOCKED: ENDBRANCH  16  17
DOCKED: ENDBRANCH  15  16
DOCKED: ENDBRANCH  14  15
DOCKED: ENDBRANCH   1  14
DOCKED: TORSDOF 10
DOCKED: TER
DOCKED: ENDMDL
________________________________________________________________________________


    FINAL DOCKED STATE:
    ________________________


Run:   18 / 20
Time taken for this run:   0.036s

DOCKED: MODEL        18
DOCKED: USER    Run = 18
DOCKED: USER
DOCKED: USER    Estimated Free Energy of Binding    =  -6.54 kcal/mol  [=(1)+(2)+(3)-(4)]
DOCKED: USER
DOCKED: USER    (1) Final Intermolecular Energy     =  -9.52 kcal/mol
DOCKED: USER        vdW + Hbond + desolv Energy     =  -8.34 kcal/mol
DOCKED: USER        Electrostatic Energy            =  -1.18 kcal/mol
DOCKED: USER        Moving Ligand-Fixed Receptor    =  -9.52 kcal/mol
DOCKED: USER        Moving Ligand-Moving Receptor   =  +0.00 kcal/mol
DOCKED: USER    (2) Final Total Internal Energy     =  -0.69 kcal/mol
DOCKED: USER    (3) Torsional Free Energy           =  +2.98 kcal/mol
DOCKED: USER    (4) Unbound System's Energy         =  -0.69 kcal/mol
DOCKED: USER
DOCKED: USER
DOCKED: REMARK SMILES O/C(=C/CCOc1ccc(Cl)cc1Cl)[N-]/N=C\c1cccnc1F
DOCKED: REMARK SMILES IDX 2 1 1 2 15 4 16 5 17 6 18 7 23 8 19 9 22 10 20 11 21 12
DOCKED: REMARK SMILES IDX 24 13 3 14 4 15 5 16 6 17 7 18 8 19 13 20 9 21 12 22 10 23
DOCKED: REMARK SMILES IDX 14 24 11 25
DOCKED: REMARK H PARENT 1 3
DOCKED: USER                              x       y       z     vdW  Elec       q    Type
DOCKED: USER                           _______ _______ _______ _____ _____    ______ ____
DOCKED: ROOT
DOCKED: ATOM      1  C   UNL     1     145.686  73.275 220.261 -0.57 +0.00    +0.023 C  
DOCKED: ENDROOT
DOCKED: BRANCH   1   2
DOCKED: ATOM      2  O   UNL     1     146.349  72.719 221.355 -0.21 +0.06    -0.530 OA 
DOCKED: ATOM      3  H   UNL     1     146.000  71.900 221.841 -0.36 -0.27    +0.290 HD 
DOCKED: ENDBRANCH   1   2
DOCKED: BRANCH   1   4
DOCKED: ATOM      4  N   UNL     1     146.316  73.140 218.978 -0.50 -0.50    -0.546 NA 
DOCKED: BRANCH   4   5
DOCKED: ATOM      5  N   UNL     1     145.923  72.236 217.981 -0.42 -0.43    -0.372 NA 
DOCKED: BRANCH   5   6
DOCKED: ATOM      6  C   UNL     1     144.974  71.364 218.147 -0.15 +0.04    +0.099 C  
DOCKED: BRANCH   6   7
DOCKED: ATOM      7  C   UNL     1     145.213  69.955 218.536 -0.25 +0.01    +0.046 A  
DOCKED: ATOM      8  C   UNL     1     144.624  69.447 219.705 -0.12 +0.05    +0.221 A  
DOCKED: ATOM      9  C   UNL     1     146.082  69.124 217.808 -0.25 +0.00    +0.016 A  
DOCKED: ATOM     10  N   UNL     1     144.863  68.163 220.089 -0.67 -0.04    -0.228 NA 
DOCKED: ATOM     11  C   UNL     1     146.309  67.812 218.225 -0.36 -0.00    +0.021 A  
DOCKED: ATOM     12  C   UNL     1     145.679  67.342 219.378 -0.47 -0.01    +0.114 A  
DOCKED: ATOM     13  F   UNL     1     143.800  70.220 220.455 -0.04 +0.00    -0.184 F  
DOCKED: ENDBRANCH   6   7
DOCKED: ENDBRANCH   5   6
DOCKED: ENDBRANCH   4   5
DOCKED: ENDBRANCH   1   4
DOCKED: BRANCH   1  14
DOCKED: ATOM     14  C   UNL     1     144.505  73.895 220.462 -0.50 +0.00    -0.001 C  
DOCKED: BRANCH  14  15
DOCKED: ATOM     15  C   UNL     1     144.064  75.169 219.789 -0.31 -0.04    +0.071 C  
DOCKED: BRANCH  15  16
DOCKED: ATOM     16  C   UNL     1     142.951  74.913 218.766 -0.14 -0.09    +0.234 C  
DOCKED: BRANCH  16  17
DOCKED: ATOM     17  O   UNL     1     141.757  75.618 219.114 -0.01 +0.19    -0.492 OA 
DOCKED: BRANCH  17  18
DOCKED: ATOM     18  C   UNL     1     141.618  76.516 220.187 -0.22 -0.07    +0.137 A  
DOCKED: ATOM     19  C   UNL     1     141.999  77.870 220.096 -0.27 -0.03    +0.049 A  
DOCKED: ATOM     20  C   UNL     1     141.086  76.037 221.396 -0.31 -0.03    +0.084 A  
DOCKED: ATOM     21  C   UNL     1     141.841  78.723 221.192 -0.35 -0.01    +0.024 A  
DOCKED: ATOM     22  C   UNL     1     140.930  76.896 222.490 -0.37 -0.02    +0.045 A  
DOCKED: ATOM     23  C   UNL     1     141.306  78.238 222.388 -0.43 -0.02    +0.042 A  
DOCKED: ATOM     24  Cl  UNL     1     140.600  74.355 221.550 -0.38 +0.01    -0.080 Cl 
DOCKED: ATOM     25  Cl  UNL     1     141.108  79.312 223.761 -0.67 +0.02    -0.084 Cl 
DOCKED: ENDBRANCH  17  18
DOCKED: ENDBRANCH  16  17
DOCKED: ENDBRANCH  15  16
DOCKED: ENDBRANCH  14  15
DOCKED: ENDBRANCH   1  14
DOCKED: TORSDOF 10
DOCKED: TER
DOCKED: ENDMDL
________________________________________________________________________________


    FINAL DOCKED STATE:
    ________________________


Run:   19 / 20
Time taken for this run:   0.036s

DOCKED: MODEL        19
DOCKED: USER    Run = 19
DOCKED: USER
DOCKED: USER    Estimated Free Energy of Binding    =  -5.66 kcal/mol  [=(1)+(2)+(3)-(4)]
DOCKED: USER
DOCKED: USER    (1) Final Intermolecular Energy     =  -8.65 kcal/mol
DOCKED: USER        vdW + Hbond + desolv Energy     =  -8.77 kcal/mol
DOCKED: USER        Electrostatic Energy            =  +0.13 kcal/mol
DOCKED: USER        Moving Ligand-Fixed Receptor    =  -8.65 kcal/mol
DOCKED: USER        Moving Ligand-Moving Receptor   =  +0.00 kcal/mol
DOCKED: USER    (2) Final Total Internal Energy     =  -0.76 kcal/mol
DOCKED: USER    (3) Torsional Free Energy           =  +2.98 kcal/mol
DOCKED: USER    (4) Unbound System's Energy         =  -0.76 kcal/mol
DOCKED: USER
DOCKED: USER
DOCKED: REMARK SMILES O/C(=C/CCOc1ccc(Cl)cc1Cl)[N-]/N=C\c1cccnc1F
DOCKED: REMARK SMILES IDX 2 1 1 2 15 4 16 5 17 6 18 7 23 8 19 9 22 10 20 11 21 12
DOCKED: REMARK SMILES IDX 24 13 3 14 4 15 5 16 6 17 7 18 8 19 13 20 9 21 12 22 10 23
DOCKED: REMARK SMILES IDX 14 24 11 25
DOCKED: REMARK H PARENT 1 3
DOCKED: USER                              x       y       z     vdW  Elec       q    Type
DOCKED: USER                           _______ _______ _______ _____ _____    ______ ____
DOCKED: ROOT
DOCKED: ATOM      1  C   UNL     1     140.937  74.282 220.730 -0.24 -0.00    +0.023 C  
DOCKED: ENDROOT
DOCKED: BRANCH   1   2
DOCKED: ATOM      2  O   UNL     1     141.195  74.890 221.959 -0.41 +0.06    -0.530 OA 
DOCKED: ATOM      3  H   UNL     1     141.860  75.648 222.060 -0.36 -0.13    +0.290 HD 
DOCKED: ENDBRANCH   1   2
DOCKED: BRANCH   1   4
DOCKED: ATOM      4  N   UNL     1     141.051  75.105 219.558 +0.03 +0.16    -0.546 NA 
DOCKED: BRANCH   4   5
DOCKED: ATOM      5  N   UNL     1     142.170  75.882 219.228 -0.07 +0.17    -0.372 NA 
DOCKED: BRANCH   5   6
DOCKED: ATOM      6  C   UNL     1     143.179  75.423 218.549 -0.23 -0.05    +0.099 C  
DOCKED: BRANCH   6   7
DOCKED: ATOM      7  C   UNL     1     144.165  74.462 219.094 -0.22 -0.02    +0.046 A  
DOCKED: ATOM      8  C   UNL     1     144.767  73.522 218.241 -0.12 -0.02    +0.221 A  
DOCKED: ATOM      9  C   UNL     1     144.466  74.410 220.466 -0.48 -0.01    +0.016 A  
DOCKED: ATOM     10  N   UNL     1     145.651  72.615 218.737 -0.72 -0.15    -0.228 NA 
DOCKED: ATOM     11  C   UNL     1     145.378  73.468 220.947 -0.61 -0.00    +0.021 A  
DOCKED: ATOM     12  C   UNL     1     145.970  72.573 220.057 -0.41 +0.04    +0.114 A  
DOCKED: ATOM     13  F   UNL     1     144.487  73.517 216.913 -0.01 +0.02    -0.184 F  
DOCKED: ENDBRANCH   6   7
DOCKED: ENDBRANCH   5   6
DOCKED: ENDBRANCH   4   5
DOCKED: ENDBRANCH   1   4
DOCKED: BRANCH   1  14
DOCKED: ATOM     14  C   UNL     1     140.605  72.975 220.707 -0.19 +0.00    -0.001 C  
DOCKED: BRANCH  14  15
DOCKED: ATOM     15  C   UNL     1     139.740  72.278 221.726 -0.22 -0.01    +0.071 C  
DOCKED: BRANCH  15  16
DOCKED: ATOM     16  C   UNL     1     140.484  72.063 223.049 -0.20 -0.02    +0.234 C  
DOCKED: BRANCH  16  17
DOCKED: ATOM     17  O   UNL     1     139.601  71.587 224.067 -0.16 +0.12    -0.492 OA 
DOCKED: BRANCH  17  18
DOCKED: ATOM     18  C   UNL     1     139.975  70.816 225.182 -0.40 -0.02    +0.137 A  
DOCKED: ATOM     19  C   UNL     1     140.685  71.358 226.273 -0.61 -0.01    +0.049 A  
DOCKED: ATOM     20  C   UNL     1     139.632  69.454 225.201 -0.36 -0.01    +0.084 A  
DOCKED: ATOM     21  C   UNL     1     141.034  70.550 227.359 -0.61 -0.00    +0.024 A  
DOCKED: ATOM     22  C   UNL     1     139.984  68.650 226.291 -0.53 -0.01    +0.045 A  
DOCKED: ATOM     23  C   UNL     1     140.684  69.198 227.370 -0.58 -0.01    +0.042 A  
DOCKED: ATOM     24  Cl  UNL     1     138.748  68.741 223.860 -0.38 +0.01    -0.080 Cl 
DOCKED: ATOM     25  Cl  UNL     1     141.123  68.188 228.736 -0.68 +0.02    -0.084 Cl 
DOCKED: ENDBRANCH  17  18
DOCKED: ENDBRANCH  16  17
DOCKED: ENDBRANCH  15  16
DOCKED: ENDBRANCH  14  15
DOCKED: ENDBRANCH   1  14
DOCKED: TORSDOF 10
DOCKED: TER
DOCKED: ENDMDL
________________________________________________________________________________


    FINAL DOCKED STATE:
    ________________________


Run:   20 / 20
Time taken for this run:   0.036s

DOCKED: MODEL        20
DOCKED: USER    Run = 20
DOCKED: USER
DOCKED: USER    Estimated Free Energy of Binding    =  -5.54 kcal/mol  [=(1)+(2)+(3)-(4)]
DOCKED: USER
DOCKED: USER    (1) Final Intermolecular Energy     =  -8.53 kcal/mol
DOCKED: USER        vdW + Hbond + desolv Energy     =  -8.69 kcal/mol
DOCKED: USER        Electrostatic Energy            =  +0.16 kcal/mol
DOCKED: USER        Moving Ligand-Fixed Receptor    =  -8.53 kcal/mol
DOCKED: USER        Moving Ligand-Moving Receptor   =  +0.00 kcal/mol
DOCKED: USER    (2) Final Total Internal Energy     =  -1.09 kcal/mol
DOCKED: USER    (3) Torsional Free Energy           =  +2.98 kcal/mol
DOCKED: USER    (4) Unbound System's Energy         =  -1.09 kcal/mol
DOCKED: USER
DOCKED: USER
DOCKED: REMARK SMILES O/C(=C/CCOc1ccc(Cl)cc1Cl)[N-]/N=C\c1cccnc1F
DOCKED: REMARK SMILES IDX 2 1 1 2 15 4 16 5 17 6 18 7 23 8 19 9 22 10 20 11 21 12
DOCKED: REMARK SMILES IDX 24 13 3 14 4 15 5 16 6 17 7 18 8 19 13 20 9 21 12 22 10 23
DOCKED: REMARK SMILES IDX 14 24 11 25
DOCKED: REMARK H PARENT 1 3
DOCKED: USER                              x       y       z     vdW  Elec       q    Type
DOCKED: USER                           _______ _______ _______ _____ _____    ______ ____
DOCKED: ROOT
DOCKED: ATOM      1  C   UNL     1     139.834  73.872 222.014 -0.21 -0.00    +0.023 C  
DOCKED: ENDROOT
DOCKED: BRANCH   1   2
DOCKED: ATOM      2  O   UNL     1     140.816  72.947 222.368 -0.47 +0.00    -0.530 OA 
DOCKED: ATOM      3  H   UNL     1     140.607  72.112 222.903 +0.11 -0.02    +0.290 HD 
DOCKED: ENDBRANCH   1   2
DOCKED: BRANCH   1   4
DOCKED: ATOM      4  N   UNL     1     140.228  75.252 221.955 -0.45 +0.08    -0.546 NA 
DOCKED: BRANCH   4   5
DOCKED: ATOM      5  N   UNL     1     139.648  76.286 222.704 -0.19 +0.06    -0.372 NA 
DOCKED: BRANCH   5   6
DOCKED: ATOM      6  C   UNL     1     139.517  77.499 222.257 -0.29 -0.02    +0.099 C  
DOCKED: BRANCH   6   7
DOCKED: ATOM      7  C   UNL     1     140.480  78.587 222.544 -0.38 -0.01    +0.046 A  
DOCKED: ATOM      8  C   UNL     1     141.678  78.667 221.815 -0.29 -0.11    +0.221 A  
DOCKED: ATOM      9  C   UNL     1     140.266  79.508 223.585 -0.46 -0.00    +0.016 A  
DOCKED: ATOM     10  N   UNL     1     142.583  79.644 222.092 -0.30 +0.12    -0.228 NA 
DOCKED: ATOM     11  C   UNL     1     141.213  80.500 223.847 -0.49 -0.00    +0.021 A  
DOCKED: ATOM     12  C   UNL     1     142.376  80.555 223.078 -0.55 -0.03    +0.114 A  
DOCKED: ATOM     13  F   UNL     1     141.940  77.785 220.819 -0.10 +0.12    -0.184 F  
DOCKED: ENDBRANCH   6   7
DOCKED: ENDBRANCH   5   6
DOCKED: ENDBRANCH   4   5
DOCKED: ENDBRANCH   1   4
DOCKED: BRANCH   1  14
DOCKED: ATOM     14  C   UNL     1     138.589  73.429 221.745 -0.19 +0.00    -0.001 C  
DOCKED: BRANCH  14  15
DOCKED: ATOM     15  C   UNL     1     138.124  72.002 221.879 -0.13 -0.02    +0.071 C  
DOCKED: BRANCH  15  16
DOCKED: ATOM     16  C   UNL     1     138.187  71.519 223.333 -0.12 -0.07    +0.234 C  
DOCKED: BRANCH  16  17
DOCKED: ATOM     17  O   UNL     1     139.525  71.183 223.709 -0.13 +0.10    -0.492 OA 
DOCKED: BRANCH  17  18
DOCKED: ATOM     18  C   UNL     1     139.904  70.535 224.898 -0.36 -0.02    +0.137 A  
DOCKED: ATOM     19  C   UNL     1     140.549  71.209 225.955 -0.57 -0.01    +0.049 A  
DOCKED: ATOM     20  C   UNL     1     139.635  69.162 225.029 -0.35 -0.01    +0.084 A  
DOCKED: ATOM     21  C   UNL     1     140.906  70.520 227.118 -0.60 -0.00    +0.024 A  
DOCKED: ATOM     22  C   UNL     1     139.995  68.478 226.195 -0.54 -0.01    +0.045 A  
DOCKED: ATOM     23  C   UNL     1     140.629  69.156 227.240 -0.58 -0.01    +0.042 A  
DOCKED: ATOM     24  Cl  UNL     1     138.833  68.286 223.733 -0.34 +0.01    -0.080 Cl 
DOCKED: ATOM     25  Cl  UNL     1     141.078  68.296 228.701 -0.71 +0.02    -0.084 Cl 
DOCKED: ENDBRANCH  17  18
DOCKED: ENDBRANCH  16  17
DOCKED: ENDBRANCH  15  16
DOCKED: ENDBRANCH  14  15
DOCKED: ENDBRANCH   1  14
DOCKED: TORSDOF 10
DOCKED: TER
DOCKED: ENDMDL
________________________________________________________________________________


    CLUSTERING HISTOGRAM
    ____________________


________________________________________________________________________________
     |           |     |           |     |
Clus | Lowest    | Run | Mean      | Num | Histogram
-ter | Binding   |     | Binding   | in  |
Rank | Energy    |     | Energy    | Clus|    5    10   15   20   25   30   35
_____|___________|_____|___________|_____|____:____|____:____|____:____|____:___
   1 |     -6.78 |   2 |     -6.69 |   3 |###
   2 |     -6.66 |  12 |     -6.06 |   5 |#####
   3 |     -6.46 |  17 |     -5.82 |   5 |#####
   4 |     -6.32 |   9 |     -6.07 |   3 |###
   5 |     -6.30 |   5 |     -6.30 |   1 |#
   6 |     -5.78 |  16 |     -5.72 |   2 |##
   7 |     -5.52 |   6 |     -5.52 |   1 |#
_____|___________|_____|___________|_____|______________________________________


    RMSD TABLE
    __________


_______________________________________________________________________
     |      |      |           |         |                 |
Rank | Sub- | Run  | Binding   | Cluster | Reference       | Grep
     | Rank |      | Energy    | RMSD    | RMSD            | Pattern
_____|______|______|___________|_________|_________________|___________
   1      1      2       -6.78      0.00    271.10           RANKING
   1      2     11       -6.74      0.36    271.02           RANKING
   1      3     18       -6.54      1.50    270.89           RANKING
   2      1     12       -6.66      0.00    272.35           RANKING
   2      2      4       -6.38      1.37    272.00           RANKING
   2      3     13       -5.88      1.36    271.84           RANKING
   2      4     14       -5.84      1.69    272.08           RANKING
   2      5      7       -5.55      1.57    271.65           RANKING
   3      1     17       -6.46      0.00    272.34           RANKING
   3      2     15       -5.94      1.35    272.52           RANKING
   3      3      3       -5.84      1.13    272.28           RANKING
   3      4     20       -5.54      1.59    272.00           RANKING
   3      5      8       -5.31      1.71    272.15           RANKING
   4      1      9       -6.32      0.00    272.28           RANKING
   4      2     10       -6.26      0.50    272.41           RANKING
   4      3      1       -5.61      1.75    271.94           RANKING
   5      1      5       -6.30      0.00    271.69           RANKING
   6      1     16       -5.78      0.00    271.35           RANKING
   6      2     19       -5.66      0.59    271.30           RANKING
   7      1      6       -5.52      0.00    271.37           RANKING

Run time 0.688 sec
Idle time 0.000 sec
