AutoDock-GPU version: v1.6

**********************************************************
**    AutoDock-GPU AUTODOCKTOOLS-COMPATIBLE DLG FILE    **
**********************************************************


    DOCKING PARAMETERS
    ________________________


Ligand file:                               /home/a/REINVENT4/ReinventStudies/scoringData/graph-dock-h4r84i/graph-DockGPU/node-autodockgpu/inputs/RUYQROVMPDWUPI-QEPTYLHPNA-O.pdbqt
Grid fld file:                             /home/a/REINVENT4/ReinventStudies/mols/Rad51/maps/rad51_receptor.maps.fld

Random seed:                               42
Number of runs:                            20
Number of energy evaluations:              3119281
Number of generations:                     42000
Size of population:                        150
Rate of crossover:                         80.000000%
Tournament selection probability limit:    60.000000%
Rate of mutation:                          2.000000%
Maximal allowed delta movement:            +/- 6.000000A
Maximal allowed delta angle:               +/- 90.000000

Rate of local search:                      100.000000%
Maximal number of local search iterations: 300
Rho lower bound:                           0.010000
Spread of local search delta movement:     2.000000A
Spread of local search delta angle:        74.999999
Limit of consecutive successes/failures:   4

Handle symmetry during clustering:         YES
RMSD tolerance:                            2.000000A

Program call in command line was:          /home/a/REINVENT4/ReinventStudies/adgpu-v1.6_linux_x64_cuda12_128wi --filelist batch.txt --heuristics 1 --nrun 20 --psize 150 --lsit 300 --seed 42 --heurmax 12000000 


    GRID PARAMETERS
    ________________________


Receptor name:                             rad51_receptor
Number of grid points (x, y, z):           53, 53, 53
Grid center (x, y, z):                     139.950000, 75.640000, 221.970000A
Grid size (x, y, z):                       19.500000, 19.500000, 19.500000A
Grid spacing:                              0.375000A


    LIGAND PARAMETERS
    ________________________


Ligand name:                               /home/a/REINVENT4/ReinventStudies/scoringData/graph-dock-h4r84i/graph-DockGPU/node-autodockgpu/inputs/RUYQROVMPDWUPI-QEPTYLHPNA-O
Number of atoms:                           39
Number of rotatable bonds:                 11
Number of atom types:                      8


    DUMMY DATA (only for ADT-compatibility)
    ________________________


DPF> outlev 1
DPF> ga_run 20
DPF> fld /home/a/REINVENT4/ReinventStudies/mols/Rad51/maps/rad51_receptor.maps.fld
DPF> move /home/a/REINVENT4/ReinventStudies/scoringData/graph-dock-h4r84i/graph-DockGPU/node-autodockgpu/inputs/RUYQROVMPDWUPI-QEPTYLHPNA-O.pdbqt


    COUNTER STATES
    ________________________


Number of energy evaluations performed:    768629
Number of generations used:                80


    INPUT LIGAND PDBQT FILE:
    ________________________


INPUT-LIGAND-PDBQT: REMARK SMILES C[NH+]1CCN(C(=O)c2cccc(C3=Nc4ccc(C#Cc5ccccc5)cc4N=C(O)C3)c2)CC1
INPUT-LIGAND-PDBQT: REMARK SMILES IDX 15 1 16 2 17 3 18 4 27 5 28 6 14 7 13 8 12 9 8 10 9 11 33 12
INPUT-LIGAND-PDBQT: REMARK SMILES IDX 10 13 11 14 6 15 2 16 3 17 35 18 4 19 34 20 5 21 1 22 7 24
INPUT-LIGAND-PDBQT: REMARK SMILES IDX 32 25 29 27 30 28 31 30 19 32 20 33 21 34 22 35 26 36 23 37
INPUT-LIGAND-PDBQT: REMARK SMILES IDX 25 38 24 39
INPUT-LIGAND-PDBQT: REMARK H PARENT 2 23 31 31
INPUT-LIGAND-PDBQT: REMARK Flexibility Score:  140.900
INPUT-LIGAND-PDBQT: ROOT
INPUT-LIGAND-PDBQT: ATOM      1  C   UNL     1       0.140  -1.741   1.395  1.00  0.00     0.089 A 
INPUT-LIGAND-PDBQT: ATOM      2  C   UNL     1      -1.126  -1.994   1.941  1.00  0.00     0.032 A 
INPUT-LIGAND-PDBQT: ATOM      3  C   UNL     1      -1.269  -2.785   3.081  1.00  0.00     0.019 A 
INPUT-LIGAND-PDBQT: ATOM      4  C   UNL     1      -0.146  -3.366   3.675  1.00  0.00     0.027 A 
INPUT-LIGAND-PDBQT: ATOM      5  C   UNL     1       1.124  -3.148   3.128  1.00  0.00     0.048 A 
INPUT-LIGAND-PDBQT: ATOM      6  C   UNL     1       1.288  -2.329   2.001  1.00  0.00     0.094 A 
INPUT-LIGAND-PDBQT: ENDROOT
INPUT-LIGAND-PDBQT: BRANCH   1   7
INPUT-LIGAND-PDBQT: ATOM      7  N   UNL     1       0.194  -0.971   0.182  1.00  0.00    -0.250 NA
INPUT-LIGAND-PDBQT: BRANCH   7   8
INPUT-LIGAND-PDBQT: ATOM      8  C   UNL     1       1.152  -0.181  -0.208  1.00  0.00     0.058 C 
INPUT-LIGAND-PDBQT: BRANCH   8   9
INPUT-LIGAND-PDBQT: ATOM      9  C   UNL     1       1.023   0.508  -1.517  1.00  0.00    -0.003 A 
INPUT-LIGAND-PDBQT: ATOM     10  C   UNL     1      -0.378   1.584  -3.210  1.00  0.00     0.040 A 
INPUT-LIGAND-PDBQT: ATOM     11  C   UNL     1       0.764   1.844  -3.979  1.00  0.00     0.014 A 
INPUT-LIGAND-PDBQT: ATOM     12  C   UNL     1      -0.245   0.898  -1.989  1.00  0.00     0.023 A 
INPUT-LIGAND-PDBQT: ATOM     13  C   UNL     1       2.024   1.437  -3.530  1.00  0.00     0.002 A 
INPUT-LIGAND-PDBQT: ATOM     14  C   UNL     1       2.155   0.777  -2.306  1.00  0.00     0.010 A 
INPUT-LIGAND-PDBQT: BRANCH  10  15
INPUT-LIGAND-PDBQT: ATOM     15  C   UNL     1      -1.713   2.005  -3.685  1.00  0.00     0.254 C 
INPUT-LIGAND-PDBQT: ATOM     16  N   UNL     1      -3.358   5.556  -3.801  1.00  0.00    -0.334 N 
INPUT-LIGAND-PDBQT: ATOM     17  C   UNL     1      -4.026   4.510  -4.630  1.00  0.00     0.283 C 
INPUT-LIGAND-PDBQT: ATOM     18  C   UNL     1      -1.929   5.740  -4.152  1.00  0.00     0.283 C 
INPUT-LIGAND-PDBQT: ATOM     19  C   UNL     1      -3.053   3.476  -5.239  1.00  0.00     0.181 C 
INPUT-LIGAND-PDBQT: ATOM     20  C   UNL     1      -1.115   4.444  -3.965  1.00  0.00     0.181 C 
INPUT-LIGAND-PDBQT: ATOM     21  N   UNL     1      -1.910   3.268  -4.345  1.00  0.00    -0.327 N 
INPUT-LIGAND-PDBQT: ATOM     22  C   UNL     1      -3.527   5.293  -2.353  1.00  0.00     0.332 C 
INPUT-LIGAND-PDBQT: ATOM     23  H   UNL     1      -3.841   6.470  -3.991  1.00  0.00     0.347 HD
INPUT-LIGAND-PDBQT: ATOM     24  O   UNL     1      -2.701   1.245  -3.487  1.00  0.00    -0.269 OA
INPUT-LIGAND-PDBQT: ENDBRANCH  10  15
INPUT-LIGAND-PDBQT: ENDBRANCH   8   9
INPUT-LIGAND-PDBQT: BRANCH   8  25
INPUT-LIGAND-PDBQT: ATOM     25  C   UNL     1       2.327   0.089   0.690  1.00  0.00     0.153 CG0
INPUT-LIGAND-PDBQT: ATOM     26  G   UNL     1       3.115  -1.167   0.858  1.00  0.00     0.000 G0
INPUT-LIGAND-PDBQT: ENDBRANCH   8  25
INPUT-LIGAND-PDBQT: ENDBRANCH   7   8
INPUT-LIGAND-PDBQT: ENDBRANCH   1   7
INPUT-LIGAND-PDBQT: BRANCH   6  27
INPUT-LIGAND-PDBQT: ATOM     27  N   UNL     1       2.618  -2.200   1.469  1.00  0.00    -0.216 NA
INPUT-LIGAND-PDBQT: BRANCH  27  28
INPUT-LIGAND-PDBQT: ATOM     28  C   UNL     1       3.115  -1.167   0.858  1.00  0.00     0.192 CG0
INPUT-LIGAND-PDBQT: ATOM     29  G   UNL     1       2.327   0.089   0.690  1.00  0.00     0.000 G0
INPUT-LIGAND-PDBQT: BRANCH  28  30
INPUT-LIGAND-PDBQT: ATOM     30  O   UNL     1       4.416  -1.222   0.366  1.00  0.00    -0.496 OA
INPUT-LIGAND-PDBQT: ATOM     31  H   UNL     1       4.979  -2.057   0.471  1.00  0.00     0.294 HD
INPUT-LIGAND-PDBQT: ENDBRANCH  28  30
INPUT-LIGAND-PDBQT: ENDBRANCH  27  28
INPUT-LIGAND-PDBQT: ENDBRANCH   6  27
INPUT-LIGAND-PDBQT: BRANCH   4  32
INPUT-LIGAND-PDBQT: ATOM     32  C   UNL     1      -0.294  -4.186   4.849  1.00  0.00    -0.062 C 
INPUT-LIGAND-PDBQT: BRANCH  32  33
INPUT-LIGAND-PDBQT: ATOM     33  C   UNL     1      -0.423  -4.865   5.837  1.00  0.00    -0.062 C 
INPUT-LIGAND-PDBQT: BRANCH  33  34
INPUT-LIGAND-PDBQT: ATOM     34  C   UNL     1      -0.578  -5.666   7.023  1.00  0.00     0.025 A 
INPUT-LIGAND-PDBQT: ATOM     35  C   UNL     1      -1.503  -5.290   8.007  1.00  0.00     0.017 A 
INPUT-LIGAND-PDBQT: ATOM     36  C   UNL     1       0.205  -6.814   7.203  1.00  0.00     0.017 A 
INPUT-LIGAND-PDBQT: ATOM     37  C   UNL     1      -1.642  -6.059   9.167  1.00  0.00     0.001 A 
INPUT-LIGAND-PDBQT: ATOM     38  C   UNL     1       0.066  -7.580   8.364  1.00  0.00     0.001 A 
INPUT-LIGAND-PDBQT: ATOM     39  C   UNL     1      -0.857  -7.204   9.346  1.00  0.00     0.000 A 
INPUT-LIGAND-PDBQT: ENDBRANCH  33  34
INPUT-LIGAND-PDBQT: ENDBRANCH  32  33
INPUT-LIGAND-PDBQT: ENDBRANCH   4  32
INPUT-LIGAND-PDBQT: TORSDOF 6


    FINAL DOCKED STATE:
    ________________________


Run:   1 / 20
Time taken for this run:   0.049s

DOCKED: MODEL        1
DOCKED: USER    Run = 1
DOCKED: USER
DOCKED: USER    Estimated Free Energy of Binding    =  -4.97 kcal/mol  [=(1)+(2)+(3)-(4)]
DOCKED: USER
DOCKED: USER    (1) Final Intermolecular Energy     =  -8.25 kcal/mol
DOCKED: USER        vdW + Hbond + desolv Energy     =  -8.64 kcal/mol
DOCKED: USER        Electrostatic Energy            =  -0.38 kcal/mol
DOCKED: USER        Moving Ligand-Fixed Receptor    =  -9.01 kcal/mol
DOCKED: USER        Moving Ligand-Moving Receptor   =  +0.76 kcal/mol
DOCKED: USER    (2) Final Total Internal Energy     =  -0.96 kcal/mol
DOCKED: USER    (3) Torsional Free Energy           =  +3.28 kcal/mol
DOCKED: USER    (4) Unbound System's Energy         =  -0.96 kcal/mol
DOCKED: USER
DOCKED: USER
DOCKED: REMARK SMILES C[NH+]1CCN(C(=O)c2cccc(C3=Nc4ccc(C#Cc5ccccc5)cc4N=C(O)C3)c2)CC1
DOCKED: REMARK SMILES IDX 15 1 16 2 17 3 18 4 27 5 28 6 14 7 13 8 12 9 8 10 9 11 33 12
DOCKED: REMARK SMILES IDX 10 13 11 14 6 15 2 16 3 17 35 18 4 19 34 20 5 21 1 22 7 24
DOCKED: REMARK SMILES IDX 32 25 29 27 30 28 31 30 19 32 20 33 21 34 22 35 26 36 23 37
DOCKED: REMARK SMILES IDX 25 38 24 39
DOCKED: REMARK H PARENT 2 23 31 31
DOCKED: REMARK Flexibility Score:  140.900
DOCKED: USER                              x       y       z     vdW  Elec       q    Type
DOCKED: USER                           _______ _______ _______ _____ _____    ______ ____
DOCKED: ROOT
DOCKED: ATOM      1  C   UNL     1     140.601  73.859 221.337 -0.25 -0.01    +0.089 A  
DOCKED: ATOM      2  C   UNL     1     141.789  74.187 220.670 -0.26 -0.01    +0.032 A  
DOCKED: ATOM      3  C   UNL     1     142.647  73.190 220.204 -0.24 -0.00    +0.019 A  
DOCKED: ATOM      4  C   UNL     1     142.344  71.845 220.429 -0.20 -0.00    +0.027 A  
DOCKED: ATOM      5  C   UNL     1     141.176  71.499 221.117 -0.17 -0.01    +0.048 A  
DOCKED: ATOM      6  C   UNL     1     140.288  72.488 221.565 -0.22 -0.01    +0.094 A  
DOCKED: ENDROOT
DOCKED: BRANCH   1   7
DOCKED: ATOM      7  N   UNL     1     139.807  74.945 221.843 -0.53 +0.04    -0.250 NA 
DOCKED: BRANCH   7   8
DOCKED: ATOM      8  C   UNL     1     138.510  74.994 221.945 -0.22 -0.02    +0.058 C  
DOCKED: BRANCH   8   9
DOCKED: ATOM      9  C   UNL     1     137.875  76.254 222.406 -0.28 +0.00    -0.003 A  
DOCKED: ATOM     10  C   UNL     1     138.062  78.617 223.011 -0.22 -0.01    +0.040 A  
DOCKED: ATOM     11  C   UNL     1     136.682  78.658 223.249 -0.10 -0.00    +0.014 A  
DOCKED: ATOM     12  C   UNL     1     138.657  77.407 222.609 -0.29 -0.00    +0.023 A  
DOCKED: ATOM     13  C   UNL     1     135.902  77.510 223.075 -0.18 -0.00    +0.002 A  
DOCKED: ATOM     14  C   UNL     1     136.492  76.317 222.653 -0.22 -0.00    +0.010 A  
DOCKED: BRANCH  10  15
DOCKED: ATOM     15  C   UNL     1     138.892  79.826 223.202 -0.23 -0.04    +0.254 C  
DOCKED: ATOM     16  N   UNL     1     142.527  80.622 221.987 -0.23 +0.12    -0.334 N  
DOCKED: ATOM     17  C   UNL     1     141.728  81.799 222.440 -0.22 -0.05    +0.283 C  
DOCKED: ATOM     18  C   UNL     1     141.870  79.870 220.891 -0.18 -0.14    +0.283 C  
DOCKED: ATOM     19  C   UNL     1     140.218  81.688 222.131 -0.23 -0.03    +0.181 C  
DOCKED: ATOM     20  C   UNL     1     140.488  79.329 221.307 -0.18 -0.06    +0.181 C  
DOCKED: ATOM     21  N   UNL     1     139.793  80.286 222.179 -0.09 +0.07    -0.327 N  
DOCKED: ATOM     22  C   UNL     1     142.874  79.732 223.118 -0.32 -0.13    +0.332 C  
DOCKED: ATOM     23  H   UNL     1     143.439  80.983 221.608 +0.15 -0.10    +0.347 HD 
DOCKED: ATOM     24  O   UNL     1     138.818  80.452 224.295 -0.31 +0.03    -0.269 OA 
DOCKED: ENDBRANCH  10  15
DOCKED: ENDBRANCH   8   9
DOCKED: BRANCH   8  25
DOCKED: ATOM     25  C   UNL     1     137.671  73.820 221.522 -0.12 -0.04    +0.153 CG0
DOCKED: ATOM     26  G   UNL     1     137.991  72.650 222.392 +0.00 +0.00    +0.000 G0 
DOCKED: ENDBRANCH   8  25
DOCKED: ENDBRANCH   7   8
DOCKED: ENDBRANCH   1   7
DOCKED: BRANCH   6  27
DOCKED: ATOM     27  N   UNL     1     139.138  72.051 222.311 -0.16 +0.05    -0.216 NA 
DOCKED: BRANCH  27  28
DOCKED: ATOM     28  C   UNL     1     137.988  72.649 222.389 -0.04 -0.06    +0.192 CG0
DOCKED: ATOM     29  G   UNL     1     137.661  73.819 221.522 +0.00 +0.00    +0.000 G0 
DOCKED: BRANCH  28  30
DOCKED: ATOM     30  O   UNL     1     137.030  72.180 223.284 -0.06 +0.16    -0.496 OA 
DOCKED: ATOM     31  H   UNL     1     136.932  72.589 224.205 -0.45 -0.14    +0.294 HD 
DOCKED: ENDBRANCH  28  30
DOCKED: ENDBRANCH  27  28
DOCKED: ENDBRANCH   6  27
DOCKED: BRANCH   4  32
DOCKED: ATOM     32  C   UNL     1     143.232  70.817 219.951 -0.18 +0.00    -0.062 C  
DOCKED: BRANCH  32  33
DOCKED: ATOM     33  C   UNL     1     143.973  69.959 219.541 -0.22 -0.00    -0.062 C  
DOCKED: BRANCH  33  34
DOCKED: ATOM     34  C   UNL     1     144.855  68.937 219.041 -0.30 +0.00    +0.025 A  
DOCKED: ATOM     35  C   UNL     1     145.125  67.802 219.818 -0.46 +0.00    +0.017 A  
DOCKED: ATOM     36  C   UNL     1     145.457  69.082 217.784 -0.22 +0.00    +0.017 A  
DOCKED: ATOM     37  C   UNL     1     145.995  66.817 219.340 -0.56 -0.00    +0.001 A  
DOCKED: ATOM     38  C   UNL     1     146.328  68.097 217.309 -0.26 -0.00    +0.001 A  
DOCKED: ATOM     39  C   UNL     1     146.597  66.964 218.085 -0.36 -0.00    +0.000 A  
DOCKED: ENDBRANCH  33  34
DOCKED: ENDBRANCH  32  33
DOCKED: ENDBRANCH   4  32
DOCKED: TORSDOF 6
DOCKED: TER
DOCKED: ENDMDL
________________________________________________________________________________


    FINAL DOCKED STATE:
    ________________________


Run:   2 / 20
Time taken for this run:   0.049s

DOCKED: MODEL        2
DOCKED: USER    Run = 2
DOCKED: USER
DOCKED: USER    Estimated Free Energy of Binding    =  -4.38 kcal/mol  [=(1)+(2)+(3)-(4)]
DOCKED: USER
DOCKED: USER    (1) Final Intermolecular Energy     =  -7.66 kcal/mol
DOCKED: USER        vdW + Hbond + desolv Energy     =  -7.80 kcal/mol
DOCKED: USER        Electrostatic Energy            =  -0.34 kcal/mol
DOCKED: USER        Moving Ligand-Fixed Receptor    =  -8.13 kcal/mol
DOCKED: USER        Moving Ligand-Moving Receptor   =  +0.47 kcal/mol
DOCKED: USER    (2) Final Total Internal Energy     =  -1.14 kcal/mol
DOCKED: USER    (3) Torsional Free Energy           =  +3.28 kcal/mol
DOCKED: USER    (4) Unbound System's Energy         =  -1.14 kcal/mol
DOCKED: USER
DOCKED: USER
DOCKED: REMARK SMILES C[NH+]1CCN(C(=O)c2cccc(C3=Nc4ccc(C#Cc5ccccc5)cc4N=C(O)C3)c2)CC1
DOCKED: REMARK SMILES IDX 15 1 16 2 17 3 18 4 27 5 28 6 14 7 13 8 12 9 8 10 9 11 33 12
DOCKED: REMARK SMILES IDX 10 13 11 14 6 15 2 16 3 17 35 18 4 19 34 20 5 21 1 22 7 24
DOCKED: REMARK SMILES IDX 32 25 29 27 30 28 31 30 19 32 20 33 21 34 22 35 26 36 23 37
DOCKED: REMARK SMILES IDX 25 38 24 39
DOCKED: REMARK H PARENT 2 23 31 31
DOCKED: REMARK Flexibility Score:  140.900
DOCKED: USER                              x       y       z     vdW  Elec       q    Type
DOCKED: USER                           _______ _______ _______ _____ _____    ______ ____
DOCKED: ROOT
DOCKED: ATOM      1  C   UNL     1     140.941  73.974 219.560 -0.08 -0.02    +0.089 A  
DOCKED: ATOM      2  C   UNL     1     141.076  72.580 219.631 -0.09 -0.01    +0.032 A  
DOCKED: ATOM      3  C   UNL     1     140.964  71.912 220.850 -0.18 -0.00    +0.019 A  
DOCKED: ATOM      4  C   UNL     1     140.749  72.634 222.027 -0.30 -0.00    +0.027 A  
DOCKED: ATOM      5  C   UNL     1     140.639  74.028 221.980 -0.16 -0.00    +0.048 A  
DOCKED: ATOM      6  C   UNL     1     140.717  74.712 220.758 -0.21 -0.02    +0.094 A  
DOCKED: ENDROOT
DOCKED: BRANCH   1   7
DOCKED: ATOM      7  N   UNL     1     141.135  74.591 218.276 -0.01 +0.07    -0.250 NA 
DOCKED: BRANCH   7   8
DOCKED: ATOM      8  C   UNL     1     141.739  75.716 218.025 -0.10 -0.02    +0.058 C  
DOCKED: BRANCH   8   9
DOCKED: ATOM      9  C   UNL     1     142.911  75.712 217.114 -0.17 +0.00    -0.003 A  
DOCKED: ATOM     10  C   UNL     1     144.928  74.614 216.270 -0.15 -0.01    +0.040 A  
DOCKED: ATOM     11  C   UNL     1     145.119  75.672 215.372 -0.19 -0.01    +0.014 A  
DOCKED: ATOM     12  C   UNL     1     143.833  74.649 217.153 -0.15 -0.01    +0.023 A  
DOCKED: ATOM     13  C   UNL     1     144.223  76.745 215.345 -0.18 -0.00    +0.002 A  
DOCKED: ATOM     14  C   UNL     1     143.124  76.765 216.207 -0.21 -0.01    +0.010 A  
DOCKED: BRANCH  10  15
DOCKED: ATOM     15  C   UNL     1     145.878  73.482 216.308 -0.10 +0.04    +0.254 C  
DOCKED: ATOM     16  N   UNL     1     145.485  69.801 215.034 +0.01 +0.01    -0.334 N  
DOCKED: ATOM     17  C   UNL     1     146.884  70.237 215.319 -0.05 +0.09    +0.283 C  
DOCKED: ATOM     18  C   UNL     1     144.805  70.667 214.041 +0.02 -0.03    +0.283 C  
DOCKED: ATOM     19  C   UNL     1     147.151  71.728 215.013 -0.04 +0.08    +0.181 C  
DOCKED: ATOM     20  C   UNL     1     144.722  72.133 214.511 +0.01 -0.02    +0.181 C  
DOCKED: ATOM     21  N   UNL     1     145.937  72.517 215.242 -0.02 -0.05    -0.327 N  
DOCKED: ATOM     22  C   UNL     1     144.689  69.679 216.277 +0.00 -0.01    +0.332 C  
DOCKED: ATOM     23  H   UNL     1     145.531  68.836 214.620 +0.05 -0.06    +0.347 HD 
DOCKED: ATOM     24  O   UNL     1     146.638  73.353 217.307 -0.33 -0.26    -0.269 OA 
DOCKED: ENDBRANCH  10  15
DOCKED: ENDBRANCH   8   9
DOCKED: BRANCH   8  25
DOCKED: ATOM     25  C   UNL     1     141.206  77.005 218.586 -0.10 -0.07    +0.153 CG0
DOCKED: ATOM     26  G   UNL     1     141.332  76.983 220.073 +0.00 +0.00    +0.000 G0 
DOCKED: ENDBRANCH   8  25
DOCKED: ENDBRANCH   7   8
DOCKED: ENDBRANCH   1   7
DOCKED: BRANCH   6  27
DOCKED: ATOM     27  N   UNL     1     140.649  76.148 220.801 -0.14 +0.07    -0.216 NA 
DOCKED: BRANCH  27  28
DOCKED: ATOM     28  C   UNL     1     141.333  76.982 220.077 -0.18 -0.09    +0.192 CG0
DOCKED: ATOM     29  G   UNL     1     141.206  77.005 218.591 +0.00 +0.00    +0.000 G0 
DOCKED: BRANCH  28  30
DOCKED: ATOM     30  O   UNL     1     142.187  77.889 220.699 -0.11 +0.37    -0.496 OA 
DOCKED: ATOM     31  H   UNL     1     143.102  77.604 221.027 -0.38 -0.37    +0.294 HD 
DOCKED: ENDBRANCH  28  30
DOCKED: ENDBRANCH  27  28
DOCKED: ENDBRANCH   6  27
DOCKED: BRANCH   4  32
DOCKED: ATOM     32  C   UNL     1     140.638  71.944 223.286 -0.26 +0.01    -0.062 C  
DOCKED: BRANCH  32  33
DOCKED: ATOM     33  C   UNL     1     140.552  71.373 224.345 -0.40 +0.01    -0.062 C  
DOCKED: BRANCH  33  34
DOCKED: ATOM     34  C   UNL     1     140.438  70.691 225.607 -0.54 -0.00    +0.025 A  
DOCKED: ATOM     35  C   UNL     1     140.713  71.374 226.800 -0.69 -0.00    +0.017 A  
DOCKED: ATOM     36  C   UNL     1     140.067  69.341 225.645 -0.45 -0.00    +0.017 A  
DOCKED: ATOM     37  C   UNL     1     140.618  70.706 228.026 -0.68 -0.00    +0.001 A  
DOCKED: ATOM     38  C   UNL     1     139.975  68.675 226.871 -0.61 -0.00    +0.001 A  
DOCKED: ATOM     39  C   UNL     1     140.249  69.357 228.061 -0.64 -0.00    +0.000 A  
DOCKED: ENDBRANCH  33  34
DOCKED: ENDBRANCH  32  33
DOCKED: ENDBRANCH   4  32
DOCKED: TORSDOF 6
DOCKED: TER
DOCKED: ENDMDL
________________________________________________________________________________


    FINAL DOCKED STATE:
    ________________________


Run:   3 / 20
Time taken for this run:   0.049s

DOCKED: MODEL        3
DOCKED: USER    Run = 3
DOCKED: USER
DOCKED: USER    Estimated Free Energy of Binding    =  -4.52 kcal/mol  [=(1)+(2)+(3)-(4)]
DOCKED: USER
DOCKED: USER    (1) Final Intermolecular Energy     =  -7.80 kcal/mol
DOCKED: USER        vdW + Hbond + desolv Energy     =  -8.18 kcal/mol
DOCKED: USER        Electrostatic Energy            =  -0.06 kcal/mol
DOCKED: USER        Moving Ligand-Fixed Receptor    =  -8.24 kcal/mol
DOCKED: USER        Moving Ligand-Moving Receptor   =  +0.44 kcal/mol
DOCKED: USER    (2) Final Total Internal Energy     =  -1.05 kcal/mol
DOCKED: USER    (3) Torsional Free Energy           =  +3.28 kcal/mol
DOCKED: USER    (4) Unbound System's Energy         =  -1.05 kcal/mol
DOCKED: USER
DOCKED: USER
DOCKED: REMARK SMILES C[NH+]1CCN(C(=O)c2cccc(C3=Nc4ccc(C#Cc5ccccc5)cc4N=C(O)C3)c2)CC1
DOCKED: REMARK SMILES IDX 15 1 16 2 17 3 18 4 27 5 28 6 14 7 13 8 12 9 8 10 9 11 33 12
DOCKED: REMARK SMILES IDX 10 13 11 14 6 15 2 16 3 17 35 18 4 19 34 20 5 21 1 22 7 24
DOCKED: REMARK SMILES IDX 32 25 29 27 30 28 31 30 19 32 20 33 21 34 22 35 26 36 23 37
DOCKED: REMARK SMILES IDX 25 38 24 39
DOCKED: REMARK H PARENT 2 23 31 31
DOCKED: REMARK Flexibility Score:  140.900
DOCKED: USER                              x       y       z     vdW  Elec       q    Type
DOCKED: USER                           _______ _______ _______ _____ _____    ______ ____
DOCKED: ROOT
DOCKED: ATOM      1  C   UNL     1     139.405  77.219 222.321 -0.30 -0.02    +0.089 A  
DOCKED: ATOM      2  C   UNL     1     138.637  76.047 222.285 -0.30 -0.01    +0.032 A  
DOCKED: ATOM      3  C   UNL     1     139.195  74.838 221.870 -0.27 -0.00    +0.019 A  
DOCKED: ATOM      4  C   UNL     1     140.526  74.789 221.450 -0.31 -0.00    +0.027 A  
DOCKED: ATOM      5  C   UNL     1     141.302  75.955 221.452 -0.28 -0.02    +0.048 A  
DOCKED: ATOM      6  C   UNL     1     140.764  77.172 221.897 -0.34 -0.03    +0.094 A  
DOCKED: ENDROOT
DOCKED: BRANCH   1   7
DOCKED: ATOM      7  N   UNL     1     138.736  78.435 222.697 -0.16 +0.04    -0.250 NA 
DOCKED: BRANCH   7   8
DOCKED: ATOM      8  C   UNL     1     139.259  79.474 223.282 -0.36 -0.01    +0.058 C  
DOCKED: BRANCH   8   9
DOCKED: ATOM      9  C   UNL     1     138.408  80.667 223.516 -0.35 +0.00    -0.003 A  
DOCKED: ATOM     10  C   UNL     1     137.202  82.133 225.060 -0.28 -0.00    +0.040 A  
DOCKED: ATOM     11  C   UNL     1     136.822  82.944 223.982 -0.17 -0.00    +0.014 A  
DOCKED: ATOM     12  C   UNL     1     137.979  80.985 224.819 -0.38 -0.00    +0.023 A  
DOCKED: ATOM     13  C   UNL     1     137.223  82.621 222.682 -0.15 -0.00    +0.002 A  
DOCKED: ATOM     14  C   UNL     1     138.013  81.493 222.449 -0.19 -0.00    +0.010 A  
DOCKED: BRANCH  10  15
DOCKED: ATOM     15  C   UNL     1     136.774  82.467 226.435 -0.30 -0.03    +0.254 C  
DOCKED: ATOM     16  N   UNL     1     133.304  82.010 228.190 -0.02 +0.01    -0.334 N  
DOCKED: ATOM     17  C   UNL     1     134.458  82.265 229.102 -0.23 -0.02    +0.283 C  
DOCKED: ATOM     18  C   UNL     1     133.504  80.818 227.331 -0.08 -0.04    +0.283 C  
DOCKED: ATOM     19  C   UNL     1     135.790  81.654 228.614 -0.33 -0.07    +0.181 C  
DOCKED: ATOM     20  C   UNL     1     134.752  80.951 226.436 -0.15 -0.04    +0.181 C  
DOCKED: ATOM     21  N   UNL     1     135.835  81.642 227.149 -0.20 +0.07    -0.327 N  
DOCKED: ATOM     22  C   UNL     1     132.975  83.207 227.381 +0.01 +0.00    +0.332 C  
DOCKED: ATOM     23  H   UNL     1     132.461  81.820 228.788 +0.12 +0.04    +0.347 HD 
DOCKED: ATOM     24  O   UNL     1     137.230  83.508 226.983 -0.12 +0.02    -0.269 OA 
DOCKED: ENDBRANCH  10  15
DOCKED: ENDBRANCH   8   9
DOCKED: BRANCH   8  25
DOCKED: ATOM     25  C   UNL     1     140.676  79.430 223.783 -0.40 -0.03    +0.153 CG0
DOCKED: ATOM     26  G   UNL     1     141.606  79.355 222.618 +0.00 +0.00    +0.000 G0 
DOCKED: ENDBRANCH   8  25
DOCKED: ENDBRANCH   7   8
DOCKED: ENDBRANCH   1   7
DOCKED: BRANCH   6  27
DOCKED: ATOM     27  N   UNL     1     141.610  78.333 221.816 -0.24 +0.12    -0.216 NA 
DOCKED: BRANCH  27  28
DOCKED: ATOM     28  C   UNL     1     141.607  79.355 222.618 -0.40 -0.07    +0.192 CG0
DOCKED: ATOM     29  G   UNL     1     140.680  79.423 223.785 +0.00 +0.00    +0.000 G0 
DOCKED: BRANCH  28  30
DOCKED: ATOM     30  O   UNL     1     142.499  80.401 222.398 -0.21 +0.17    -0.496 OA 
DOCKED: ATOM     31  H   UNL     1     143.343  80.262 221.858 -0.22 -0.15    +0.294 HD 
DOCKED: ENDBRANCH  28  30
DOCKED: ENDBRANCH  27  28
DOCKED: ENDBRANCH   6  27
DOCKED: BRANCH   4  32
DOCKED: ATOM     32  C   UNL     1     141.101  73.542 221.018 -0.24 +0.01    -0.062 C  
DOCKED: BRANCH  32  33
DOCKED: ATOM     33  C   UNL     1     141.592  72.502 220.654 -0.19 +0.01    -0.062 C  
DOCKED: BRANCH  33  34
DOCKED: ATOM     34  C   UNL     1     142.187  71.265 220.222 -0.16 -0.00    +0.025 A  
DOCKED: ATOM     35  C   UNL     1     141.376  70.157 219.941 -0.10 -0.00    +0.017 A  
DOCKED: ATOM     36  C   UNL     1     143.579  71.162 220.096 -0.25 -0.00    +0.017 A  
DOCKED: ATOM     37  C   UNL     1     141.956  68.950 219.538 -0.13 -0.00    +0.001 A  
DOCKED: ATOM     38  C   UNL     1     144.157  69.954 219.694 -0.26 +0.00    +0.001 A  
DOCKED: ATOM     39  C   UNL     1     143.347  68.848 219.415 -0.22 -0.00    +0.000 A  
DOCKED: ENDBRANCH  33  34
DOCKED: ENDBRANCH  32  33
DOCKED: ENDBRANCH   4  32
DOCKED: TORSDOF 6
DOCKED: TER
DOCKED: ENDMDL
________________________________________________________________________________


    FINAL DOCKED STATE:
    ________________________


Run:   4 / 20
Time taken for this run:   0.049s

DOCKED: MODEL        4
DOCKED: USER    Run = 4
DOCKED: USER
DOCKED: USER    Estimated Free Energy of Binding    =  -5.47 kcal/mol  [=(1)+(2)+(3)-(4)]
DOCKED: USER
DOCKED: USER    (1) Final Intermolecular Energy     =  -8.75 kcal/mol
DOCKED: USER        vdW + Hbond + desolv Energy     =  -9.05 kcal/mol
DOCKED: USER        Electrostatic Energy            =  -0.30 kcal/mol
DOCKED: USER        Moving Ligand-Fixed Receptor    =  -9.35 kcal/mol
DOCKED: USER        Moving Ligand-Moving Receptor   =  +0.60 kcal/mol
DOCKED: USER    (2) Final Total Internal Energy     =  -1.19 kcal/mol
DOCKED: USER    (3) Torsional Free Energy           =  +3.28 kcal/mol
DOCKED: USER    (4) Unbound System's Energy         =  -1.19 kcal/mol
DOCKED: USER
DOCKED: USER
DOCKED: REMARK SMILES C[NH+]1CCN(C(=O)c2cccc(C3=Nc4ccc(C#Cc5ccccc5)cc4N=C(O)C3)c2)CC1
DOCKED: REMARK SMILES IDX 15 1 16 2 17 3 18 4 27 5 28 6 14 7 13 8 12 9 8 10 9 11 33 12
DOCKED: REMARK SMILES IDX 10 13 11 14 6 15 2 16 3 17 35 18 4 19 34 20 5 21 1 22 7 24
DOCKED: REMARK SMILES IDX 32 25 29 27 30 28 31 30 19 32 20 33 21 34 22 35 26 36 23 37
DOCKED: REMARK SMILES IDX 25 38 24 39
DOCKED: REMARK H PARENT 2 23 31 31
DOCKED: REMARK Flexibility Score:  140.900
DOCKED: USER                              x       y       z     vdW  Elec       q    Type
DOCKED: USER                           _______ _______ _______ _____ _____    ______ ____
DOCKED: ROOT
DOCKED: ATOM      1  C   UNL     1     140.898  73.760 220.483 -0.17 -0.02    +0.089 A  
DOCKED: ATOM      2  C   UNL     1     139.798  73.845 221.348 -0.23 -0.01    +0.032 A  
DOCKED: ATOM      3  C   UNL     1     139.729  73.059 222.498 -0.18 -0.00    +0.019 A  
DOCKED: ATOM      4  C   UNL     1     140.748  72.146 222.784 -0.28 -0.00    +0.027 A  
DOCKED: ATOM      5  C   UNL     1     141.841  72.027 221.917 +0.09 -0.00    +0.048 A  
DOCKED: ATOM      6  C   UNL     1     141.940  72.833 220.774 -0.21 -0.01    +0.094 A  
DOCKED: ENDROOT
DOCKED: BRANCH   1   7
DOCKED: ATOM      7  N   UNL     1     140.860  74.557 219.286 -0.03 +0.06    -0.250 NA 
DOCKED: BRANCH   7   8
DOCKED: ATOM      8  C   UNL     1     141.870  75.083 218.657 -0.11 -0.02    +0.058 C  
DOCKED: BRANCH   8   9
DOCKED: ATOM      9  C   UNL     1     141.991  76.562 218.608 -0.21 +0.00    -0.003 A  
DOCKED: ATOM     10  C   UNL     1     141.952  78.725 219.751 -0.23 -0.03    +0.040 A  
DOCKED: ATOM     11  C   UNL     1     142.248  79.363 218.539 -0.31 -0.01    +0.014 A  
DOCKED: ATOM     12  C   UNL     1     141.805  77.326 219.776 -0.27 -0.01    +0.023 A  
DOCKED: ATOM     13  C   UNL     1     142.408  78.614 217.369 -0.27 -0.00    +0.002 A  
DOCKED: ATOM     14  C   UNL     1     142.285  77.223 217.402 -0.21 -0.01    +0.010 A  
DOCKED: BRANCH  10  15
DOCKED: ATOM     15  C   UNL     1     141.773  79.514 220.988 -0.22 -0.13    +0.254 C  
DOCKED: ATOM     16  N   UNL     1     138.505  80.751 222.754 -0.10 +0.05    -0.334 N  
DOCKED: ATOM     17  C   UNL     1     139.743  80.800 223.586 -0.21 -0.03    +0.283 C  
DOCKED: ATOM     18  C   UNL     1     138.216  79.393 222.234 -0.12 -0.05    +0.283 C  
DOCKED: ATOM     19  C   UNL     1     140.743  79.660 223.289 -0.38 -0.04    +0.181 C  
DOCKED: ATOM     20  C   UNL     1     139.360  78.856 221.351 -0.12 -0.04    +0.181 C  
DOCKED: ATOM     21  N   UNL     1     140.667  79.274 221.877 -0.11 +0.10    -0.327 N  
DOCKED: ATOM     22  C   UNL     1     138.544  81.750 221.660 -0.08 -0.05    +0.332 C  
DOCKED: ATOM     23  H   UNL     1     137.697  81.023 223.370 +0.13 -0.04    +0.347 HD 
DOCKED: ATOM     24  O   UNL     1     142.599  80.429 221.256 -0.23 +0.12    -0.269 OA 
DOCKED: ENDBRANCH  10  15
DOCKED: ENDBRANCH   8   9
DOCKED: BRANCH   8  25
DOCKED: ATOM     25  C   UNL     1     142.937  74.205 218.064 -0.09 -0.04    +0.153 CG0
DOCKED: ATOM     26  G   UNL     1     143.658  73.498 219.162 +0.00 +0.00    +0.000 G0 
DOCKED: ENDBRANCH   8  25
DOCKED: ENDBRANCH   7   8
DOCKED: ENDBRANCH   1   7
DOCKED: BRANCH   6  27
DOCKED: ATOM     27  N   UNL     1     143.067  72.611 219.907 -0.11 +0.03    -0.216 NA 
DOCKED: BRANCH  27  28
DOCKED: ATOM     28  C   UNL     1     143.662  73.493 219.163 -0.16 -0.04    +0.192 CG0
DOCKED: ATOM     29  G   UNL     1     142.938  74.201 218.067 +0.00 +0.00    +0.000 G0 
DOCKED: BRANCH  28  30
DOCKED: ATOM     30  O   UNL     1     144.999  73.802 219.402 -0.12 +0.09    -0.496 OA 
DOCKED: ATOM     31  H   UNL     1     145.487  74.481 218.832 -0.33 -0.18    +0.294 HD 
DOCKED: ENDBRANCH  28  30
DOCKED: ENDBRANCH  27  28
DOCKED: ENDBRANCH   6  27
DOCKED: BRANCH   4  32
DOCKED: ATOM     32  C   UNL     1     140.675  71.332 223.968 -0.33 +0.01    -0.062 C  
DOCKED: BRANCH  32  33
DOCKED: ATOM     33  C   UNL     1     140.611  70.641 224.954 -0.46 +0.01    -0.062 C  
DOCKED: BRANCH  33  34
DOCKED: ATOM     34  C   UNL     1     140.535  69.826 226.138 -0.51 -0.00    +0.025 A  
DOCKED: ATOM     35  C   UNL     1     141.128  68.555 226.155 -0.53 -0.00    +0.017 A  
DOCKED: ATOM     36  C   UNL     1     139.855  70.293 227.271 -0.52 -0.00    +0.017 A  
DOCKED: ATOM     37  C   UNL     1     141.039  67.757 227.299 -0.65 -0.00    +0.001 A  
DOCKED: ATOM     38  C   UNL     1     139.766  69.493 228.413 -0.60 -0.00    +0.001 A  
DOCKED: ATOM     39  C   UNL     1     140.358  68.225 228.429 -0.60 -0.00    +0.000 A  
DOCKED: ENDBRANCH  33  34
DOCKED: ENDBRANCH  32  33
DOCKED: ENDBRANCH   4  32
DOCKED: TORSDOF 6
DOCKED: TER
DOCKED: ENDMDL
________________________________________________________________________________


    FINAL DOCKED STATE:
    ________________________


Run:   5 / 20
Time taken for this run:   0.049s

DOCKED: MODEL        5
DOCKED: USER    Run = 5
DOCKED: USER
DOCKED: USER    Estimated Free Energy of Binding    =  -4.07 kcal/mol  [=(1)+(2)+(3)-(4)]
DOCKED: USER
DOCKED: USER    (1) Final Intermolecular Energy     =  -7.35 kcal/mol
DOCKED: USER        vdW + Hbond + desolv Energy     =  -7.31 kcal/mol
DOCKED: USER        Electrostatic Energy            =  -0.39 kcal/mol
DOCKED: USER        Moving Ligand-Fixed Receptor    =  -7.69 kcal/mol
DOCKED: USER        Moving Ligand-Moving Receptor   =  +0.34 kcal/mol
DOCKED: USER    (2) Final Total Internal Energy     =  -1.13 kcal/mol
DOCKED: USER    (3) Torsional Free Energy           =  +3.28 kcal/mol
DOCKED: USER    (4) Unbound System's Energy         =  -1.13 kcal/mol
DOCKED: USER
DOCKED: USER
DOCKED: REMARK SMILES C[NH+]1CCN(C(=O)c2cccc(C3=Nc4ccc(C#Cc5ccccc5)cc4N=C(O)C3)c2)CC1
DOCKED: REMARK SMILES IDX 15 1 16 2 17 3 18 4 27 5 28 6 14 7 13 8 12 9 8 10 9 11 33 12
DOCKED: REMARK SMILES IDX 10 13 11 14 6 15 2 16 3 17 35 18 4 19 34 20 5 21 1 22 7 24
DOCKED: REMARK SMILES IDX 32 25 29 27 30 28 31 30 19 32 20 33 21 34 22 35 26 36 23 37
DOCKED: REMARK SMILES IDX 25 38 24 39
DOCKED: REMARK H PARENT 2 23 31 31
DOCKED: REMARK Flexibility Score:  140.900
DOCKED: USER                              x       y       z     vdW  Elec       q    Type
DOCKED: USER                           _______ _______ _______ _____ _____    ______ ____
DOCKED: ROOT
DOCKED: ATOM      1  C   UNL     1     139.796  74.816 220.607 -0.15 -0.02    +0.089 A  
DOCKED: ATOM      2  C   UNL     1     139.051  73.740 221.108 -0.16 -0.01    +0.032 A  
DOCKED: ATOM      3  C   UNL     1     137.987  73.951 221.984 -0.15 -0.01    +0.019 A  
DOCKED: ATOM      4  C   UNL     1     137.672  75.247 222.402 -0.17 -0.01    +0.027 A  
DOCKED: ATOM      5  C   UNL     1     138.422  76.332 221.935 -0.25 -0.01    +0.048 A  
DOCKED: ATOM      6  C   UNL     1     139.475  76.139 221.028 -0.17 -0.02    +0.094 A  
DOCKED: ENDROOT
DOCKED: BRANCH   1   7
DOCKED: ATOM      7  N   UNL     1     140.917  74.507 219.762 -0.05 +0.06    -0.250 NA 
DOCKED: BRANCH   7   8
DOCKED: ATOM      8  C   UNL     1     142.079  75.094 219.747 -0.22 -0.02    +0.058 C  
DOCKED: BRANCH   8   9
DOCKED: ATOM      9  C   UNL     1     143.295  74.281 220.002 -0.34 +0.00    -0.003 A  
DOCKED: ATOM     10  C   UNL     1     144.446  72.123 219.939 -0.31 -0.00    +0.040 A  
DOCKED: ATOM     11  C   UNL     1     145.600  72.732 220.449 -0.54 +0.00    +0.014 A  
DOCKED: ATOM     12  C   UNL     1     143.290  72.898 219.736 -0.23 -0.00    +0.023 A  
DOCKED: ATOM     13  C   UNL     1     145.606  74.100 220.740 -0.62 -0.00    +0.002 A  
DOCKED: ATOM     14  C   UNL     1     144.463  74.871 220.515 -0.32 -0.00    +0.010 A  
DOCKED: BRANCH  10  15
DOCKED: ATOM     15  C   UNL     1     144.434  70.676 219.637 -0.12 +0.02    +0.254 C  
DOCKED: ATOM     16  N   UNL     1     143.783  68.796 216.265 +0.01 +0.08    -0.334 N  
DOCKED: ATOM     17  C   UNL     1     144.415  67.981 217.345 -0.07 -0.09    +0.283 C  
DOCKED: ATOM     18  C   UNL     1     144.568  70.009 215.929 +0.01 -0.01    +0.283 C  
DOCKED: ATOM     19  C   UNL     1     145.371  68.781 218.257 -0.21 +0.01    +0.181 C  
DOCKED: ATOM     20  C   UNL     1     144.738  70.943 217.143 -0.05 +0.03    +0.181 C  
DOCKED: ATOM     21  N   UNL     1     144.913  70.168 218.379 -0.07 -0.07    -0.327 N  
DOCKED: ATOM     22  C   UNL     1     142.379  69.136 216.591 +0.01 -0.08    +0.332 C  
DOCKED: ATOM     23  H   UNL     1     143.748  68.203 215.398 +0.05 -0.12    +0.347 HD 
DOCKED: ATOM     24  O   UNL     1     143.974  69.875 220.498 -0.03 -0.01    -0.269 OA 
DOCKED: ENDBRANCH  10  15
DOCKED: ENDBRANCH   8   9
DOCKED: BRANCH   8  25
DOCKED: ATOM     25  C   UNL     1     142.189  76.552 219.396 -0.23 -0.08    +0.153 CG0
DOCKED: ATOM     26  G   UNL     1     141.517  77.363 220.453 +0.00 +0.00    +0.000 G0 
DOCKED: ENDBRANCH   8  25
DOCKED: ENDBRANCH   7   8
DOCKED: ENDBRANCH   1   7
DOCKED: BRANCH   6  27
DOCKED: ATOM     27  N   UNL     1     140.230  77.300 220.640 -0.09 +0.07    -0.216 NA 
DOCKED: BRANCH  27  28
DOCKED: ATOM     28  C   UNL     1     141.514  77.366 220.452 -0.21 -0.10    +0.192 CG0
DOCKED: ATOM     29  G   UNL     1     142.187  76.553 219.396 +0.00 +0.00    +0.000 G0 
DOCKED: BRANCH  28  30
DOCKED: ATOM     30  O   UNL     1     142.278  78.226 221.235 -0.03 +0.39    -0.496 OA 
DOCKED: ATOM     31  H   UNL     1     143.278  78.096 221.330 -0.40 -0.41    +0.294 HD 
DOCKED: ENDBRANCH  28  30
DOCKED: ENDBRANCH  27  28
DOCKED: ENDBRANCH   6  27
DOCKED: BRANCH   4  32
DOCKED: ATOM     32  C   UNL     1     136.577  75.465 223.310 -0.13 +0.02    -0.062 C  
DOCKED: BRANCH  32  33
DOCKED: ATOM     33  C   UNL     1     135.665  75.645 224.079 -0.27 +0.01    -0.062 C  
DOCKED: BRANCH  33  34
DOCKED: ATOM     34  C   UNL     1     134.584  75.858 225.005 -0.31 -0.00    +0.025 A  
DOCKED: ATOM     35  C   UNL     1     134.208  74.837 225.890 -0.38 +0.00    +0.017 A  
DOCKED: ATOM     36  C   UNL     1     133.897  77.079 225.015 -0.19 -0.00    +0.017 A  
DOCKED: ATOM     37  C   UNL     1     133.146  75.038 226.779 -0.38 +0.00    +0.001 A  
DOCKED: ATOM     38  C   UNL     1     132.835  77.276 225.902 -0.20 -0.00    +0.001 A  
DOCKED: ATOM     39  C   UNL     1     132.460  76.258 226.785 -0.31 -0.00    +0.000 A  
DOCKED: ENDBRANCH  33  34
DOCKED: ENDBRANCH  32  33
DOCKED: ENDBRANCH   4  32
DOCKED: TORSDOF 6
DOCKED: TER
DOCKED: ENDMDL
________________________________________________________________________________


    FINAL DOCKED STATE:
    ________________________


Run:   6 / 20
Time taken for this run:   0.049s

DOCKED: MODEL        6
DOCKED: USER    Run = 6
DOCKED: USER
DOCKED: USER    Estimated Free Energy of Binding    =  -5.90 kcal/mol  [=(1)+(2)+(3)-(4)]
DOCKED: USER
DOCKED: USER    (1) Final Intermolecular Energy     =  -9.18 kcal/mol
DOCKED: USER        vdW + Hbond + desolv Energy     =  -9.41 kcal/mol
DOCKED: USER        Electrostatic Energy            =  -0.35 kcal/mol
DOCKED: USER        Moving Ligand-Fixed Receptor    =  -9.76 kcal/mol
DOCKED: USER        Moving Ligand-Moving Receptor   =  +0.58 kcal/mol
DOCKED: USER    (2) Final Total Internal Energy     =  -1.02 kcal/mol
DOCKED: USER    (3) Torsional Free Energy           =  +3.28 kcal/mol
DOCKED: USER    (4) Unbound System's Energy         =  -1.02 kcal/mol
DOCKED: USER
DOCKED: USER
DOCKED: REMARK SMILES C[NH+]1CCN(C(=O)c2cccc(C3=Nc4ccc(C#Cc5ccccc5)cc4N=C(O)C3)c2)CC1
DOCKED: REMARK SMILES IDX 15 1 16 2 17 3 18 4 27 5 28 6 14 7 13 8 12 9 8 10 9 11 33 12
DOCKED: REMARK SMILES IDX 10 13 11 14 6 15 2 16 3 17 35 18 4 19 34 20 5 21 1 22 7 24
DOCKED: REMARK SMILES IDX 32 25 29 27 30 28 31 30 19 32 20 33 21 34 22 35 26 36 23 37
DOCKED: REMARK SMILES IDX 25 38 24 39
DOCKED: REMARK H PARENT 2 23 31 31
DOCKED: REMARK Flexibility Score:  140.900
DOCKED: USER                              x       y       z     vdW  Elec       q    Type
DOCKED: USER                           _______ _______ _______ _____ _____    ______ ____
DOCKED: ROOT
DOCKED: ATOM      1  C   UNL     1     140.910  73.928 220.392 -0.16 -0.02    +0.089 A  
DOCKED: ATOM      2  C   UNL     1     139.801  74.037 221.243 -0.23 -0.01    +0.032 A  
DOCKED: ATOM      3  C   UNL     1     139.673  73.213 222.361 -0.23 -0.00    +0.019 A  
DOCKED: ATOM      4  C   UNL     1     140.639  72.240 222.627 -0.32 -0.00    +0.027 A  
DOCKED: ATOM      5  C   UNL     1     141.739  72.096 221.774 -0.08 -0.00    +0.048 A  
DOCKED: ATOM      6  C   UNL     1     141.899  72.938 220.663 -0.20 -0.01    +0.094 A  
DOCKED: ENDROOT
DOCKED: BRANCH   1   7
DOCKED: ATOM      7  N   UNL     1     140.933  74.769 219.226 -0.03 +0.07    -0.250 NA 
DOCKED: BRANCH   7   8
DOCKED: ATOM      8  C   UNL     1     141.980  75.261 218.630 -0.13 -0.02    +0.058 C  
DOCKED: BRANCH   8   9
DOCKED: ATOM      9  C   UNL     1     142.179  76.732 218.631 -0.24 +0.00    -0.003 A  
DOCKED: ATOM     10  C   UNL     1     142.044  78.882 219.792 -0.17 -0.03    +0.040 A  
DOCKED: ATOM     11  C   UNL     1     142.581  79.516 218.664 -0.25 -0.01    +0.014 A  
DOCKED: ATOM     12  C   UNL     1     141.826  77.492 219.763 -0.28 -0.01    +0.023 A  
DOCKED: ATOM     13  C   UNL     1     142.910  78.772 217.527 -0.23 -0.00    +0.002 A  
DOCKED: ATOM     14  C   UNL     1     142.715  77.389 217.510 -0.28 -0.01    +0.010 A  
DOCKED: BRANCH  10  15
DOCKED: ATOM     15  C   UNL     1     141.687  79.665 220.993 -0.22 -0.12    +0.254 C  
DOCKED: ATOM     16  N   UNL     1     138.455  79.586 223.203 -0.14 +0.05    -0.334 N  
DOCKED: ATOM     17  C   UNL     1     139.635  80.268 223.812 -0.23 -0.04    +0.283 C  
DOCKED: ATOM     18  C   UNL     1     138.740  78.182 222.818 -0.15 -0.05    +0.283 C  
DOCKED: ATOM     19  C   UNL     1     140.993  79.643 223.421 -0.42 -0.04    +0.181 C  
DOCKED: ATOM     20  C   UNL     1     139.885  78.084 221.790 -0.21 -0.05    +0.181 C  
DOCKED: ATOM     21  N   UNL     1     140.922  79.087 222.066 -0.14 +0.11    -0.327 N  
DOCKED: ATOM     22  C   UNL     1     137.911  80.357 222.061 -0.07 -0.05    +0.332 C  
DOCKED: ATOM     23  H   UNL     1     137.694  79.558 223.927 +0.15 -0.04    +0.347 HD 
DOCKED: ATOM     24  O   UNL     1     142.045  80.873 221.065 -0.27 +0.09    -0.269 OA 
DOCKED: ENDBRANCH  10  15
DOCKED: ENDBRANCH   8   9
DOCKED: BRANCH   8  25
DOCKED: ATOM     25  C   UNL     1     143.008  74.347 218.022 -0.10 -0.05    +0.153 CG0
DOCKED: ATOM     26  G   UNL     1     143.681  73.575 219.108 +0.00 +0.00    +0.000 G0 
DOCKED: ENDBRANCH   8  25
DOCKED: ENDBRANCH   7   8
DOCKED: ENDBRANCH   1   7
DOCKED: BRANCH   6  27
DOCKED: ATOM     27  N   UNL     1     143.027  72.690 219.806 -0.11 +0.03    -0.216 NA 
DOCKED: BRANCH  27  28
DOCKED: ATOM     28  C   UNL     1     143.678  73.567 219.103 -0.16 -0.04    +0.192 CG0
DOCKED: ATOM     29  G   UNL     1     143.008  74.346 218.021 +0.00 +0.00    +0.000 G0 
DOCKED: BRANCH  28  30
DOCKED: ATOM     30  O   UNL     1     145.023  73.801 219.374 -0.12 +0.09    -0.496 OA 
DOCKED: ATOM     31  H   UNL     1     145.388  74.744 219.426 -0.22 -0.20    +0.294 HD 
DOCKED: ENDBRANCH  28  30
DOCKED: ENDBRANCH  27  28
DOCKED: ENDBRANCH   6  27
DOCKED: BRANCH   4  32
DOCKED: ATOM     32  C   UNL     1     140.504  71.386 223.779 -0.34 +0.01    -0.062 C  
DOCKED: BRANCH  32  33
DOCKED: ATOM     33  C   UNL     1     140.384  70.666 224.739 -0.43 +0.01    -0.062 C  
DOCKED: BRANCH  33  34
DOCKED: ATOM     34  C   UNL     1     140.235  69.814 225.890 -0.48 -0.00    +0.025 A  
DOCKED: ATOM     35  C   UNL     1     140.402  70.341 227.178 -0.59 -0.00    +0.017 A  
DOCKED: ATOM     36  C   UNL     1     139.936  68.455 225.724 -0.51 -0.00    +0.017 A  
DOCKED: ATOM     37  C   UNL     1     140.274  69.510 228.296 -0.62 -0.00    +0.001 A  
DOCKED: ATOM     38  C   UNL     1     139.810  67.626 226.843 -0.64 -0.00    +0.001 A  
DOCKED: ATOM     39  C   UNL     1     139.978  68.153 228.128 -0.55 -0.00    +0.000 A  
DOCKED: ENDBRANCH  33  34
DOCKED: ENDBRANCH  32  33
DOCKED: ENDBRANCH   4  32
DOCKED: TORSDOF 6
DOCKED: TER
DOCKED: ENDMDL
________________________________________________________________________________


    FINAL DOCKED STATE:
    ________________________


Run:   7 / 20
Time taken for this run:   0.049s

DOCKED: MODEL        7
DOCKED: USER    Run = 7
DOCKED: USER
DOCKED: USER    Estimated Free Energy of Binding    =  -4.61 kcal/mol  [=(1)+(2)+(3)-(4)]
DOCKED: USER
DOCKED: USER    (1) Final Intermolecular Energy     =  -7.89 kcal/mol
DOCKED: USER        vdW + Hbond + desolv Energy     =  -8.40 kcal/mol
DOCKED: USER        Electrostatic Energy            =  -0.20 kcal/mol
DOCKED: USER        Moving Ligand-Fixed Receptor    =  -8.60 kcal/mol
DOCKED: USER        Moving Ligand-Moving Receptor   =  +0.71 kcal/mol
DOCKED: USER    (2) Final Total Internal Energy     =  -1.02 kcal/mol
DOCKED: USER    (3) Torsional Free Energy           =  +3.28 kcal/mol
DOCKED: USER    (4) Unbound System's Energy         =  -1.02 kcal/mol
DOCKED: USER
DOCKED: USER
DOCKED: REMARK SMILES C[NH+]1CCN(C(=O)c2cccc(C3=Nc4ccc(C#Cc5ccccc5)cc4N=C(O)C3)c2)CC1
DOCKED: REMARK SMILES IDX 15 1 16 2 17 3 18 4 27 5 28 6 14 7 13 8 12 9 8 10 9 11 33 12
DOCKED: REMARK SMILES IDX 10 13 11 14 6 15 2 16 3 17 35 18 4 19 34 20 5 21 1 22 7 24
DOCKED: REMARK SMILES IDX 32 25 29 27 30 28 31 30 19 32 20 33 21 34 22 35 26 36 23 37
DOCKED: REMARK SMILES IDX 25 38 24 39
DOCKED: REMARK H PARENT 2 23 31 31
DOCKED: REMARK Flexibility Score:  140.900
DOCKED: USER                              x       y       z     vdW  Elec       q    Type
DOCKED: USER                           _______ _______ _______ _____ _____    ______ ____
DOCKED: ROOT
DOCKED: ATOM      1  C   UNL     1     140.302  73.639 220.069 -0.09 -0.02    +0.089 A  
DOCKED: ATOM      2  C   UNL     1     141.473  73.007 220.510 -0.19 -0.01    +0.032 A  
DOCKED: ATOM      3  C   UNL     1     141.486  72.268 221.693 -0.23 -0.00    +0.019 A  
DOCKED: ATOM      4  C   UNL     1     140.331  72.177 222.474 -0.32 -0.00    +0.027 A  
DOCKED: ATOM      5  C   UNL     1     139.159  72.824 222.064 -0.22 -0.01    +0.048 A  
DOCKED: ATOM      6  C   UNL     1     139.121  73.545 220.862 -0.12 -0.02    +0.094 A  
DOCKED: ENDROOT
DOCKED: BRANCH   1   7
DOCKED: ATOM      7  N   UNL     1     140.391  74.436 218.876 -0.01 +0.06    -0.250 NA 
DOCKED: BRANCH   7   8
DOCKED: ATOM      8  C   UNL     1     139.810  75.578 218.645 -0.04 -0.02    +0.058 C  
DOCKED: BRANCH   8   9
DOCKED: ATOM      9  C   UNL     1     140.654  76.758 218.327 -0.07 +0.00    -0.003 A  
DOCKED: ATOM     10  C   UNL     1     141.599  78.918 218.982 -0.23 -0.02    +0.040 A  
DOCKED: ATOM     11  C   UNL     1     142.274  78.985 217.756 -0.29 -0.01    +0.014 A  
DOCKED: ATOM     12  C   UNL     1     140.775  77.811 219.254 -0.14 -0.01    +0.023 A  
DOCKED: ATOM     13  C   UNL     1     142.138  77.956 216.819 -0.20 -0.00    +0.002 A  
DOCKED: ATOM     14  C   UNL     1     141.338  76.848 217.103 -0.08 -0.00    +0.010 A  
DOCKED: BRANCH  10  15
DOCKED: ATOM     15  C   UNL     1     141.733  80.007 219.972 -0.19 -0.13    +0.254 C  
DOCKED: ATOM     16  N   UNL     1     140.742  80.127 223.758 -0.21 +0.06    -0.334 N  
DOCKED: ATOM     17  C   UNL     1     141.668  81.205 223.300 -0.36 -0.04    +0.283 C  
DOCKED: ATOM     18  C   UNL     1     141.275  78.767 223.503 -0.35 -0.08    +0.283 C  
DOCKED: ATOM     19  C   UNL     1     142.655  80.759 222.199 -0.26 -0.06    +0.181 C  
DOCKED: ATOM     20  C   UNL     1     141.534  78.518 222.003 -0.31 -0.09    +0.181 C  
DOCKED: ATOM     21  N   UNL     1     142.038  79.734 221.351 -0.18 +0.16    -0.327 N  
DOCKED: ATOM     22  C   UNL     1     139.388  80.292 223.181 -0.21 -0.05    +0.332 C  
DOCKED: ATOM     23  H   UNL     1     140.631  80.223 224.798 +0.42 -0.04    +0.347 HD 
DOCKED: ATOM     24  O   UNL     1     141.554  81.199 219.598 -0.19 +0.11    -0.269 OA 
DOCKED: ENDBRANCH  10  15
DOCKED: ENDBRANCH   8   9
DOCKED: BRANCH   8  25
DOCKED: ATOM     25  C   UNL     1     138.311  75.676 218.622 -0.01 -0.03    +0.153 CG0
DOCKED: ATOM     26  G   UNL     1     137.779  75.399 219.989 +0.00 +0.00    +0.000 G0 
DOCKED: ENDBRANCH   8  25
DOCKED: ENDBRANCH   7   8
DOCKED: ENDBRANCH   1   7
DOCKED: BRANCH   6  27
DOCKED: ATOM     27  N   UNL     1     137.896  74.225 220.540 -0.04 +0.05    -0.216 NA 
DOCKED: BRANCH  27  28
DOCKED: ATOM     28  C   UNL     1     137.776  75.396 219.990 -0.03 -0.04    +0.192 CG0
DOCKED: ATOM     29  G   UNL     1     138.307  75.668 218.621 +0.00 +0.00    +0.000 G0 
DOCKED: BRANCH  28  30
DOCKED: ATOM     30  O   UNL     1     137.124  76.414 220.679 +0.00 +0.10    -0.496 OA 
DOCKED: ATOM     31  H   UNL     1     136.532  77.077 220.193 +0.03 -0.05    +0.294 HD 
DOCKED: ENDBRANCH  28  30
DOCKED: ENDBRANCH  27  28
DOCKED: ENDBRANCH   6  27
DOCKED: BRANCH   4  32
DOCKED: ATOM     32  C   UNL     1     140.345  71.417 223.696 -0.36 +0.01    -0.062 C  
DOCKED: BRANCH  32  33
DOCKED: ATOM     33  C   UNL     1     140.364  70.787 224.724 -0.44 +0.01    -0.062 C  
DOCKED: BRANCH  33  34
DOCKED: ATOM     34  C   UNL     1     140.395  70.042 225.956 -0.50 -0.00    +0.025 A  
DOCKED: ATOM     35  C   UNL     1     140.670  68.667 225.937 -0.49 -0.00    +0.017 A  
DOCKED: ATOM     36  C   UNL     1     140.137  70.685 227.173 -0.57 -0.00    +0.017 A  
DOCKED: ATOM     37  C   UNL     1     140.684  67.940 227.131 -0.68 -0.00    +0.001 A  
DOCKED: ATOM     38  C   UNL     1     140.149  69.956 228.366 -0.58 -0.00    +0.001 A  
DOCKED: ATOM     39  C   UNL     1     140.423  68.584 228.346 -0.67 -0.00    +0.000 A  
DOCKED: ENDBRANCH  33  34
DOCKED: ENDBRANCH  32  33
DOCKED: ENDBRANCH   4  32
DOCKED: TORSDOF 6
DOCKED: TER
DOCKED: ENDMDL
________________________________________________________________________________


    FINAL DOCKED STATE:
    ________________________


Run:   8 / 20
Time taken for this run:   0.049s

DOCKED: MODEL        8
DOCKED: USER    Run = 8
DOCKED: USER
DOCKED: USER    Estimated Free Energy of Binding    =  -6.05 kcal/mol  [=(1)+(2)+(3)-(4)]
DOCKED: USER
DOCKED: USER    (1) Final Intermolecular Energy     =  -9.33 kcal/mol
DOCKED: USER        vdW + Hbond + desolv Energy     =  -8.97 kcal/mol
DOCKED: USER        Electrostatic Energy            =  -0.70 kcal/mol
DOCKED: USER        Moving Ligand-Fixed Receptor    =  -9.66 kcal/mol
DOCKED: USER        Moving Ligand-Moving Receptor   =  +0.34 kcal/mol
DOCKED: USER    (2) Final Total Internal Energy     =  -1.02 kcal/mol
DOCKED: USER    (3) Torsional Free Energy           =  +3.28 kcal/mol
DOCKED: USER    (4) Unbound System's Energy         =  -1.02 kcal/mol
DOCKED: USER
DOCKED: USER
DOCKED: REMARK SMILES C[NH+]1CCN(C(=O)c2cccc(C3=Nc4ccc(C#Cc5ccccc5)cc4N=C(O)C3)c2)CC1
DOCKED: REMARK SMILES IDX 15 1 16 2 17 3 18 4 27 5 28 6 14 7 13 8 12 9 8 10 9 11 33 12
DOCKED: REMARK SMILES IDX 10 13 11 14 6 15 2 16 3 17 35 18 4 19 34 20 5 21 1 22 7 24
DOCKED: REMARK SMILES IDX 32 25 29 27 30 28 31 30 19 32 20 33 21 34 22 35 26 36 23 37
DOCKED: REMARK SMILES IDX 25 38 24 39
DOCKED: REMARK H PARENT 2 23 31 31
DOCKED: REMARK Flexibility Score:  140.900
DOCKED: USER                              x       y       z     vdW  Elec       q    Type
DOCKED: USER                           _______ _______ _______ _____ _____    ______ ____
DOCKED: ROOT
DOCKED: ATOM      1  C   UNL     1     141.843  74.934 220.974 -0.26 -0.03    +0.089 A  
DOCKED: ATOM      2  C   UNL     1     143.127  74.805 220.428 -0.33 -0.01    +0.032 A  
DOCKED: ATOM      3  C   UNL     1     143.640  73.551 220.094 -0.33 -0.00    +0.019 A  
DOCKED: ATOM      4  C   UNL     1     142.887  72.400 220.334 -0.24 -0.00    +0.027 A  
DOCKED: ATOM      5  C   UNL     1     141.613  72.507 220.905 -0.22 -0.01    +0.048 A  
DOCKED: ATOM      6  C   UNL     1     141.070  73.762 221.216 -0.25 -0.01    +0.094 A  
DOCKED: ENDROOT
DOCKED: BRANCH   1   7
DOCKED: ATOM      7  N   UNL     1     141.416  76.254 221.351 -0.18 +0.11    -0.250 NA 
DOCKED: BRANCH   7   8
DOCKED: ATOM      8  C   UNL     1     140.196  76.709 221.384 -0.28 -0.02    +0.058 C  
DOCKED: BRANCH   8   9
DOCKED: ATOM      9  C   UNL     1     139.959  78.084 221.891 -0.29 +0.00    -0.003 A  
DOCKED: ATOM     10  C   UNL     1     140.306  80.498 221.695 -0.25 -0.01    +0.040 A  
DOCKED: ATOM     11  C   UNL     1     139.493  80.699 222.818 -0.32 -0.00    +0.014 A  
DOCKED: ATOM     12  C   UNL     1     140.552  79.187 221.247 -0.24 -0.01    +0.023 A  
DOCKED: ATOM     13  C   UNL     1     138.921  79.607 223.478 -0.38 -0.00    +0.002 A  
DOCKED: ATOM     14  C   UNL     1     139.148  78.309 223.017 -0.30 -0.00    +0.010 A  
DOCKED: BRANCH  10  15
DOCKED: ATOM     15  C   UNL     1     140.920  81.649 220.998 -0.21 -0.06    +0.254 C  
DOCKED: ATOM     16  N   UNL     1     141.739  82.172 217.206 -0.07 +0.19    -0.334 N  
DOCKED: ATOM     17  C   UNL     1     141.750  83.408 218.043 -0.10 -0.11    +0.283 C  
DOCKED: ATOM     18  C   UNL     1     140.445  81.451 217.263 -0.04 -0.12    +0.283 C  
DOCKED: ATOM     19  C   UNL     1     140.714  83.398 219.189 -0.13 -0.05    +0.181 C  
DOCKED: ATOM     20  C   UNL     1     140.088  81.014 218.698 -0.06 -0.06    +0.181 C  
DOCKED: ATOM     21  N   UNL     1     140.508  82.030 219.673 -0.08 +0.09    -0.327 N  
DOCKED: ATOM     22  C   UNL     1     142.870  81.276 217.544 -0.16 -0.34    +0.332 C  
DOCKED: ATOM     23  H   UNL     1     141.885  82.463 216.206 +0.08 -0.21    +0.347 HD 
DOCKED: ATOM     24  O   UNL     1     141.837  82.295 221.575 -0.26 +0.05    -0.269 OA 
DOCKED: ENDBRANCH  10  15
DOCKED: ENDBRANCH   8   9
DOCKED: BRANCH   8  25
DOCKED: ATOM     25  C   UNL     1     139.063  75.883 220.842 -0.12 -0.04    +0.153 CG0
DOCKED: ATOM     26  G   UNL     1     138.862  74.691 221.717 +0.00 +0.00    +0.000 G0 
DOCKED: ENDBRANCH   8  25
DOCKED: ENDBRANCH   7   8
DOCKED: ENDBRANCH   1   7
DOCKED: BRANCH   6  27
DOCKED: ATOM     27  N   UNL     1     139.779  73.782 221.850 -0.56 +0.03    -0.216 NA 
DOCKED: BRANCH  27  28
DOCKED: ATOM     28  C   UNL     1     138.861  74.692 221.718 -0.18 -0.05    +0.192 CG0
DOCKED: ATOM     29  G   UNL     1     139.068  75.882 220.842 +0.00 +0.00    +0.000 G0 
DOCKED: BRANCH  28  30
DOCKED: ATOM     30  O   UNL     1     137.651  74.547 222.391 -0.02 +0.18    -0.496 OA 
DOCKED: ATOM     31  H   UNL     1     137.604  74.610 223.400 -0.33 -0.24    +0.294 HD 
DOCKED: ENDBRANCH  28  30
DOCKED: ENDBRANCH  27  28
DOCKED: ENDBRANCH   6  27
DOCKED: BRANCH   4  32
DOCKED: ATOM     32  C   UNL     1     143.418  71.106 219.994 -0.21 +0.00    -0.062 C  
DOCKED: BRANCH  32  33
DOCKED: ATOM     33  C   UNL     1     143.858  70.018 219.717 -0.22 -0.00    -0.062 C  
DOCKED: BRANCH  33  34
DOCKED: ATOM     34  C   UNL     1     144.394  68.722 219.392 -0.31 +0.00    +0.025 A  
DOCKED: ATOM     35  C   UNL     1     143.532  67.630 219.223 -0.26 -0.00    +0.017 A  
DOCKED: ATOM     36  C   UNL     1     145.778  68.548 219.257 -0.44 +0.00    +0.017 A  
DOCKED: ATOM     37  C   UNL     1     144.054  66.367 218.923 -0.38 -0.00    +0.001 A  
DOCKED: ATOM     38  C   UNL     1     146.297  67.285 218.960 -0.53 -0.00    +0.001 A  
DOCKED: ATOM     39  C   UNL     1     145.437  66.194 218.792 -0.48 -0.00    +0.000 A  
DOCKED: ENDBRANCH  33  34
DOCKED: ENDBRANCH  32  33
DOCKED: ENDBRANCH   4  32
DOCKED: TORSDOF 6
DOCKED: TER
DOCKED: ENDMDL
________________________________________________________________________________


    FINAL DOCKED STATE:
    ________________________


Run:   9 / 20
Time taken for this run:   0.049s

DOCKED: MODEL        9
DOCKED: USER    Run = 9
DOCKED: USER
DOCKED: USER    Estimated Free Energy of Binding    =  -5.61 kcal/mol  [=(1)+(2)+(3)-(4)]
DOCKED: USER
DOCKED: USER    (1) Final Intermolecular Energy     =  -8.89 kcal/mol
DOCKED: USER        vdW + Hbond + desolv Energy     =  -9.19 kcal/mol
DOCKED: USER        Electrostatic Energy            =  -0.19 kcal/mol
DOCKED: USER        Moving Ligand-Fixed Receptor    =  -9.38 kcal/mol
DOCKED: USER        Moving Ligand-Moving Receptor   =  +0.49 kcal/mol
DOCKED: USER    (2) Final Total Internal Energy     =  -0.78 kcal/mol
DOCKED: USER    (3) Torsional Free Energy           =  +3.28 kcal/mol
DOCKED: USER    (4) Unbound System's Energy         =  -0.78 kcal/mol
DOCKED: USER
DOCKED: USER
DOCKED: REMARK SMILES C[NH+]1CCN(C(=O)c2cccc(C3=Nc4ccc(C#Cc5ccccc5)cc4N=C(O)C3)c2)CC1
DOCKED: REMARK SMILES IDX 15 1 16 2 17 3 18 4 27 5 28 6 14 7 13 8 12 9 8 10 9 11 33 12
DOCKED: REMARK SMILES IDX 10 13 11 14 6 15 2 16 3 17 35 18 4 19 34 20 5 21 1 22 7 24
DOCKED: REMARK SMILES IDX 32 25 29 27 30 28 31 30 19 32 20 33 21 34 22 35 26 36 23 37
DOCKED: REMARK SMILES IDX 25 38 24 39
DOCKED: REMARK H PARENT 2 23 31 31
DOCKED: REMARK Flexibility Score:  140.900
DOCKED: USER                              x       y       z     vdW  Elec       q    Type
DOCKED: USER                           _______ _______ _______ _____ _____    ______ ____
DOCKED: ROOT
DOCKED: ATOM      1  C   UNL     1     139.926  79.904 221.573 -0.18 -0.02    +0.089 A  
DOCKED: ATOM      2  C   UNL     1     139.226  81.116 221.503 -0.17 -0.01    +0.032 A  
DOCKED: ATOM      3  C   UNL     1     138.515  81.597 222.603 -0.22 -0.00    +0.019 A  
DOCKED: ATOM      4  C   UNL     1     138.463  80.851 223.783 -0.37 -0.00    +0.027 A  
DOCKED: ATOM      5  C   UNL     1     139.132  79.624 223.863 -0.38 -0.01    +0.048 A  
DOCKED: ATOM      6  C   UNL     1     139.879  79.143 222.777 -0.31 -0.02    +0.094 A  
DOCKED: ENDROOT
DOCKED: BRANCH   1   7
DOCKED: ATOM      7  N   UNL     1     140.579  79.448 220.376 -0.08 +0.09    -0.250 NA 
DOCKED: BRANCH   7   8
DOCKED: ATOM      8  C   UNL     1     140.690  78.221 219.957 -0.17 -0.02    +0.058 C  
DOCKED: BRANCH   8   9
DOCKED: ATOM      9  C   UNL     1     141.602  77.933 218.821 -0.22 +0.00    -0.003 A  
DOCKED: ATOM     10  C   UNL     1     143.058  76.374 217.623 -0.24 -0.02    +0.040 A  
DOCKED: ATOM     11  C   UNL     1     143.305  77.358 216.657 -0.24 -0.01    +0.014 A  
DOCKED: ATOM     12  C   UNL     1     142.221  76.673 218.713 -0.25 -0.01    +0.023 A  
DOCKED: ATOM     13  C   UNL     1     142.715  78.621 216.770 -0.08 -0.00    +0.002 A  
DOCKED: ATOM     14  C   UNL     1     141.866  78.906 217.842 -0.24 -0.01    +0.010 A  
DOCKED: BRANCH  10  15
DOCKED: ATOM     15  C   UNL     1     143.687  75.041 217.512 -0.10 -0.11    +0.254 C  
DOCKED: ATOM     16  N   UNL     1     145.188  72.708 220.275 -0.23 +0.00    -0.334 N  
DOCKED: ATOM     17  C   UNL     1     144.917  72.056 218.960 -0.15 +0.07    +0.283 C  
DOCKED: ATOM     18  C   UNL     1     143.980  73.337 220.862 -0.16 -0.06    +0.283 C  
DOCKED: ATOM     19  C   UNL     1     143.681  72.618 218.223 -0.07 -0.01    +0.181 C  
DOCKED: ATOM     20  C   UNL     1     143.390  74.426 219.945 -0.27 -0.06    +0.181 C  
DOCKED: ATOM     21  N   UNL     1     143.511  74.041 218.532 -0.05 +0.09    -0.327 N  
DOCKED: ATOM     22  C   UNL     1     146.307  73.674 220.184 -0.25 +0.04    +0.332 C  
DOCKED: ATOM     23  H   UNL     1     145.500  71.960 220.944 -0.26 -0.11    +0.347 HD 
DOCKED: ATOM     24  O   UNL     1     144.409  74.786 216.508 -0.12 +0.10    -0.269 OA 
DOCKED: ENDBRANCH  10  15
DOCKED: ENDBRANCH   8   9
DOCKED: BRANCH   8  25
DOCKED: ATOM     25  C   UNL     1     139.970  77.108 220.666 -0.13 -0.05    +0.153 CG0
DOCKED: ATOM     26  G   UNL     1     140.568  76.921 222.020 +0.00 +0.00    +0.000 G0 
DOCKED: ENDBRANCH   8  25
DOCKED: ENDBRANCH   7   8
DOCKED: ENDBRANCH   1   7
DOCKED: BRANCH   6  27
DOCKED: ATOM     27  N   UNL     1     140.491  77.849 222.921 -0.24 +0.06    -0.216 NA 
DOCKED: BRANCH  27  28
DOCKED: ATOM     28  C   UNL     1     140.569  76.920 222.017 -0.30 -0.06    +0.192 CG0
DOCKED: ATOM     29  G   UNL     1     139.971  77.104 220.662 +0.00 +0.00    +0.000 G0 
DOCKED: BRANCH  28  30
DOCKED: ATOM     30  O   UNL     1     141.240  75.736 222.307 -0.21 +0.13    -0.496 OA 
DOCKED: ATOM     31  H   UNL     1     142.172  75.563 221.950 -0.42 -0.17    +0.294 HD 
DOCKED: ENDBRANCH  28  30
DOCKED: ENDBRANCH  27  28
DOCKED: ENDBRANCH   6  27
DOCKED: BRANCH   4  32
DOCKED: ATOM     32  C   UNL     1     137.725  81.345 224.916 -0.35 +0.00    -0.062 C  
DOCKED: BRANCH  32  33
DOCKED: ATOM     33  C   UNL     1     137.110  81.750 225.871 -0.39 +0.01    -0.062 C  
DOCKED: BRANCH  33  34
DOCKED: ATOM     34  C   UNL     1     136.382  82.227 227.018 -0.46 -0.00    +0.025 A  
DOCKED: ATOM     35  C   UNL     1     135.937  83.555 227.063 -0.33 -0.00    +0.017 A  
DOCKED: ATOM     36  C   UNL     1     136.130  81.369 228.096 -0.35 -0.01    +0.017 A  
DOCKED: ATOM     37  C   UNL     1     135.244  84.023 228.184 -0.30 +0.00    +0.001 A  
DOCKED: ATOM     38  C   UNL     1     135.439  81.839 229.217 -0.54 -0.00    +0.001 A  
DOCKED: ATOM     39  C   UNL     1     134.996  83.165 229.262 -0.37 +0.00    +0.000 A  
DOCKED: ENDBRANCH  33  34
DOCKED: ENDBRANCH  32  33
DOCKED: ENDBRANCH   4  32
DOCKED: TORSDOF 6
DOCKED: TER
DOCKED: ENDMDL
________________________________________________________________________________


    FINAL DOCKED STATE:
    ________________________


Run:   10 / 20
Time taken for this run:   0.049s

DOCKED: MODEL        10
DOCKED: USER    Run = 10
DOCKED: USER
DOCKED: USER    Estimated Free Energy of Binding    =  -5.32 kcal/mol  [=(1)+(2)+(3)-(4)]
DOCKED: USER
DOCKED: USER    (1) Final Intermolecular Energy     =  -8.60 kcal/mol
DOCKED: USER        vdW + Hbond + desolv Energy     =  -7.91 kcal/mol
DOCKED: USER        Electrostatic Energy            =  -0.93 kcal/mol
DOCKED: USER        Moving Ligand-Fixed Receptor    =  -8.83 kcal/mol
DOCKED: USER        Moving Ligand-Moving Receptor   =  +0.23 kcal/mol
DOCKED: USER    (2) Final Total Internal Energy     =  -1.11 kcal/mol
DOCKED: USER    (3) Torsional Free Energy           =  +3.28 kcal/mol
DOCKED: USER    (4) Unbound System's Energy         =  -1.11 kcal/mol
DOCKED: USER
DOCKED: USER
DOCKED: REMARK SMILES C[NH+]1CCN(C(=O)c2cccc(C3=Nc4ccc(C#Cc5ccccc5)cc4N=C(O)C3)c2)CC1
DOCKED: REMARK SMILES IDX 15 1 16 2 17 3 18 4 27 5 28 6 14 7 13 8 12 9 8 10 9 11 33 12
DOCKED: REMARK SMILES IDX 10 13 11 14 6 15 2 16 3 17 35 18 4 19 34 20 5 21 1 22 7 24
DOCKED: REMARK SMILES IDX 32 25 29 27 30 28 31 30 19 32 20 33 21 34 22 35 26 36 23 37
DOCKED: REMARK SMILES IDX 25 38 24 39
DOCKED: REMARK H PARENT 2 23 31 31
DOCKED: REMARK Flexibility Score:  140.900
DOCKED: USER                              x       y       z     vdW  Elec       q    Type
DOCKED: USER                           _______ _______ _______ _____ _____    ______ ____
DOCKED: ROOT
DOCKED: ATOM      1  C   UNL     1     139.059  79.628 221.769 -0.16 -0.02    +0.089 A  
DOCKED: ATOM      2  C   UNL     1     137.751  80.119 221.659 -0.11 -0.01    +0.032 A  
DOCKED: ATOM      3  C   UNL     1     137.106  80.691 222.755 -0.16 -0.00    +0.019 A  
DOCKED: ATOM      4  C   UNL     1     137.750  80.750 223.994 -0.34 -0.00    +0.027 A  
DOCKED: ATOM      5  C   UNL     1     139.046  80.239 224.131 -0.36 -0.01    +0.048 A  
DOCKED: ATOM      6  C   UNL     1     139.720  79.690 223.030 -0.33 -0.02    +0.094 A  
DOCKED: ENDROOT
DOCKED: BRANCH   1   7
DOCKED: ATOM      7  N   UNL     1     139.627  78.995 220.610 -0.04 +0.07    -0.250 NA 
DOCKED: BRANCH   7   8
DOCKED: ATOM      8  C   UNL     1     140.880  78.968 220.261 -0.21 -0.02    +0.058 C  
DOCKED: BRANCH   8   9
DOCKED: ATOM      9  C   UNL     1     141.291  79.664 219.015 -0.22 +0.00    -0.003 A  
DOCKED: ATOM     10  C   UNL     1     141.605  79.644 216.589 -0.14 -0.03    +0.040 A  
DOCKED: ATOM     11  C   UNL     1     142.035  80.977 216.641 -0.19 -0.01    +0.014 A  
DOCKED: ATOM     12  C   UNL     1     141.253  78.986 217.781 -0.15 -0.01    +0.023 A  
DOCKED: ATOM     13  C   UNL     1     142.100  81.649 217.866 -0.28 -0.00    +0.002 A  
DOCKED: ATOM     14  C   UNL     1     141.728  80.999 219.045 -0.28 -0.00    +0.010 A  
DOCKED: BRANCH  10  15
DOCKED: ATOM     15  C   UNL     1     141.542  78.928 215.297 -0.06 -0.18    +0.254 C  
DOCKED: ATOM     16  N   UNL     1     144.183  76.631 213.543 -0.06 +0.22    -0.334 N  
DOCKED: ATOM     17  C   UNL     1     142.793  76.539 213.007 -0.02 -0.13    +0.283 C  
DOCKED: ATOM     18  C   UNL     1     144.259  76.332 214.993 -0.12 -0.20    +0.283 C  
DOCKED: ATOM     19  C   UNL     1     141.694  76.723 214.077 -0.03 -0.08    +0.181 C  
DOCKED: ATOM     20  C   UNL     1     143.400  77.300 215.830 -0.11 -0.17    +0.181 C  
DOCKED: ATOM     21  N   UNL     1     142.156  77.638 215.125 -0.06 +0.23    -0.327 N  
DOCKED: ATOM     22  C   UNL     1     144.802  77.940 213.230 -0.01 -0.39    +0.332 C  
DOCKED: ATOM     23  H   UNL     1     144.763  75.907 213.049 +0.04 -0.17    +0.347 HD 
DOCKED: ATOM     24  O   UNL     1     140.953  79.473 214.323 -0.02 +0.14    -0.269 OA 
DOCKED: ENDBRANCH  10  15
DOCKED: ENDBRANCH   8   9
DOCKED: BRANCH   8  25
DOCKED: ATOM     25  C   UNL     1     141.902  78.312 221.148 -0.20 -0.10    +0.153 CG0
DOCKED: ATOM     26  G   UNL     1     142.013  79.084 222.421 +0.00 +0.00    +0.000 G0 
DOCKED: ENDBRANCH   8  25
DOCKED: ENDBRANCH   7   8
DOCKED: ENDBRANCH   1   7
DOCKED: BRANCH   6  27
DOCKED: ATOM     27  N   UNL     1     141.027  79.138 223.267 -0.32 +0.06    -0.216 NA 
DOCKED: BRANCH  27  28
DOCKED: ATOM     28  C   UNL     1     142.013  79.082 222.423 -0.39 -0.09    +0.192 CG0
DOCKED: ATOM     29  G   UNL     1     141.902  78.313 221.149 +0.00 +0.00    +0.000 G0 
DOCKED: BRANCH  28  30
DOCKED: ATOM     30  O   UNL     1     143.192  79.768 222.700 -0.26 +0.23    -0.496 OA 
DOCKED: ATOM     31  H   UNL     1     144.046  79.563 222.197 -0.36 -0.23    +0.294 HD 
DOCKED: ENDBRANCH  28  30
DOCKED: ENDBRANCH  27  28
DOCKED: ENDBRANCH   6  27
DOCKED: BRANCH   4  32
DOCKED: ATOM     32  C   UNL     1     137.082  81.336 225.127 -0.36 +0.01    -0.062 C  
DOCKED: BRANCH  32  33
DOCKED: ATOM     33  C   UNL     1     136.531  81.824 226.082 -0.40 +0.01    -0.062 C  
DOCKED: BRANCH  33  34
DOCKED: ATOM     34  C   UNL     1     135.869  82.395 227.225 -0.40 -0.00    +0.025 A  
DOCKED: ATOM     35  C   UNL     1     135.410  83.719 227.180 -0.27 -0.00    +0.017 A  
DOCKED: ATOM     36  C   UNL     1     135.695  81.635 228.389 -0.47 -0.01    +0.017 A  
DOCKED: ATOM     37  C   UNL     1     134.782  84.280 228.297 -0.27 +0.00    +0.001 A  
DOCKED: ATOM     38  C   UNL     1     135.069  82.198 229.505 -0.52 -0.00    +0.001 A  
DOCKED: ATOM     39  C   UNL     1     134.611  83.519 229.460 -0.29 +0.00    +0.000 A  
DOCKED: ENDBRANCH  33  34
DOCKED: ENDBRANCH  32  33
DOCKED: ENDBRANCH   4  32
DOCKED: TORSDOF 6
DOCKED: TER
DOCKED: ENDMDL
________________________________________________________________________________


    FINAL DOCKED STATE:
    ________________________


Run:   11 / 20
Time taken for this run:   0.049s

DOCKED: MODEL        11
DOCKED: USER    Run = 11
DOCKED: USER
DOCKED: USER    Estimated Free Energy of Binding    =  -5.55 kcal/mol  [=(1)+(2)+(3)-(4)]
DOCKED: USER
DOCKED: USER    (1) Final Intermolecular Energy     =  -8.83 kcal/mol
DOCKED: USER        vdW + Hbond + desolv Energy     =  -8.71 kcal/mol
DOCKED: USER        Electrostatic Energy            =  -0.29 kcal/mol
DOCKED: USER        Moving Ligand-Fixed Receptor    =  -9.00 kcal/mol
DOCKED: USER        Moving Ligand-Moving Receptor   =  +0.17 kcal/mol
DOCKED: USER    (2) Final Total Internal Energy     =  -1.18 kcal/mol
DOCKED: USER    (3) Torsional Free Energy           =  +3.28 kcal/mol
DOCKED: USER    (4) Unbound System's Energy         =  -1.18 kcal/mol
DOCKED: USER
DOCKED: USER
DOCKED: REMARK SMILES C[NH+]1CCN(C(=O)c2cccc(C3=Nc4ccc(C#Cc5ccccc5)cc4N=C(O)C3)c2)CC1
DOCKED: REMARK SMILES IDX 15 1 16 2 17 3 18 4 27 5 28 6 14 7 13 8 12 9 8 10 9 11 33 12
DOCKED: REMARK SMILES IDX 10 13 11 14 6 15 2 16 3 17 35 18 4 19 34 20 5 21 1 22 7 24
DOCKED: REMARK SMILES IDX 32 25 29 27 30 28 31 30 19 32 20 33 21 34 22 35 26 36 23 37
DOCKED: REMARK SMILES IDX 25 38 24 39
DOCKED: REMARK H PARENT 2 23 31 31
DOCKED: REMARK Flexibility Score:  140.900
DOCKED: USER                              x       y       z     vdW  Elec       q    Type
DOCKED: USER                           _______ _______ _______ _____ _____    ______ ____
DOCKED: ROOT
DOCKED: ATOM      1  C   UNL     1     139.055  79.820 222.362 -0.22 -0.02    +0.089 A  
DOCKED: ATOM      2  C   UNL     1     137.729  79.430 222.594 -0.20 -0.00    +0.032 A  
DOCKED: ATOM      3  C   UNL     1     137.020  79.919 223.692 -0.22 -0.00    +0.019 A  
DOCKED: ATOM      4  C   UNL     1     137.642  80.782 224.597 -0.37 -0.00    +0.027 A  
DOCKED: ATOM      5  C   UNL     1     138.975  81.161 224.398 +0.04 -0.00    +0.048 A  
DOCKED: ATOM      6  C   UNL     1     139.690  80.703 223.282 -0.34 -0.01    +0.094 A  
DOCKED: ENDROOT
DOCKED: BRANCH   1   7
DOCKED: ATOM      7  N   UNL     1     139.734  79.219 221.246 -0.06 +0.07    -0.250 NA 
DOCKED: BRANCH   7   8
DOCKED: ATOM      8  C   UNL     1     140.976  78.834 221.194 -0.29 -0.02    +0.058 C  
DOCKED: BRANCH   8   9
DOCKED: ATOM      9  C   UNL     1     141.272  77.412 220.884 -0.30 +0.00    -0.003 A  
DOCKED: ATOM     10  C   UNL     1     140.722  75.039 221.119 -0.28 -0.01    +0.040 A  
DOCKED: ATOM     11  C   UNL     1     141.797  74.715 220.281 -0.25 -0.00    +0.014 A  
DOCKED: ATOM     12  C   UNL     1     140.476  76.388 221.433 -0.32 -0.01    +0.023 A  
DOCKED: ATOM     13  C   UNL     1     142.609  75.724 219.753 -0.33 -0.00    +0.002 A  
DOCKED: ATOM     14  C   UNL     1     142.347  77.064 220.048 -0.32 -0.01    +0.010 A  
DOCKED: BRANCH  10  15
DOCKED: ATOM     15  C   UNL     1     139.867  73.975 221.686 -0.18 -0.04    +0.254 C  
DOCKED: ATOM     16  N   UNL     1     135.971  73.751 221.996 -0.04 +0.07    -0.334 N  
DOCKED: ATOM     17  C   UNL     1     136.706  72.466 222.185 -0.07 -0.07    +0.283 C  
DOCKED: ATOM     18  C   UNL     1     136.255  74.388 220.688 -0.02 -0.05    +0.283 C  
DOCKED: ATOM     19  C   UNL     1     137.980  72.339 221.319 -0.08 -0.04    +0.181 C  
DOCKED: ATOM     20  C   UNL     1     137.753  74.708 220.513 -0.06 -0.04    +0.181 C  
DOCKED: ATOM     21  N   UNL     1     138.586  73.658 221.114 -0.06 +0.07    -0.327 N  
DOCKED: ATOM     22  C   UNL     1     136.217  74.689 223.116 -0.07 -0.10    +0.332 C  
DOCKED: ATOM     23  H   UNL     1     134.942  73.535 222.016 +0.05 -0.06    +0.347 HD 
DOCKED: ATOM     24  O   UNL     1     140.266  73.349 222.707 -0.72 -0.01    -0.269 OA 
DOCKED: ENDBRANCH  10  15
DOCKED: ENDBRANCH   8   9
DOCKED: BRANCH   8  25
DOCKED: ATOM     25  C   UNL     1     142.088  79.830 221.364 -0.26 -0.08    +0.153 CG0
DOCKED: ATOM     26  G   UNL     1     142.060  80.364 222.757 +0.00 +0.00    +0.000 G0 
DOCKED: ENDBRANCH   8  25
DOCKED: ENDBRANCH   7   8
DOCKED: ENDBRANCH   1   7
DOCKED: BRANCH   6  27
DOCKED: ATOM     27  N   UNL     1     141.071  81.095 223.179 -0.30 +0.03    -0.216 NA 
DOCKED: BRANCH  27  28
DOCKED: ATOM     28  C   UNL     1     142.058  80.363 222.757 -0.46 -0.05    +0.192 CG0
DOCKED: ATOM     29  G   UNL     1     142.089  79.830 221.364 +0.00 +0.00    +0.000 G0 
DOCKED: BRANCH  28  30
DOCKED: ATOM     30  O   UNL     1     143.119  80.085 223.614 -0.23 +0.14    -0.496 OA 
DOCKED: ATOM     31  H   UNL     1     143.198  80.543 224.514 +0.25 -0.05    +0.294 HD 
DOCKED: ENDBRANCH  28  30
DOCKED: ENDBRANCH  27  28
DOCKED: ENDBRANCH   6  27
DOCKED: BRANCH   4  32
DOCKED: ATOM     32  C   UNL     1     136.912  81.283 225.733 -0.38 +0.01    -0.062 C  
DOCKED: BRANCH  32  33
DOCKED: ATOM     33  C   UNL     1     136.300  81.693 226.687 -0.42 +0.01    -0.062 C  
DOCKED: BRANCH  33  34
DOCKED: ATOM     34  C   UNL     1     135.565  82.172 227.828 -0.40 -0.01    +0.025 A  
DOCKED: ATOM     35  C   UNL     1     135.857  81.678 229.108 -0.48 -0.01    +0.017 A  
DOCKED: ATOM     36  C   UNL     1     134.547  83.120 227.662 -0.21 -0.00    +0.017 A  
DOCKED: ATOM     37  C   UNL     1     135.132  82.131 230.215 -0.56 -0.00    +0.001 A  
DOCKED: ATOM     38  C   UNL     1     133.822  83.570 228.769 -0.21 +0.00    +0.001 A  
DOCKED: ATOM     39  C   UNL     1     134.114  83.076 230.046 -0.31 +0.00    +0.000 A  
DOCKED: ENDBRANCH  33  34
DOCKED: ENDBRANCH  32  33
DOCKED: ENDBRANCH   4  32
DOCKED: TORSDOF 6
DOCKED: TER
DOCKED: ENDMDL
________________________________________________________________________________


    FINAL DOCKED STATE:
    ________________________


Run:   12 / 20
Time taken for this run:   0.049s

DOCKED: MODEL        12
DOCKED: USER    Run = 12
DOCKED: USER
DOCKED: USER    Estimated Free Energy of Binding    =  -5.64 kcal/mol  [=(1)+(2)+(3)-(4)]
DOCKED: USER
DOCKED: USER    (1) Final Intermolecular Energy     =  -8.92 kcal/mol
DOCKED: USER        vdW + Hbond + desolv Energy     =  -9.39 kcal/mol
DOCKED: USER        Electrostatic Energy            =  -0.15 kcal/mol
DOCKED: USER        Moving Ligand-Fixed Receptor    =  -9.54 kcal/mol
DOCKED: USER        Moving Ligand-Moving Receptor   =  +0.62 kcal/mol
DOCKED: USER    (2) Final Total Internal Energy     =  -1.12 kcal/mol
DOCKED: USER    (3) Torsional Free Energy           =  +3.28 kcal/mol
DOCKED: USER    (4) Unbound System's Energy         =  -1.12 kcal/mol
DOCKED: USER
DOCKED: USER
DOCKED: REMARK SMILES C[NH+]1CCN(C(=O)c2cccc(C3=Nc4ccc(C#Cc5ccccc5)cc4N=C(O)C3)c2)CC1
DOCKED: REMARK SMILES IDX 15 1 16 2 17 3 18 4 27 5 28 6 14 7 13 8 12 9 8 10 9 11 33 12
DOCKED: REMARK SMILES IDX 10 13 11 14 6 15 2 16 3 17 35 18 4 19 34 20 5 21 1 22 7 24
DOCKED: REMARK SMILES IDX 32 25 29 27 30 28 31 30 19 32 20 33 21 34 22 35 26 36 23 37
DOCKED: REMARK SMILES IDX 25 38 24 39
DOCKED: REMARK H PARENT 2 23 31 31
DOCKED: REMARK Flexibility Score:  140.900
DOCKED: USER                              x       y       z     vdW  Elec       q    Type
DOCKED: USER                           _______ _______ _______ _____ _____    ______ ____
DOCKED: ROOT
DOCKED: ATOM      1  C   UNL     1     140.780  74.000 220.188 -0.13 -0.02    +0.089 A  
DOCKED: ATOM      2  C   UNL     1     139.643  74.057 221.006 -0.19 -0.01    +0.032 A  
DOCKED: ATOM      3  C   UNL     1     139.552  73.282 222.162 -0.25 -0.00    +0.019 A  
DOCKED: ATOM      4  C   UNL     1     140.587  72.407 222.500 -0.31 -0.00    +0.027 A  
DOCKED: ATOM      5  C   UNL     1     141.719  72.315 221.681 -0.13 -0.00    +0.048 A  
DOCKED: ATOM      6  C   UNL     1     141.840  73.112 220.533 -0.19 -0.02    +0.094 A  
DOCKED: ENDROOT
DOCKED: BRANCH   1   7
DOCKED: ATOM      7  N   UNL     1     140.766  74.782 218.982 -0.02 +0.07    -0.250 NA 
DOCKED: BRANCH   7   8
DOCKED: ATOM      8  C   UNL     1     141.785  75.329 218.385 -0.10 -0.02    +0.058 C  
DOCKED: BRANCH   8   9
DOCKED: ATOM      9  C   UNL     1     141.865  76.810 218.319 -0.19 +0.00    -0.003 A  
DOCKED: ATOM     10  C   UNL     1     141.825  78.981 219.447 -0.27 -0.02    +0.040 A  
DOCKED: ATOM     11  C   UNL     1     142.046  79.615 218.217 -0.29 -0.01    +0.014 A  
DOCKED: ATOM     12  C   UNL     1     141.715  77.579 219.489 -0.25 -0.01    +0.023 A  
DOCKED: ATOM     13  C   UNL     1     142.170  78.861 217.047 -0.24 -0.00    +0.002 A  
DOCKED: ATOM     14  C   UNL     1     142.084  77.467 217.096 -0.18 -0.01    +0.010 A  
DOCKED: BRANCH  10  15
DOCKED: ATOM     15  C   UNL     1     141.685  79.775 220.685 -0.21 -0.12    +0.254 C  
DOCKED: ATOM     16  N   UNL     1     138.778  79.893 223.306 -0.16 +0.05    -0.334 N  
DOCKED: ATOM     17  C   UNL     1     140.072  80.488 223.753 -0.21 -0.04    +0.283 C  
DOCKED: ATOM     18  C   UNL     1     138.913  78.477 222.886 -0.17 -0.05    +0.283 C  
DOCKED: ATOM     19  C   UNL     1     141.320  79.776 223.184 -0.43 -0.05    +0.181 C  
DOCKED: ATOM     20  C   UNL     1     139.901  78.311 221.715 -0.20 -0.05    +0.181 C  
DOCKED: ATOM     21  N   UNL     1     141.032  79.239 221.850 -0.14 +0.12    -0.327 N  
DOCKED: ATOM     22  C   UNL     1     138.140  80.709 222.248 -0.09 -0.05    +0.332 C  
DOCKED: ATOM     23  H   UNL     1     138.120  79.909 224.125 +0.16 -0.04    +0.347 HD 
DOCKED: ATOM     24  O   UNL     1     142.131  80.956 220.709 -0.23 +0.10    -0.269 OA 
DOCKED: ENDBRANCH  10  15
DOCKED: ENDBRANCH   8   9
DOCKED: BRANCH   8  25
DOCKED: ATOM     25  C   UNL     1     142.898  74.474 217.845 -0.09 -0.05    +0.153 CG0
DOCKED: ATOM     26  G   UNL     1     143.601  73.810 218.982 +0.00 +0.00    +0.000 G0 
DOCKED: ENDBRANCH   8  25
DOCKED: ENDBRANCH   7   8
DOCKED: ENDBRANCH   1   7
DOCKED: BRANCH   6  27
DOCKED: ATOM     27  N   UNL     1     143.008  72.917 219.717 -0.10 +0.04    -0.216 NA 
DOCKED: BRANCH  27  28
DOCKED: ATOM     28  C   UNL     1     143.599  73.809 218.980 -0.15 -0.05    +0.192 CG0
DOCKED: ATOM     29  G   UNL     1     142.894  74.466 217.841 +0.00 +0.00    +0.000 G0 
DOCKED: BRANCH  28  30
DOCKED: ATOM     30  O   UNL     1     144.911  74.175 219.267 +0.00 +0.16    -0.496 OA 
DOCKED: ATOM     31  H   UNL     1     145.641  74.090 218.571 -0.36 -0.07    +0.294 HD 
DOCKED: ENDBRANCH  28  30
DOCKED: ENDBRANCH  27  28
DOCKED: ENDBRANCH   6  27
DOCKED: BRANCH   4  32
DOCKED: ATOM     32  C   UNL     1     140.492  71.603 223.691 -0.33 +0.01    -0.062 C  
DOCKED: BRANCH  32  33
DOCKED: ATOM     33  C   UNL     1     140.402  70.927 224.685 -0.45 +0.01    -0.062 C  
DOCKED: BRANCH  33  34
DOCKED: ATOM     34  C   UNL     1     140.300  70.128 225.878 -0.50 -0.00    +0.025 A  
DOCKED: ATOM     35  C   UNL     1     140.436  70.728 227.138 -0.62 -0.00    +0.017 A  
DOCKED: ATOM     36  C   UNL     1     140.079  68.747 225.783 -0.49 -0.00    +0.017 A  
DOCKED: ATOM     37  C   UNL     1     140.353  69.950 228.297 -0.59 -0.00    +0.001 A  
DOCKED: ATOM     38  C   UNL     1     139.999  67.971 226.942 -0.66 -0.00    +0.001 A  
DOCKED: ATOM     39  C   UNL     1     140.135  68.571 228.199 -0.65 -0.00    +0.000 A  
DOCKED: ENDBRANCH  33  34
DOCKED: ENDBRANCH  32  33
DOCKED: ENDBRANCH   4  32
DOCKED: TORSDOF 6
DOCKED: TER
DOCKED: ENDMDL
________________________________________________________________________________


    FINAL DOCKED STATE:
    ________________________


Run:   13 / 20
Time taken for this run:   0.049s

DOCKED: MODEL        13
DOCKED: USER    Run = 13
DOCKED: USER
DOCKED: USER    Estimated Free Energy of Binding    =  -5.78 kcal/mol  [=(1)+(2)+(3)-(4)]
DOCKED: USER
DOCKED: USER    (1) Final Intermolecular Energy     =  -9.06 kcal/mol
DOCKED: USER        vdW + Hbond + desolv Energy     =  -8.85 kcal/mol
DOCKED: USER        Electrostatic Energy            =  -0.74 kcal/mol
DOCKED: USER        Moving Ligand-Fixed Receptor    =  -9.58 kcal/mol
DOCKED: USER        Moving Ligand-Moving Receptor   =  +0.52 kcal/mol
DOCKED: USER    (2) Final Total Internal Energy     =  -0.96 kcal/mol
DOCKED: USER    (3) Torsional Free Energy           =  +3.28 kcal/mol
DOCKED: USER    (4) Unbound System's Energy         =  -0.96 kcal/mol
DOCKED: USER
DOCKED: USER
DOCKED: REMARK SMILES C[NH+]1CCN(C(=O)c2cccc(C3=Nc4ccc(C#Cc5ccccc5)cc4N=C(O)C3)c2)CC1
DOCKED: REMARK SMILES IDX 15 1 16 2 17 3 18 4 27 5 28 6 14 7 13 8 12 9 8 10 9 11 33 12
DOCKED: REMARK SMILES IDX 10 13 11 14 6 15 2 16 3 17 35 18 4 19 34 20 5 21 1 22 7 24
DOCKED: REMARK SMILES IDX 32 25 29 27 30 28 31 30 19 32 20 33 21 34 22 35 26 36 23 37
DOCKED: REMARK SMILES IDX 25 38 24 39
DOCKED: REMARK H PARENT 2 23 31 31
DOCKED: REMARK Flexibility Score:  140.900
DOCKED: USER                              x       y       z     vdW  Elec       q    Type
DOCKED: USER                           _______ _______ _______ _____ _____    ______ ____
DOCKED: ROOT
DOCKED: ATOM      1  C   UNL     1     142.048  74.912 221.011 -0.22 -0.03    +0.089 A  
DOCKED: ATOM      2  C   UNL     1     143.352  74.742 220.527 -0.30 -0.01    +0.032 A  
DOCKED: ATOM      3  C   UNL     1     143.836  73.475 220.201 -0.36 -0.00    +0.019 A  
DOCKED: ATOM      4  C   UNL     1     143.030  72.349 220.388 -0.26 -0.00    +0.027 A  
DOCKED: ATOM      5  C   UNL     1     141.734  72.496 220.897 -0.22 -0.01    +0.048 A  
DOCKED: ATOM      6  C   UNL     1     141.222  73.766 221.199 -0.25 -0.01    +0.094 A  
DOCKED: ENDROOT
DOCKED: BRANCH   1   7
DOCKED: ATOM      7  N   UNL     1     141.651  76.242 221.385 +0.02 +0.13    -0.250 NA 
DOCKED: BRANCH   7   8
DOCKED: ATOM      8  C   UNL     1     140.448  76.740 221.369 -0.29 -0.02    +0.058 C  
DOCKED: BRANCH   8   9
DOCKED: ATOM      9  C   UNL     1     140.235  78.114 221.890 -0.31 +0.00    -0.003 A  
DOCKED: ATOM     10  C   UNL     1     140.479  80.534 221.628 -0.26 -0.01    +0.040 A  
DOCKED: ATOM     11  C   UNL     1     139.810  80.726 222.845 -0.35 -0.00    +0.014 A  
DOCKED: ATOM     12  C   UNL     1     140.706  79.225 221.165 -0.25 -0.01    +0.023 A  
DOCKED: ATOM     13  C   UNL     1     139.362  79.626 223.583 -0.42 -0.00    +0.002 A  
DOCKED: ATOM     14  C   UNL     1     139.569  78.329 223.109 -0.29 -0.00    +0.010 A  
DOCKED: BRANCH  10  15
DOCKED: ATOM     15  C   UNL     1     140.962  81.693 220.848 -0.21 -0.06    +0.254 C  
DOCKED: ATOM     16  N   UNL     1     141.806  82.010 217.038 -0.07 +0.20    -0.334 N  
DOCKED: ATOM     17  C   UNL     1     141.642  83.301 217.770 -0.11 -0.11    +0.283 C  
DOCKED: ATOM     18  C   UNL     1     140.609  81.139 217.136 -0.04 -0.13    +0.283 C  
DOCKED: ATOM     19  C   UNL     1     140.587  83.252 218.898 -0.12 -0.05    +0.181 C  
DOCKED: ATOM     20  C   UNL     1     140.274  80.777 218.596 -0.07 -0.07    +0.181 C  
DOCKED: ATOM     21  N   UNL     1     140.540  81.912 219.491 -0.07 +0.10    -0.327 N  
DOCKED: ATOM     22  C   UNL     1     143.030  81.294 217.466 -0.10 -0.37    +0.332 C  
DOCKED: ATOM     23  H   UNL     1     141.939  82.236 216.020 +0.08 -0.23    +0.347 HD 
DOCKED: ATOM     24  O   UNL     1     141.778  82.494 221.383 -0.24 +0.05    -0.269 OA 
DOCKED: ENDBRANCH  10  15
DOCKED: ENDBRANCH   8   9
DOCKED: BRANCH   8  25
DOCKED: ATOM     25  C   UNL     1     139.314  75.964 220.759 -0.13 -0.04    +0.153 CG0
DOCKED: ATOM     26  G   UNL     1     139.025  74.770 221.605 +0.00 +0.00    +0.000 G0 
DOCKED: ENDBRANCH   8  25
DOCKED: ENDBRANCH   7   8
DOCKED: ENDBRANCH   1   7
DOCKED: BRANCH   6  27
DOCKED: ATOM     27  N   UNL     1     139.903  73.826 221.769 -0.54 +0.03    -0.216 NA 
DOCKED: BRANCH  27  28
DOCKED: ATOM     28  C   UNL     1     139.025  74.770 221.603 -0.19 -0.04    +0.192 CG0
DOCKED: ATOM     29  G   UNL     1     139.317  75.961 220.753 +0.00 +0.00    +0.000 G0 
DOCKED: BRANCH  28  30
DOCKED: ATOM     30  O   UNL     1     137.779  74.662 222.214 -0.07 +0.16    -0.496 OA 
DOCKED: ATOM     31  H   UNL     1     137.683  74.258 223.138 -0.39 -0.21    +0.294 HD 
DOCKED: ENDBRANCH  28  30
DOCKED: ENDBRANCH  27  28
DOCKED: ENDBRANCH   6  27
DOCKED: BRANCH   4  32
DOCKED: ATOM     32  C   UNL     1     143.530  71.041 220.056 -0.22 +0.00    -0.062 C  
DOCKED: BRANCH  32  33
DOCKED: ATOM     33  C   UNL     1     143.959  69.949 219.778 -0.20 -0.00    -0.062 C  
DOCKED: BRANCH  33  34
DOCKED: ATOM     34  C   UNL     1     144.467  68.646 219.435 -0.32 +0.00    +0.025 A  
DOCKED: ATOM     35  C   UNL     1     145.851  68.421 219.399 -0.46 +0.00    +0.017 A  
DOCKED: ATOM     36  C   UNL     1     143.582  67.606 219.124 -0.26 -0.00    +0.017 A  
DOCKED: ATOM     37  C   UNL     1     146.345  67.161 219.049 -0.53 -0.00    +0.001 A  
DOCKED: ATOM     38  C   UNL     1     144.079  66.347 218.773 -0.37 -0.00    +0.001 A  
DOCKED: ATOM     39  C   UNL     1     145.460  66.123 218.736 -0.44 -0.00    +0.000 A  
DOCKED: ENDBRANCH  33  34
DOCKED: ENDBRANCH  32  33
DOCKED: ENDBRANCH   4  32
DOCKED: TORSDOF 6
DOCKED: TER
DOCKED: ENDMDL
________________________________________________________________________________


    FINAL DOCKED STATE:
    ________________________


Run:   14 / 20
Time taken for this run:   0.049s

DOCKED: MODEL        14
DOCKED: USER    Run = 14
DOCKED: USER
DOCKED: USER    Estimated Free Energy of Binding    =  -5.60 kcal/mol  [=(1)+(2)+(3)-(4)]
DOCKED: USER
DOCKED: USER    (1) Final Intermolecular Energy     =  -8.88 kcal/mol
DOCKED: USER        vdW + Hbond + desolv Energy     =  -8.97 kcal/mol
DOCKED: USER        Electrostatic Energy            =  -0.39 kcal/mol
DOCKED: USER        Moving Ligand-Fixed Receptor    =  -9.35 kcal/mol
DOCKED: USER        Moving Ligand-Moving Receptor   =  +0.47 kcal/mol
DOCKED: USER    (2) Final Total Internal Energy     =  -1.19 kcal/mol
DOCKED: USER    (3) Torsional Free Energy           =  +3.28 kcal/mol
DOCKED: USER    (4) Unbound System's Energy         =  -1.19 kcal/mol
DOCKED: USER
DOCKED: USER
DOCKED: REMARK SMILES C[NH+]1CCN(C(=O)c2cccc(C3=Nc4ccc(C#Cc5ccccc5)cc4N=C(O)C3)c2)CC1
DOCKED: REMARK SMILES IDX 15 1 16 2 17 3 18 4 27 5 28 6 14 7 13 8 12 9 8 10 9 11 33 12
DOCKED: REMARK SMILES IDX 10 13 11 14 6 15 2 16 3 17 35 18 4 19 34 20 5 21 1 22 7 24
DOCKED: REMARK SMILES IDX 32 25 29 27 30 28 31 30 19 32 20 33 21 34 22 35 26 36 23 37
DOCKED: REMARK SMILES IDX 25 38 24 39
DOCKED: REMARK H PARENT 2 23 31 31
DOCKED: REMARK Flexibility Score:  140.900
DOCKED: USER                              x       y       z     vdW  Elec       q    Type
DOCKED: USER                           _______ _______ _______ _____ _____    ______ ____
DOCKED: ROOT
DOCKED: ATOM      1  C   UNL     1     140.908  73.745 219.883 -0.10 -0.02    +0.089 A  
DOCKED: ATOM      2  C   UNL     1     139.784  73.920 220.701 -0.16 -0.01    +0.032 A  
DOCKED: ATOM      3  C   UNL     1     139.676  73.253 221.922 -0.27 -0.00    +0.019 A  
DOCKED: ATOM      4  C   UNL     1     140.679  72.370 222.328 -0.31 -0.00    +0.027 A  
DOCKED: ATOM      5  C   UNL     1     141.796  72.159 221.511 -0.19 -0.00    +0.048 A  
DOCKED: ATOM      6  C   UNL     1     141.935  72.847 220.296 -0.17 -0.02    +0.094 A  
DOCKED: ENDROOT
DOCKED: BRANCH   1   7
DOCKED: ATOM      7  N   UNL     1     140.911  74.417 218.612 -0.01 +0.06    -0.250 NA 
DOCKED: BRANCH   7   8
DOCKED: ATOM      8  C   UNL     1     141.944  74.869 217.962 -0.07 -0.02    +0.058 C  
DOCKED: BRANCH   8   9
DOCKED: ATOM      9  C   UNL     1     142.081  76.335 217.766 -0.15 +0.00    -0.003 A  
DOCKED: ATOM     10  C   UNL     1     141.615  78.619 218.509 -0.21 -0.02    +0.040 A  
DOCKED: ATOM     11  C   UNL     1     142.358  79.114 217.429 -0.27 -0.01    +0.014 A  
DOCKED: ATOM     12  C   UNL     1     141.464  77.229 218.662 -0.17 -0.01    +0.023 A  
DOCKED: ATOM     13  C   UNL     1     142.952  78.234 216.520 -0.09 -0.00    +0.002 A  
DOCKED: ATOM     14  C   UNL     1     142.819  76.853 216.688 -0.21 -0.01    +0.010 A  
DOCKED: BRANCH  10  15
DOCKED: ATOM     15  C   UNL     1     140.978  79.546 219.468 -0.12 -0.11    +0.254 C  
DOCKED: ATOM     16  N   UNL     1     140.035  79.044 223.235 -0.19 +0.06    -0.334 N  
DOCKED: ATOM     17  C   UNL     1     140.050  80.458 222.758 -0.22 -0.05    +0.283 C  
DOCKED: ATOM     18  C   UNL     1     141.332  78.355 223.028 -0.33 -0.10    +0.283 C  
DOCKED: ATOM     19  C   UNL     1     141.123  80.747 221.685 -0.29 -0.05    +0.181 C  
DOCKED: ATOM     20  C   UNL     1     141.735  78.314 221.540 -0.24 -0.11    +0.181 C  
DOCKED: ATOM     21  N   UNL     1     141.346  79.556 220.859 -0.13 +0.14    -0.327 N  
DOCKED: ATOM     22  C   UNL     1     138.917  78.279 222.634 -0.16 -0.06    +0.332 C  
DOCKED: ATOM     23  H   UNL     1     139.857  79.058 224.270 +0.23 -0.04    +0.347 HD 
DOCKED: ATOM     24  O   UNL     1     140.079  80.330 219.056 -0.04 +0.09    -0.269 OA 
DOCKED: ENDBRANCH  10  15
DOCKED: ENDBRANCH   8   9
DOCKED: BRANCH   8  25
DOCKED: ATOM     25  C   UNL     1     143.017  73.928 217.491 -0.06 -0.04    +0.153 CG0
DOCKED: ATOM     26  G   UNL     1     143.705  73.336 218.676 +0.00 +0.00    +0.000 G0 
DOCKED: ENDBRANCH   8  25
DOCKED: ENDBRANCH   7   8
DOCKED: ENDBRANCH   1   7
DOCKED: BRANCH   6  27
DOCKED: ATOM     27  N   UNL     1     143.084  72.533 219.490 -0.08 +0.03    -0.216 NA 
DOCKED: BRANCH  27  28
DOCKED: ATOM     28  C   UNL     1     143.707  73.334 218.678 -0.11 -0.03    +0.192 CG0
DOCKED: ATOM     29  G   UNL     1     143.018  73.930 217.496 +0.00 +0.00    +0.000 G0 
DOCKED: BRANCH  28  30
DOCKED: ATOM     30  O   UNL     1     145.038  73.659 218.923 -0.10 +0.05    -0.496 OA 
DOCKED: ATOM     31  H   UNL     1     145.551  74.264 218.294 -0.40 -0.12    +0.294 HD 
DOCKED: ENDBRANCH  28  30
DOCKED: ENDBRANCH  27  28
DOCKED: ENDBRANCH   6  27
DOCKED: BRANCH   4  32
DOCKED: ATOM     32  C   UNL     1     140.565  71.678 223.585 -0.30 +0.01    -0.062 C  
DOCKED: BRANCH  32  33
DOCKED: ATOM     33  C   UNL     1     140.477  71.104 224.642 -0.45 +0.01    -0.062 C  
DOCKED: BRANCH  33  34
DOCKED: ATOM     34  C   UNL     1     140.384  70.416 225.903 -0.53 -0.00    +0.025 A  
DOCKED: ATOM     35  C   UNL     1     140.518  71.130 227.102 -0.67 -0.00    +0.017 A  
DOCKED: ATOM     36  C   UNL     1     140.175  69.031 225.934 -0.50 -0.00    +0.017 A  
DOCKED: ATOM     37  C   UNL     1     140.444  70.459 228.327 -0.59 -0.00    +0.001 A  
DOCKED: ATOM     38  C   UNL     1     140.104  68.362 227.160 -0.65 -0.00    +0.001 A  
DOCKED: ATOM     39  C   UNL     1     140.238  69.075 228.356 -0.65 -0.00    +0.000 A  
DOCKED: ENDBRANCH  33  34
DOCKED: ENDBRANCH  32  33
DOCKED: ENDBRANCH   4  32
DOCKED: TORSDOF 6
DOCKED: TER
DOCKED: ENDMDL
________________________________________________________________________________


    FINAL DOCKED STATE:
    ________________________


Run:   15 / 20
Time taken for this run:   0.049s

DOCKED: MODEL        15
DOCKED: USER    Run = 15
DOCKED: USER
DOCKED: USER    Estimated Free Energy of Binding    =  -4.68 kcal/mol  [=(1)+(2)+(3)-(4)]
DOCKED: USER
DOCKED: USER    (1) Final Intermolecular Energy     =  -7.96 kcal/mol
DOCKED: USER        vdW + Hbond + desolv Energy     =  -7.50 kcal/mol
DOCKED: USER        Electrostatic Energy            =  -0.81 kcal/mol
DOCKED: USER        Moving Ligand-Fixed Receptor    =  -8.31 kcal/mol
DOCKED: USER        Moving Ligand-Moving Receptor   =  +0.35 kcal/mol
DOCKED: USER    (2) Final Total Internal Energy     =  -1.13 kcal/mol
DOCKED: USER    (3) Torsional Free Energy           =  +3.28 kcal/mol
DOCKED: USER    (4) Unbound System's Energy         =  -1.13 kcal/mol
DOCKED: USER
DOCKED: USER
DOCKED: REMARK SMILES C[NH+]1CCN(C(=O)c2cccc(C3=Nc4ccc(C#Cc5ccccc5)cc4N=C(O)C3)c2)CC1
DOCKED: REMARK SMILES IDX 15 1 16 2 17 3 18 4 27 5 28 6 14 7 13 8 12 9 8 10 9 11 33 12
DOCKED: REMARK SMILES IDX 10 13 11 14 6 15 2 16 3 17 35 18 4 19 34 20 5 21 1 22 7 24
DOCKED: REMARK SMILES IDX 32 25 29 27 30 28 31 30 19 32 20 33 21 34 22 35 26 36 23 37
DOCKED: REMARK SMILES IDX 25 38 24 39
DOCKED: REMARK H PARENT 2 23 31 31
DOCKED: REMARK Flexibility Score:  140.900
DOCKED: USER                              x       y       z     vdW  Elec       q    Type
DOCKED: USER                           _______ _______ _______ _____ _____    ______ ____
DOCKED: ROOT
DOCKED: ATOM      1  C   UNL     1     142.499  74.369 220.387 -0.26 -0.03    +0.089 A  
DOCKED: ATOM      2  C   UNL     1     141.250  74.998 220.291 -0.21 -0.01    +0.032 A  
DOCKED: ATOM      3  C   UNL     1     141.148  76.327 219.881 -0.19 -0.01    +0.019 A  
DOCKED: ATOM      4  C   UNL     1     142.301  77.061 219.591 -0.32 -0.02    +0.027 A  
DOCKED: ATOM      5  C   UNL     1     143.559  76.458 219.708 -0.34 -0.04    +0.048 A  
DOCKED: ATOM      6  C   UNL     1     143.677  75.114 220.089 -0.36 -0.05    +0.094 A  
DOCKED: ENDROOT
DOCKED: BRANCH   1   7
DOCKED: ATOM      7  N   UNL     1     142.522  73.019 220.881 -0.15 +0.04    -0.250 NA 
DOCKED: BRANCH   7   8
DOCKED: ATOM      8  C   UNL     1     143.368  72.080 220.571 -0.27 -0.01    +0.058 C  
DOCKED: BRANCH   8   9
DOCKED: ATOM      9  C   UNL     1     142.875  70.885 219.841 -0.18 +0.00    -0.003 A  
DOCKED: ATOM     10  C   UNL     1     143.329  68.769 218.699 -0.16 -0.01    +0.040 A  
DOCKED: ATOM     11  C   UNL     1     141.955  68.597 218.487 -0.10 -0.00    +0.014 A  
DOCKED: ATOM     12  C   UNL     1     143.785  69.925 219.359 -0.21 +0.00    +0.023 A  
DOCKED: ATOM     13  C   UNL     1     141.046  69.558 218.940 -0.08 -0.00    +0.002 A  
DOCKED: ATOM     14  C   UNL     1     141.501  70.693 219.616 -0.11 -0.00    +0.010 A  
DOCKED: BRANCH  10  15
DOCKED: ATOM     15  C   UNL     1     144.294  67.760 218.214 -0.15 -0.08    +0.254 C  
DOCKED: ATOM     16  N   UNL     1     145.451  66.902 214.573 -0.04 +0.19    -0.334 N  
DOCKED: ATOM     17  C   UNL     1     146.315  66.367 215.666 -0.07 -0.22    +0.283 C  
DOCKED: ATOM     18  C   UNL     1     145.299  68.376 214.633 -0.00 -0.07    +0.283 C  
DOCKED: ATOM     19  C   UNL     1     146.400  67.285 216.905 -0.21 -0.05    +0.181 C  
DOCKED: ATOM     20  C   UNL     1     144.667  68.840 215.960 -0.03 -0.03    +0.181 C  
DOCKED: ATOM     21  N   UNL     1     145.143  68.017 217.081 -0.06 +0.09    -0.327 N  
DOCKED: ATOM     22  C   UNL     1     144.133  66.226 214.540 -0.02 -0.28    +0.332 C  
DOCKED: ATOM     23  H   UNL     1     145.918  66.679 213.658 +0.05 -0.16    +0.347 HD 
DOCKED: ATOM     24  O   UNL     1     144.357  66.643 218.798 -0.26 +0.14    -0.269 OA 
DOCKED: ENDBRANCH  10  15
DOCKED: ENDBRANCH   8   9
DOCKED: BRANCH   8  25
DOCKED: ATOM     25  C   UNL     1     144.831  72.245 220.875 -0.09 -0.03    +0.153 CG0
DOCKED: ATOM     26  G   UNL     1     145.381  73.360 220.048 +0.00 +0.00    +0.000 G0 
DOCKED: ENDBRANCH   8  25
DOCKED: ENDBRANCH   7   8
DOCKED: ENDBRANCH   1   7
DOCKED: BRANCH   6  27
DOCKED: ATOM     27  N   UNL     1     145.007  74.586 220.238 -0.25 +0.09    -0.216 NA 
DOCKED: BRANCH  27  28
DOCKED: ATOM     28  C   UNL     1     145.382  73.356 220.050 -0.41 -0.00    +0.192 CG0
DOCKED: ATOM     29  G   UNL     1     144.831  72.242 220.875 +0.00 +0.00    +0.000 G0 
DOCKED: BRANCH  28  30
DOCKED: ATOM     30  O   UNL     1     146.301  73.066 219.046 -0.64 -0.46    -0.496 OA 
DOCKED: ATOM     31  H   UNL     1     146.650  73.791 218.432 -0.38 +0.16    +0.294 HD 
DOCKED: ENDBRANCH  28  30
DOCKED: ENDBRANCH  27  28
DOCKED: ENDBRANCH   6  27
DOCKED: BRANCH   4  32
DOCKED: ATOM     32  C   UNL     1     142.196  78.434 219.171 -0.24 +0.04    -0.062 C  
DOCKED: BRANCH  32  33
DOCKED: ATOM     33  C   UNL     1     142.118  79.585 218.821 -0.28 +0.04    -0.062 C  
DOCKED: BRANCH  33  34
DOCKED: ATOM     34  C   UNL     1     142.034  80.962 218.409 -0.29 -0.02    +0.025 A  
DOCKED: ATOM     35  C   UNL     1     141.033  81.791 218.933 -0.19 -0.01    +0.017 A  
DOCKED: ATOM     36  C   UNL     1     142.944  81.472 217.473 -0.34 -0.02    +0.017 A  
DOCKED: ATOM     37  C   UNL     1     140.942  83.125 218.521 -0.17 -0.00    +0.001 A  
DOCKED: ATOM     38  C   UNL     1     142.849  82.804 217.060 -0.31 -0.00    +0.001 A  
DOCKED: ATOM     39  C   UNL     1     141.850  83.631 217.584 -0.18 -0.00    +0.000 A  
DOCKED: ENDBRANCH  33  34
DOCKED: ENDBRANCH  32  33
DOCKED: ENDBRANCH   4  32
DOCKED: TORSDOF 6
DOCKED: TER
DOCKED: ENDMDL
________________________________________________________________________________


    FINAL DOCKED STATE:
    ________________________


Run:   16 / 20
Time taken for this run:   0.049s

DOCKED: MODEL        16
DOCKED: USER    Run = 16
DOCKED: USER
DOCKED: USER    Estimated Free Energy of Binding    =  -4.33 kcal/mol  [=(1)+(2)+(3)-(4)]
DOCKED: USER
DOCKED: USER    (1) Final Intermolecular Energy     =  -7.61 kcal/mol
DOCKED: USER        vdW + Hbond + desolv Energy     =  -8.51 kcal/mol
DOCKED: USER        Electrostatic Energy            =  -0.16 kcal/mol
DOCKED: USER        Moving Ligand-Fixed Receptor    =  -8.68 kcal/mol
DOCKED: USER        Moving Ligand-Moving Receptor   =  +1.07 kcal/mol
DOCKED: USER    (2) Final Total Internal Energy     =  -1.12 kcal/mol
DOCKED: USER    (3) Torsional Free Energy           =  +3.28 kcal/mol
DOCKED: USER    (4) Unbound System's Energy         =  -1.12 kcal/mol
DOCKED: USER
DOCKED: USER
DOCKED: REMARK SMILES C[NH+]1CCN(C(=O)c2cccc(C3=Nc4ccc(C#Cc5ccccc5)cc4N=C(O)C3)c2)CC1
DOCKED: REMARK SMILES IDX 15 1 16 2 17 3 18 4 27 5 28 6 14 7 13 8 12 9 8 10 9 11 33 12
DOCKED: REMARK SMILES IDX 10 13 11 14 6 15 2 16 3 17 35 18 4 19 34 20 5 21 1 22 7 24
DOCKED: REMARK SMILES IDX 32 25 29 27 30 28 31 30 19 32 20 33 21 34 22 35 26 36 23 37
DOCKED: REMARK SMILES IDX 25 38 24 39
DOCKED: REMARK H PARENT 2 23 31 31
DOCKED: REMARK Flexibility Score:  140.900
DOCKED: USER                              x       y       z     vdW  Elec       q    Type
DOCKED: USER                           _______ _______ _______ _____ _____    ______ ____
DOCKED: ROOT
DOCKED: ATOM      1  C   UNL     1     142.330  76.029 220.307 -0.20 -0.05    +0.089 A  
DOCKED: ATOM      2  C   UNL     1     143.569  75.742 219.719 -0.41 -0.02    +0.032 A  
DOCKED: ATOM      3  C   UNL     1     143.987  74.423 219.537 -0.35 -0.01    +0.019 A  
DOCKED: ATOM      4  C   UNL     1     143.183  73.368 219.973 -0.26 -0.01    +0.027 A  
DOCKED: ATOM      5  C   UNL     1     141.954  73.635 220.588 -0.24 -0.01    +0.048 A  
DOCKED: ATOM      6  C   UNL     1     141.505  74.954 220.750 -0.25 -0.03    +0.094 A  
DOCKED: ENDROOT
DOCKED: BRANCH   1   7
DOCKED: ATOM      7  N   UNL     1     142.004  77.414 220.518 -0.17 +0.16    -0.250 NA 
DOCKED: BRANCH   7   8
DOCKED: ATOM      8  C   UNL     1     141.366  77.927 221.529 -0.32 -0.03    +0.058 C  
DOCKED: BRANCH   8   9
DOCKED: ATOM      9  C   UNL     1     140.930  79.345 221.454 -0.31 +0.00    -0.003 A  
DOCKED: ATOM     10  C   UNL     1     139.136  81.009 221.482 -0.16 -0.01    +0.040 A  
DOCKED: ATOM     11  C   UNL     1     140.089  82.027 221.348 -0.25 -0.00    +0.014 A  
DOCKED: ATOM     12  C   UNL     1     139.560  79.668 221.515 -0.18 -0.01    +0.023 A  
DOCKED: ATOM     13  C   UNL     1     141.448  81.714 221.260 -0.38 -0.00    +0.002 A  
DOCKED: ATOM     14  C   UNL     1     141.868  80.383 221.317 -0.41 -0.00    +0.010 A  
DOCKED: BRANCH  10  15
DOCKED: ATOM     15  C   UNL     1     137.697  81.335 221.566 -0.06 -0.04    +0.254 C  
DOCKED: ATOM     16  N   UNL     1     135.108  80.665 224.426 -0.06 +0.04    -0.334 N  
DOCKED: ATOM     17  C   UNL     1     134.687  81.661 223.397 -0.03 -0.03    +0.283 C  
DOCKED: ATOM     18  C   UNL     1     136.385  81.028 225.087 -0.18 -0.03    +0.283 C  
DOCKED: ATOM     19  C   UNL     1     135.849  82.505 222.828 -0.06 -0.02    +0.181 C  
DOCKED: ATOM     20  C   UNL     1     137.547  81.139 224.081 -0.26 -0.02    +0.181 C  
DOCKED: ATOM     21  N   UNL     1     137.086  81.718 222.811 -0.06 +0.04    -0.327 N  
DOCKED: ATOM     22  C   UNL     1     135.163  79.295 223.866 -0.06 -0.04    +0.332 C  
DOCKED: ATOM     23  H   UNL     1     134.369  80.647 225.173 +0.09 -0.04    +0.347 HD 
DOCKED: ATOM     24  O   UNL     1     136.989  81.256 220.524 -0.02 +0.04    -0.269 OA 
DOCKED: ENDBRANCH  10  15
DOCKED: ENDBRANCH   8   9
DOCKED: BRANCH   8  25
DOCKED: ATOM     25  C   UNL     1     141.007  77.075 222.714 -0.25 -0.06    +0.153 CG0
DOCKED: ATOM     26  G   UNL     1     139.977  76.075 222.306 +0.00 +0.00    +0.000 G0 
DOCKED: ENDBRANCH   8  25
DOCKED: ENDBRANCH   7   8
DOCKED: ENDBRANCH   1   7
DOCKED: BRANCH   6  27
DOCKED: ATOM     27  N   UNL     1     140.258  75.146 221.440 -0.33 +0.04    -0.216 NA 
DOCKED: BRANCH  27  28
DOCKED: ATOM     28  C   UNL     1     139.977  76.083 222.294 -0.25 -0.04    +0.192 CG0
DOCKED: ATOM     29  G   UNL     1     141.003  77.079 222.719 +0.00 +0.00    +0.000 G0 
DOCKED: BRANCH  28  30
DOCKED: ATOM     30  O   UNL     1     138.687  76.175 222.811 -0.16 +0.11    -0.496 OA 
DOCKED: ATOM     31  H   UNL     1     138.200  75.355 223.149 -0.35 -0.13    +0.294 HD 
DOCKED: ENDBRANCH  28  30
DOCKED: ENDBRANCH  27  28
DOCKED: ENDBRANCH   6  27
DOCKED: BRANCH   4  32
DOCKED: ATOM     32  C   UNL     1     143.616  72.007 219.789 -0.22 +0.01    -0.062 C  
DOCKED: BRANCH  32  33
DOCKED: ATOM     33  C   UNL     1     143.985  70.869 219.643 -0.21 -0.00    -0.062 C  
DOCKED: BRANCH  33  34
DOCKED: ATOM     34  C   UNL     1     144.420  69.507 219.478 -0.27 +0.00    +0.025 A  
DOCKED: ATOM     35  C   UNL     1     143.482  68.464 219.497 -0.24 -0.00    +0.017 A  
DOCKED: ATOM     36  C   UNL     1     145.781  69.219 219.312 -0.34 +0.01    +0.017 A  
DOCKED: ATOM     37  C   UNL     1     143.907  67.139 219.353 -0.31 -0.00    +0.001 A  
DOCKED: ATOM     38  C   UNL     1     146.203  67.893 219.171 -0.49 +0.00    +0.001 A  
DOCKED: ATOM     39  C   UNL     1     145.267  66.853 219.191 -0.51 -0.00    +0.000 A  
DOCKED: ENDBRANCH  33  34
DOCKED: ENDBRANCH  32  33
DOCKED: ENDBRANCH   4  32
DOCKED: TORSDOF 6
DOCKED: TER
DOCKED: ENDMDL
________________________________________________________________________________


    FINAL DOCKED STATE:
    ________________________


Run:   17 / 20
Time taken for this run:   0.049s

DOCKED: MODEL        17
DOCKED: USER    Run = 17
DOCKED: USER
DOCKED: USER    Estimated Free Energy of Binding    =  -5.07 kcal/mol  [=(1)+(2)+(3)-(4)]
DOCKED: USER
DOCKED: USER    (1) Final Intermolecular Energy     =  -8.35 kcal/mol
DOCKED: USER        vdW + Hbond + desolv Energy     =  -8.62 kcal/mol
DOCKED: USER        Electrostatic Energy            =  -0.30 kcal/mol
DOCKED: USER        Moving Ligand-Fixed Receptor    =  -8.91 kcal/mol
DOCKED: USER        Moving Ligand-Moving Receptor   =  +0.57 kcal/mol
DOCKED: USER    (2) Final Total Internal Energy     =  -0.74 kcal/mol
DOCKED: USER    (3) Torsional Free Energy           =  +3.28 kcal/mol
DOCKED: USER    (4) Unbound System's Energy         =  -0.74 kcal/mol
DOCKED: USER
DOCKED: USER
DOCKED: REMARK SMILES C[NH+]1CCN(C(=O)c2cccc(C3=Nc4ccc(C#Cc5ccccc5)cc4N=C(O)C3)c2)CC1
DOCKED: REMARK SMILES IDX 15 1 16 2 17 3 18 4 27 5 28 6 14 7 13 8 12 9 8 10 9 11 33 12
DOCKED: REMARK SMILES IDX 10 13 11 14 6 15 2 16 3 17 35 18 4 19 34 20 5 21 1 22 7 24
DOCKED: REMARK SMILES IDX 32 25 29 27 30 28 31 30 19 32 20 33 21 34 22 35 26 36 23 37
DOCKED: REMARK SMILES IDX 25 38 24 39
DOCKED: REMARK H PARENT 2 23 31 31
DOCKED: REMARK Flexibility Score:  140.900
DOCKED: USER                              x       y       z     vdW  Elec       q    Type
DOCKED: USER                           _______ _______ _______ _____ _____    ______ ____
DOCKED: ROOT
DOCKED: ATOM      1  C   UNL     1     140.662  74.294 219.789 -0.10 -0.02    +0.089 A  
DOCKED: ATOM      2  C   UNL     1     139.410  73.851 220.236 -0.09 -0.01    +0.032 A  
DOCKED: ATOM      3  C   UNL     1     139.297  73.069 221.386 -0.19 -0.00    +0.019 A  
DOCKED: ATOM      4  C   UNL     1     140.442  72.689 222.090 -0.30 -0.00    +0.027 A  
DOCKED: ATOM      5  C   UNL     1     141.704  73.099 221.643 -0.03 -0.00    +0.048 A  
DOCKED: ATOM      6  C   UNL     1     141.833  73.912 220.507 -0.22 -0.02    +0.094 A  
DOCKED: ENDROOT
DOCKED: BRANCH   1   7
DOCKED: ATOM      7  N   UNL     1     140.698  75.039 218.559 -0.01 +0.07    -0.250 NA 
DOCKED: BRANCH   7   8
DOCKED: ATOM      8  C   UNL     1     141.541  75.974 218.228 -0.10 -0.02    +0.058 C  
DOCKED: BRANCH   8   9
DOCKED: ATOM      9  C   UNL     1     141.038  77.358 218.040 -0.10 +0.00    -0.003 A  
DOCKED: ATOM     10  C   UNL     1     140.616  79.594 218.939 -0.13 -0.02    +0.040 A  
DOCKED: ATOM     11  C   UNL     1     140.118  79.994 217.692 -0.06 -0.01    +0.014 A  
DOCKED: ATOM     12  C   UNL     1     141.056  78.269 219.113 -0.17 -0.01    +0.023 A  
DOCKED: ATOM     13  C   UNL     1     140.072  79.087 216.628 -0.04 -0.00    +0.002 A  
DOCKED: ATOM     14  C   UNL     1     140.532  77.780 216.798 -0.05 -0.00    +0.010 A  
DOCKED: BRANCH  10  15
DOCKED: ATOM     15  C   UNL     1     140.659  80.547 220.069 -0.13 -0.09    +0.254 C  
DOCKED: ATOM     16  N   UNL     1     141.122  79.910 223.904 -0.22 +0.06    -0.334 N  
DOCKED: ATOM     17  C   UNL     1     141.326  81.319 223.457 -0.28 -0.04    +0.283 C  
DOCKED: ATOM     18  C   UNL     1     142.012  78.952 223.206 -0.35 -0.11    +0.283 C  
DOCKED: ATOM     19  C   UNL     1     141.944  81.446 222.047 -0.29 -0.04    +0.181 C  
DOCKED: ATOM     20  C   UNL     1     141.794  78.965 221.680 -0.33 -0.09    +0.181 C  
DOCKED: ATOM     21  N   UNL     1     141.517  80.327 221.203 -0.16 +0.12    -0.327 N  
DOCKED: ATOM     22  C   UNL     1     139.702  79.503 223.794 -0.21 -0.05    +0.332 C  
DOCKED: ATOM     23  H   UNL     1     141.361  79.862 224.927 +0.36 -0.05    +0.347 HD 
DOCKED: ATOM     24  O   UNL     1     139.910  81.562 220.042 -0.07 +0.07    -0.269 OA 
DOCKED: ENDBRANCH  10  15
DOCKED: ENDBRANCH   8   9
DOCKED: BRANCH   8  25
DOCKED: ATOM     25  C   UNL     1     143.009  75.669 218.120 -0.18 -0.07    +0.153 CG0
DOCKED: ATOM     26  G   UNL     1     143.540  75.324 219.471 +0.00 +0.00    +0.000 G0 
DOCKED: ENDBRANCH   8  25
DOCKED: ENDBRANCH   7   8
DOCKED: ENDBRANCH   1   7
DOCKED: BRANCH   6  27
DOCKED: ATOM     27  N   UNL     1     143.166  74.244 220.082 -0.20 +0.07    -0.216 NA 
DOCKED: BRANCH  27  28
DOCKED: ATOM     28  C   UNL     1     143.540  75.324 219.466 -0.27 -0.10    +0.192 CG0
DOCKED: ATOM     29  G   UNL     1     143.012  75.669 218.114 +0.00 +0.00    +0.000 G0 
DOCKED: BRANCH  28  30
DOCKED: ATOM     30  O   UNL     1     144.437  76.190 220.084 -0.12 +0.40    -0.496 OA 
DOCKED: ATOM     31  H   UNL     1     144.216  77.171 220.208 -0.42 -0.34    +0.294 HD 
DOCKED: ENDBRANCH  28  30
DOCKED: ENDBRANCH  27  28
DOCKED: ENDBRANCH   6  27
DOCKED: BRANCH   4  32
DOCKED: ATOM     32  C   UNL     1     140.326  71.879 223.274 -0.34 +0.01    -0.062 C  
DOCKED: BRANCH  32  33
DOCKED: ATOM     33  C   UNL     1     140.235  71.207 224.271 -0.42 +0.01    -0.062 C  
DOCKED: BRANCH  33  34
DOCKED: ATOM     34  C   UNL     1     140.138  70.400 225.459 -0.48 -0.00    +0.025 A  
DOCKED: ATOM     35  C   UNL     1     139.736  69.060 225.365 -0.43 -0.00    +0.017 A  
DOCKED: ATOM     36  C   UNL     1     140.430  70.955 226.712 -0.62 -0.00    +0.017 A  
DOCKED: ATOM     37  C   UNL     1     139.626  68.280 226.521 -0.61 -0.00    +0.001 A  
DOCKED: ATOM     38  C   UNL     1     140.316  70.175 227.866 -0.64 -0.00    +0.001 A  
DOCKED: ATOM     39  C   UNL     1     139.915  68.838 227.772 -0.63 -0.00    +0.000 A  
DOCKED: ENDBRANCH  33  34
DOCKED: ENDBRANCH  32  33
DOCKED: ENDBRANCH   4  32
DOCKED: TORSDOF 6
DOCKED: TER
DOCKED: ENDMDL
________________________________________________________________________________


    FINAL DOCKED STATE:
    ________________________


Run:   18 / 20
Time taken for this run:   0.049s

DOCKED: MODEL        18
DOCKED: USER    Run = 18
DOCKED: USER
DOCKED: USER    Estimated Free Energy of Binding    =  -5.76 kcal/mol  [=(1)+(2)+(3)-(4)]
DOCKED: USER
DOCKED: USER    (1) Final Intermolecular Energy     =  -9.04 kcal/mol
DOCKED: USER        vdW + Hbond + desolv Energy     =  -9.00 kcal/mol
DOCKED: USER        Electrostatic Energy            =  -0.18 kcal/mol
DOCKED: USER        Moving Ligand-Fixed Receptor    =  -9.17 kcal/mol
DOCKED: USER        Moving Ligand-Moving Receptor   =  +0.13 kcal/mol
DOCKED: USER    (2) Final Total Internal Energy     =  -1.13 kcal/mol
DOCKED: USER    (3) Torsional Free Energy           =  +3.28 kcal/mol
DOCKED: USER    (4) Unbound System's Energy         =  -1.13 kcal/mol
DOCKED: USER
DOCKED: USER
DOCKED: REMARK SMILES C[NH+]1CCN(C(=O)c2cccc(C3=Nc4ccc(C#Cc5ccccc5)cc4N=C(O)C3)c2)CC1
DOCKED: REMARK SMILES IDX 15 1 16 2 17 3 18 4 27 5 28 6 14 7 13 8 12 9 8 10 9 11 33 12
DOCKED: REMARK SMILES IDX 10 13 11 14 6 15 2 16 3 17 35 18 4 19 34 20 5 21 1 22 7 24
DOCKED: REMARK SMILES IDX 32 25 29 27 30 28 31 30 19 32 20 33 21 34 22 35 26 36 23 37
DOCKED: REMARK SMILES IDX 25 38 24 39
DOCKED: REMARK H PARENT 2 23 31 31
DOCKED: REMARK Flexibility Score:  140.900
DOCKED: USER                              x       y       z     vdW  Elec       q    Type
DOCKED: USER                           _______ _______ _______ _____ _____    ______ ____
DOCKED: ROOT
DOCKED: ATOM      1  C   UNL     1     141.294  73.515 220.105 -0.14 -0.02    +0.089 A  
DOCKED: ATOM      2  C   UNL     1     140.006  73.430 220.651 -0.15 -0.01    +0.032 A  
DOCKED: ATOM      3  C   UNL     1     139.761  72.664 221.791 -0.25 -0.00    +0.019 A  
DOCKED: ATOM      4  C   UNL     1     140.798  71.941 222.385 -0.29 -0.00    +0.027 A  
DOCKED: ATOM      5  C   UNL     1     142.086  71.991 221.838 +0.36 -0.00    +0.048 A  
DOCKED: ATOM      6  C   UNL     1     142.355  72.782 220.711 -0.22 -0.01    +0.094 A  
DOCKED: ENDROOT
DOCKED: BRANCH   1   7
DOCKED: ATOM      7  N   UNL     1     141.448  74.271 218.892 -0.02 +0.07    -0.250 NA 
DOCKED: BRANCH   7   8
DOCKED: ATOM      8  C   UNL     1     142.496  74.941 218.508 -0.15 -0.02    +0.058 C  
DOCKED: BRANCH   8   9
DOCKED: ATOM      9  C   UNL     1     142.398  76.419 218.397 -0.24 +0.00    -0.003 A  
DOCKED: ATOM     10  C   UNL     1     142.047  78.599 219.451 -0.24 -0.03    +0.040 A  
DOCKED: ATOM     11  C   UNL     1     142.243  79.222 218.211 -0.30 -0.01    +0.014 A  
DOCKED: ATOM     12  C   UNL     1     142.106  77.196 219.535 -0.30 -0.01    +0.023 A  
DOCKED: ATOM     13  C   UNL     1     142.507  78.456 217.072 -0.25 -0.00    +0.002 A  
DOCKED: ATOM     14  C   UNL     1     142.589  77.064 217.163 -0.23 -0.01    +0.010 A  
DOCKED: BRANCH  10  15
DOCKED: ATOM     15  C   UNL     1     141.759  79.404 220.657 -0.19 -0.13    +0.254 C  
DOCKED: ATOM     16  N   UNL     1     138.683  79.330 223.078 -0.14 +0.05    -0.334 N  
DOCKED: ATOM     17  C   UNL     1     139.889  80.041 223.593 -0.26 -0.04    +0.283 C  
DOCKED: ATOM     18  C   UNL     1     138.962  77.922 222.705 -0.18 -0.05    +0.283 C  
DOCKED: ATOM     19  C   UNL     1     141.227  79.426 223.125 -0.42 -0.05    +0.181 C  
DOCKED: ATOM     20  C   UNL     1     140.037  77.816 221.606 -0.21 -0.05    +0.181 C  
DOCKED: ATOM     21  N   UNL     1     141.076  78.839 221.790 -0.14 +0.13    -0.327 N  
DOCKED: ATOM     22  C   UNL     1     138.052  80.068 221.959 -0.07 -0.06    +0.332 C  
DOCKED: ATOM     23  H   UNL     1     137.971  79.308 223.852 +0.15 -0.04    +0.347 HD 
DOCKED: ATOM     24  O   UNL     1     142.103  80.618 220.679 -0.25 +0.11    -0.269 OA 
DOCKED: ENDBRANCH  10  15
DOCKED: ENDBRANCH   8   9
DOCKED: BRANCH   8  25
DOCKED: ATOM     25  C   UNL     1     143.801  74.237 218.263 -0.14 -0.05    +0.153 CG0
DOCKED: ATOM     26  G   UNL     1     144.314  73.691 219.554 +0.00 +0.00    +0.000 G0 
DOCKED: ENDBRANCH   8  25
DOCKED: ENDBRANCH   7   8
DOCKED: ENDBRANCH   1   7
DOCKED: BRANCH   6  27
DOCKED: ATOM     27  N   UNL     1     143.691  72.736 220.178 -0.17 +0.03    -0.216 NA 
DOCKED: BRANCH  27  28
DOCKED: ATOM     28  C   UNL     1     144.313  73.690 219.554 -0.26 -0.04    +0.192 CG0
DOCKED: ATOM     29  G   UNL     1     143.801  74.236 218.263 +0.00 +0.00    +0.000 G0 
DOCKED: BRANCH  28  30
DOCKED: ATOM     30  O   UNL     1     145.470  74.230 220.107 -0.17 +0.14    -0.496 OA 
DOCKED: ATOM     31  H   UNL     1     146.321  74.308 219.564 -0.37 -0.08    +0.294 HD 
DOCKED: ENDBRANCH  28  30
DOCKED: ENDBRANCH  27  28
DOCKED: ENDBRANCH   6  27
DOCKED: BRANCH   4  32
DOCKED: ATOM     32  C   UNL     1     140.545  71.148 223.559 -0.26 +0.01    -0.062 C  
DOCKED: BRANCH  32  33
DOCKED: ATOM     33  C   UNL     1     140.342  70.482 224.544 -0.37 +0.01    -0.062 C  
DOCKED: BRANCH  33  34
DOCKED: ATOM     34  C   UNL     1     140.090  69.692 225.720 -0.45 -0.00    +0.025 A  
DOCKED: ATOM     35  C   UNL     1     139.801  68.326 225.599 -0.49 -0.00    +0.017 A  
DOCKED: ATOM     36  C   UNL     1     140.120  70.289 226.988 -0.56 -0.00    +0.017 A  
DOCKED: ATOM     37  C   UNL     1     139.539  67.561 226.741 -0.62 -0.00    +0.001 A  
DOCKED: ATOM     38  C   UNL     1     139.857  69.524 228.127 -0.63 -0.00    +0.001 A  
DOCKED: ATOM     39  C   UNL     1     139.567  68.161 228.005 -0.39 -0.00    +0.000 A  
DOCKED: ENDBRANCH  33  34
DOCKED: ENDBRANCH  32  33
DOCKED: ENDBRANCH   4  32
DOCKED: TORSDOF 6
DOCKED: TER
DOCKED: ENDMDL
________________________________________________________________________________


    FINAL DOCKED STATE:
    ________________________


Run:   19 / 20
Time taken for this run:   0.049s

DOCKED: MODEL        19
DOCKED: USER    Run = 19
DOCKED: USER
DOCKED: USER    Estimated Free Energy of Binding    =  -4.39 kcal/mol  [=(1)+(2)+(3)-(4)]
DOCKED: USER
DOCKED: USER    (1) Final Intermolecular Energy     =  -7.68 kcal/mol
DOCKED: USER        vdW + Hbond + desolv Energy     =  -8.31 kcal/mol
DOCKED: USER        Electrostatic Energy            =  -0.29 kcal/mol
DOCKED: USER        Moving Ligand-Fixed Receptor    =  -8.60 kcal/mol
DOCKED: USER        Moving Ligand-Moving Receptor   =  +0.92 kcal/mol
DOCKED: USER    (2) Final Total Internal Energy     =  -0.95 kcal/mol
DOCKED: USER    (3) Torsional Free Energy           =  +3.28 kcal/mol
DOCKED: USER    (4) Unbound System's Energy         =  -0.95 kcal/mol
DOCKED: USER
DOCKED: USER
DOCKED: REMARK SMILES C[NH+]1CCN(C(=O)c2cccc(C3=Nc4ccc(C#Cc5ccccc5)cc4N=C(O)C3)c2)CC1
DOCKED: REMARK SMILES IDX 15 1 16 2 17 3 18 4 27 5 28 6 14 7 13 8 12 9 8 10 9 11 33 12
DOCKED: REMARK SMILES IDX 10 13 11 14 6 15 2 16 3 17 35 18 4 19 34 20 5 21 1 22 7 24
DOCKED: REMARK SMILES IDX 32 25 29 27 30 28 31 30 19 32 20 33 21 34 22 35 26 36 23 37
DOCKED: REMARK SMILES IDX 25 38 24 39
DOCKED: REMARK H PARENT 2 23 31 31
DOCKED: REMARK Flexibility Score:  140.900
DOCKED: USER                              x       y       z     vdW  Elec       q    Type
DOCKED: USER                           _______ _______ _______ _____ _____    ______ ____
DOCKED: ROOT
DOCKED: ATOM      1  C   UNL     1     140.160  74.217 220.043 -0.09 -0.02    +0.089 A  
DOCKED: ATOM      2  C   UNL     1     138.975  73.709 220.593 -0.11 -0.01    +0.032 A  
DOCKED: ATOM      3  C   UNL     1     139.001  72.906 221.733 -0.20 -0.00    +0.019 A  
DOCKED: ATOM      4  C   UNL     1     140.222  72.569 222.323 -0.31 -0.00    +0.027 A  
DOCKED: ATOM      5  C   UNL     1     141.418  73.043 221.772 -0.14 -0.00    +0.048 A  
DOCKED: ATOM      6  C   UNL     1     141.406  73.878 220.645 -0.21 -0.02    +0.094 A  
DOCKED: ENDROOT
DOCKED: BRANCH   1   7
DOCKED: ATOM      7  N   UNL     1     140.050  74.981 218.830 -0.01 +0.06    -0.250 NA 
DOCKED: BRANCH   7   8
DOCKED: ATOM      8  C   UNL     1     140.819  75.956 218.440 -0.07 -0.02    +0.058 C  
DOCKED: BRANCH   8   9
DOCKED: ATOM      9  C   UNL     1     140.243  77.320 218.327 -0.06 +0.00    -0.003 A  
DOCKED: ATOM     10  C   UNL     1     139.868  79.542 219.280 -0.08 -0.01    +0.040 A  
DOCKED: ATOM     11  C   UNL     1     139.187  79.919 218.115 -0.03 -0.00    +0.014 A  
DOCKED: ATOM     12  C   UNL     1     140.377  78.235 219.389 -0.11 -0.01    +0.023 A  
DOCKED: ATOM     13  C   UNL     1     139.027  79.008 217.066 -0.02 -0.00    +0.002 A  
DOCKED: ATOM     14  C   UNL     1     139.554  77.718 217.168 -0.02 -0.00    +0.010 A  
DOCKED: BRANCH  10  15
DOCKED: ATOM     15  C   UNL     1     140.032  80.499 220.394 -0.09 -0.07    +0.254 C  
DOCKED: ATOM     16  N   UNL     1     142.045  80.176 223.737 -0.30 +0.07    -0.334 N  
DOCKED: ATOM     17  C   UNL     1     141.631  81.562 223.366 -0.27 -0.03    +0.283 C  
DOCKED: ATOM     18  C   UNL     1     142.862  79.522 222.686 -0.29 -0.14    +0.283 C  
DOCKED: ATOM     19  C   UNL     1     141.616  81.826 221.844 -0.28 -0.04    +0.181 C  
DOCKED: ATOM     20  C   UNL     1     142.104  79.412 221.348 -0.16 -0.10    +0.181 C  
DOCKED: ATOM     21  N   UNL     1     141.270  80.600 221.120 -0.15 +0.11    -0.327 N  
DOCKED: ATOM     22  C   UNL     1     140.880  79.341 224.111 -0.11 -0.06    +0.332 C  
DOCKED: ATOM     23  H   UNL     1     142.647  80.243 224.596 +0.30 -0.06    +0.347 HD 
DOCKED: ATOM     24  O   UNL     1     139.055  81.227 220.725 -0.05 +0.06    -0.269 OA 
DOCKED: ENDBRANCH  10  15
DOCKED: ENDBRANCH   8   9
DOCKED: BRANCH   8  25
DOCKED: ATOM     25  C   UNL     1     142.282  75.717 218.191 -0.13 -0.06    +0.153 CG0
DOCKED: ATOM     26  G   UNL     1     142.950  75.373 219.480 +0.00 +0.00    +0.000 G0 
DOCKED: ENDBRANCH   8  25
DOCKED: ENDBRANCH   7   8
DOCKED: ENDBRANCH   1   7
DOCKED: BRANCH   6  27
DOCKED: ATOM     27  N   UNL     1     142.679  74.278 220.108 -0.17 +0.07    -0.216 NA 
DOCKED: BRANCH  27  28
DOCKED: ATOM     28  C   UNL     1     142.947  75.383 219.481 -0.25 -0.09    +0.192 CG0
DOCKED: ATOM     29  G   UNL     1     142.280  75.724 218.190 +0.00 +0.00    +0.000 G0 
DOCKED: BRANCH  28  30
DOCKED: ATOM     30  O   UNL     1     143.859  76.279 220.030 -0.18 +0.39    -0.496 OA 
DOCKED: ATOM     31  H   UNL     1     143.929  77.229 219.687 -0.41 -0.30    +0.294 HD 
DOCKED: ENDBRANCH  28  30
DOCKED: ENDBRANCH  27  28
DOCKED: ENDBRANCH   6  27
DOCKED: BRANCH   4  32
DOCKED: ATOM     32  C   UNL     1     140.249  71.736 223.498 -0.35 +0.01    -0.062 C  
DOCKED: BRANCH  32  33
DOCKED: ATOM     33  C   UNL     1     140.271  71.031 224.475 -0.43 +0.01    -0.062 C  
DOCKED: BRANCH  33  34
DOCKED: ATOM     34  C   UNL     1     140.307  70.194 225.646 -0.49 -0.00    +0.025 A  
DOCKED: ATOM     35  C   UNL     1     140.703  70.730 226.879 -0.63 -0.00    +0.017 A  
DOCKED: ATOM     36  C   UNL     1     139.960  68.840 225.552 -0.46 -0.00    +0.017 A  
DOCKED: ATOM     37  C   UNL     1     140.753  69.913 228.013 -0.62 -0.00    +0.001 A  
DOCKED: ATOM     38  C   UNL     1     140.013  68.024 226.687 -0.66 -0.00    +0.001 A  
DOCKED: ATOM     39  C   UNL     1     140.409  68.560 227.917 -0.67 -0.00    +0.000 A  
DOCKED: ENDBRANCH  33  34
DOCKED: ENDBRANCH  32  33
DOCKED: ENDBRANCH   4  32
DOCKED: TORSDOF 6
DOCKED: TER
DOCKED: ENDMDL
________________________________________________________________________________


    FINAL DOCKED STATE:
    ________________________


Run:   20 / 20
Time taken for this run:   0.049s

DOCKED: MODEL        20
DOCKED: USER    Run = 20
DOCKED: USER
DOCKED: USER    Estimated Free Energy of Binding    =  -5.81 kcal/mol  [=(1)+(2)+(3)-(4)]
DOCKED: USER
DOCKED: USER    (1) Final Intermolecular Energy     =  -9.10 kcal/mol
DOCKED: USER        vdW + Hbond + desolv Energy     =  -9.31 kcal/mol
DOCKED: USER        Electrostatic Energy            =  -0.30 kcal/mol
DOCKED: USER        Moving Ligand-Fixed Receptor    =  -9.61 kcal/mol
DOCKED: USER        Moving Ligand-Moving Receptor   =  +0.51 kcal/mol
DOCKED: USER    (2) Final Total Internal Energy     =  -1.10 kcal/mol
DOCKED: USER    (3) Torsional Free Energy           =  +3.28 kcal/mol
DOCKED: USER    (4) Unbound System's Energy         =  -1.10 kcal/mol
DOCKED: USER
DOCKED: USER
DOCKED: REMARK SMILES C[NH+]1CCN(C(=O)c2cccc(C3=Nc4ccc(C#Cc5ccccc5)cc4N=C(O)C3)c2)CC1
DOCKED: REMARK SMILES IDX 15 1 16 2 17 3 18 4 27 5 28 6 14 7 13 8 12 9 8 10 9 11 33 12
DOCKED: REMARK SMILES IDX 10 13 11 14 6 15 2 16 3 17 35 18 4 19 34 20 5 21 1 22 7 24
DOCKED: REMARK SMILES IDX 32 25 29 27 30 28 31 30 19 32 20 33 21 34 22 35 26 36 23 37
DOCKED: REMARK SMILES IDX 25 38 24 39
DOCKED: REMARK H PARENT 2 23 31 31
DOCKED: REMARK Flexibility Score:  140.900
DOCKED: USER                              x       y       z     vdW  Elec       q    Type
DOCKED: USER                           _______ _______ _______ _____ _____    ______ ____
DOCKED: ROOT
DOCKED: ATOM      1  C   UNL     1     140.881  73.599 220.265 -0.14 -0.02    +0.089 A  
DOCKED: ATOM      2  C   UNL     1     139.712  73.674 221.034 -0.19 -0.01    +0.032 A  
DOCKED: ATOM      3  C   UNL     1     139.573  72.923 222.201 -0.27 -0.00    +0.019 A  
DOCKED: ATOM      4  C   UNL     1     140.592  72.055 222.600 -0.32 -0.00    +0.027 A  
DOCKED: ATOM      5  C   UNL     1     141.756  71.945 221.830 -0.05 -0.00    +0.048 A  
DOCKED: ATOM      6  C   UNL     1     141.925  72.718 220.672 -0.20 -0.01    +0.094 A  
DOCKED: ENDROOT
DOCKED: BRANCH   1   7
DOCKED: ATOM      7  N   UNL     1     140.917  74.355 219.043 -0.02 +0.06    -0.250 NA 
DOCKED: BRANCH   7   8
DOCKED: ATOM      8  C   UNL     1     141.961  74.884 218.473 -0.10 -0.02    +0.058 C  
DOCKED: BRANCH   8   9
DOCKED: ATOM      9  C   UNL     1     142.051  76.363 218.375 -0.19 +0.00    -0.003 A  
DOCKED: ATOM     10  C   UNL     1     141.913  78.564 219.434 -0.26 -0.03    +0.040 A  
DOCKED: ATOM     11  C   UNL     1     142.248  79.164 218.214 -0.30 -0.01    +0.014 A  
DOCKED: ATOM     12  C   UNL     1     141.796  77.164 219.505 -0.25 -0.01    +0.023 A  
DOCKED: ATOM     13  C   UNL     1     142.477  78.378 217.081 -0.26 -0.00    +0.002 A  
DOCKED: ATOM     14  C   UNL     1     142.383  76.986 217.160 -0.20 -0.01    +0.010 A  
DOCKED: BRANCH  10  15
DOCKED: ATOM     15  C   UNL     1     141.662  79.392 220.633 -0.19 -0.13    +0.254 C  
DOCKED: ATOM     16  N   UNL     1     138.583  79.484 223.050 -0.13 +0.05    -0.334 N  
DOCKED: ATOM     17  C   UNL     1     139.822  80.142 223.561 -0.26 -0.04    +0.283 C  
DOCKED: ATOM     18  C   UNL     1     138.796  78.062 222.690 -0.18 -0.05    +0.283 C  
DOCKED: ATOM     19  C   UNL     1     141.130  79.460 223.100 -0.41 -0.05    +0.181 C  
DOCKED: ATOM     20  C   UNL     1     139.866  77.896 221.593 -0.19 -0.05    +0.181 C  
DOCKED: ATOM     21  N   UNL     1     140.952  78.870 221.770 -0.13 +0.12    -0.327 N  
DOCKED: ATOM     22  C   UNL     1     137.990  80.242 221.924 -0.07 -0.05    +0.332 C  
DOCKED: ATOM     23  H   UNL     1     137.871  79.502 223.823 +0.15 -0.04    +0.347 HD 
DOCKED: ATOM     24  O   UNL     1     142.064  80.588 220.645 -0.25 +0.11    -0.269 OA 
DOCKED: ENDBRANCH  10  15
DOCKED: ENDBRANCH   8   9
DOCKED: BRANCH   8  25
DOCKED: ATOM     25  C   UNL     1     143.090  74.012 217.999 -0.08 -0.04    +0.153 CG0
DOCKED: ATOM     26  G   UNL     1     143.752  73.382 219.179 +0.00 +0.00    +0.000 G0 
DOCKED: ENDBRANCH   8  25
DOCKED: ENDBRANCH   7   8
DOCKED: ENDBRANCH   1   7
DOCKED: BRANCH   6  27
DOCKED: ATOM     27  N   UNL     1     143.125  72.506 219.908 -0.12 +0.03    -0.216 NA 
DOCKED: BRANCH  27  28
DOCKED: ATOM     28  C   UNL     1     143.746  73.382 219.177 -0.16 -0.03    +0.192 CG0
DOCKED: ATOM     29  G   UNL     1     143.089  74.014 217.996 +0.00 +0.00    +0.000 G0 
DOCKED: BRANCH  28  30
DOCKED: ATOM     30  O   UNL     1     145.045  73.755 219.510 -0.14 +0.08    -0.496 OA 
DOCKED: ATOM     31  H   UNL     1     145.573  74.389 218.923 -0.34 -0.16    +0.294 HD 
DOCKED: ENDBRANCH  28  30
DOCKED: ENDBRANCH  27  28
DOCKED: ENDBRANCH   6  27
DOCKED: BRANCH   4  32
DOCKED: ATOM     32  C   UNL     1     140.447  71.276 223.802 -0.34 +0.01    -0.062 C  
DOCKED: BRANCH  32  33
DOCKED: ATOM     33  C   UNL     1     140.333  70.617 224.806 -0.44 +0.01    -0.062 C  
DOCKED: BRANCH  33  34
DOCKED: ATOM     34  C   UNL     1     140.190  69.822 225.997 -0.48 -0.00    +0.025 A  
DOCKED: ATOM     35  C   UNL     1     140.397  70.403 227.256 -0.60 -0.00    +0.017 A  
DOCKED: ATOM     36  C   UNL     1     139.859  68.464 225.901 -0.53 -0.00    +0.017 A  
DOCKED: ATOM     37  C   UNL     1     140.275  69.627 228.414 -0.56 -0.00    +0.001 A  
DOCKED: ATOM     38  C   UNL     1     139.739  67.690 227.059 -0.59 -0.00    +0.001 A  
DOCKED: ATOM     39  C   UNL     1     139.947  68.270 228.315 -0.53 -0.00    +0.000 A  
DOCKED: ENDBRANCH  33  34
DOCKED: ENDBRANCH  32  33
DOCKED: ENDBRANCH   4  32
DOCKED: TORSDOF 6
DOCKED: TER
DOCKED: ENDMDL
________________________________________________________________________________


    CLUSTERING HISTOGRAM
    ____________________


________________________________________________________________________________
     |           |     |           |     |
Clus | Lowest    | Run | Mean      | Num | Histogram
-ter | Binding   |     | Binding   | in  |
Rank | Energy    |     | Energy    | Clus|    5    10   15   20   25   30   35
_____|___________|_____|___________|_____|____:____|____:____|____:____|____:___
   1 |     -6.05 |   8 |     -5.91 |   2 |##
   2 |     -5.90 |   6 |     -5.45 |   8 |########
   3 |     -5.61 |   9 |     -5.61 |   1 |#
   4 |     -5.55 |  11 |     -5.55 |   1 |#
   5 |     -5.32 |  10 |     -5.32 |   1 |#
   6 |     -4.97 |   1 |     -4.97 |   1 |#
   7 |     -4.68 |  15 |     -4.68 |   1 |#
   8 |     -4.61 |   7 |     -4.61 |   1 |#
   9 |     -4.52 |   3 |     -4.52 |   1 |#
  10 |     -4.38 |   2 |     -4.38 |   1 |#
  11 |     -4.33 |  16 |     -4.33 |   1 |#
  12 |     -4.07 |   5 |     -4.07 |   1 |#
_____|___________|_____|___________|_____|______________________________________


    RMSD TABLE
    __________


_______________________________________________________________________
     |      |      |           |         |                 |
Rank | Sub- | Run  | Binding   | Cluster | Reference       | Grep
     | Rank |      | Energy    | RMSD    | RMSD            | Pattern
_____|______|______|___________|_________|_________________|___________
   1      1      8       -6.05      0.00    269.35           RANKING
   1      2     13       -5.78      0.25    269.37           RANKING
   2      1      6       -5.90      0.00    270.04           RANKING
   2      2     20       -5.81      0.36    269.89           RANKING
   2      3     18       -5.76      0.57    269.98           RANKING
   2      4     12       -5.64      0.43    269.96           RANKING
   2      5     14       -5.60      1.05    269.73           RANKING
   2      6      4       -5.47      0.64    270.07           RANKING
   2      7     17       -5.07      1.66    270.04           RANKING
   2      8     19       -4.39      1.97    270.02           RANKING
   3      1      9       -5.61      0.00    270.70           RANKING
   4      1     11       -5.55      0.00    271.08           RANKING
   5      1     10       -5.32      0.00    270.14           RANKING
   6      1      1       -4.97      0.00    269.53           RANKING
   7      1     15       -4.68      0.00    268.28           RANKING
   8      1      7       -4.61      0.00    269.69           RANKING
   9      1      3       -4.52      0.00    271.29           RANKING
  10      1      2       -4.38      0.00    268.55           RANKING
  11      1     16       -4.33      0.00    269.96           RANKING
  12      1      5       -4.07      0.00    268.79           RANKING

Run time 0.926 sec
Idle time 0.000 sec
