AutoDock-GPU version: v1.6

**********************************************************
**    AutoDock-GPU AUTODOCKTOOLS-COMPATIBLE DLG FILE    **
**********************************************************


    DOCKING PARAMETERS
    ________________________


Ligand file:                               /home/a/REINVENT4/ReinventStudies/scoringData/graph-dock-h4r84i/graph-DockGPU/node-autodockgpu/inputs/VHXSVHVNRGGTDL-PKHXXGQGNA-M.pdbqt
Grid fld file:                             /home/a/REINVENT4/ReinventStudies/mols/Rad51/maps/rad51_receptor.maps.fld

Random seed:                               42
Number of runs:                            20
Number of energy evaluations:              2542121
Number of generations:                     42000
Size of population:                        150
Rate of crossover:                         80.000000%
Tournament selection probability limit:    60.000000%
Rate of mutation:                          2.000000%
Maximal allowed delta movement:            +/- 6.000000A
Maximal allowed delta angle:               +/- 90.000000

Rate of local search:                      100.000000%
Maximal number of local search iterations: 300
Rho lower bound:                           0.010000
Spread of local search delta movement:     2.000000A
Spread of local search delta angle:        74.999999
Limit of consecutive successes/failures:   4

Handle symmetry during clustering:         YES
RMSD tolerance:                            2.000000A

Program call in command line was:          /home/a/REINVENT4/ReinventStudies/adgpu-v1.6_linux_x64_cuda12_128wi --filelist batch.txt --heuristics 1 --nrun 20 --psize 150 --lsit 300 --seed 42 --heurmax 12000000 


    GRID PARAMETERS
    ________________________


Receptor name:                             rad51_receptor
Number of grid points (x, y, z):           53, 53, 53
Grid center (x, y, z):                     139.950000, 75.640000, 221.970000A
Grid size (x, y, z):                       19.500000, 19.500000, 19.500000A
Grid spacing:                              0.375000A


    LIGAND PARAMETERS
    ________________________


Ligand name:                               /home/a/REINVENT4/ReinventStudies/scoringData/graph-dock-h4r84i/graph-DockGPU/node-autodockgpu/inputs/VHXSVHVNRGGTDL-PKHXXGQGNA-M
Number of atoms:                           27
Number of rotatable bonds:                 10
Number of atom types:                      6


    DUMMY DATA (only for ADT-compatibility)
    ________________________


DPF> outlev 1
DPF> ga_run 20
DPF> fld /home/a/REINVENT4/ReinventStudies/mols/Rad51/maps/rad51_receptor.maps.fld
DPF> move /home/a/REINVENT4/ReinventStudies/scoringData/graph-dock-h4r84i/graph-DockGPU/node-autodockgpu/inputs/VHXSVHVNRGGTDL-PKHXXGQGNA-M.pdbqt


    COUNTER STATES
    ________________________


Number of energy evaluations performed:    1316997
Number of generations used:                85


    INPUT LIGAND PDBQT FILE:
    ________________________


INPUT-LIGAND-PDBQT: REMARK SMILES O=C(CCCOc1ccc(Cl)cc1Cl)[N-]/N=C/c1cccc(C(F)(F)F)c1
INPUT-LIGAND-PDBQT: REMARK SMILES IDX 2 1 1 2 15 3 16 4 17 5 18 6 19 7 27 8 20 9 22 10 21 11 23 12
INPUT-LIGAND-PDBQT: REMARK SMILES IDX 24 13 25 14 26 15 3 16 4 17 5 18 6 19 7 20 8 21 13 22 9 23
INPUT-LIGAND-PDBQT: REMARK SMILES IDX 12 24 10 25 14 26 11 27
INPUT-LIGAND-PDBQT: REMARK H PARENT
INPUT-LIGAND-PDBQT: ROOT
INPUT-LIGAND-PDBQT: ATOM      1  C   UNL     1       2.754  -2.719  -0.327  1.00  0.00     0.068 C 
INPUT-LIGAND-PDBQT: ATOM      2  O   UNL     1       3.428  -1.923   0.380  1.00  0.00    -0.319 OA
INPUT-LIGAND-PDBQT: ENDROOT
INPUT-LIGAND-PDBQT: BRANCH   1   3
INPUT-LIGAND-PDBQT: ATOM      3  N   UNL     1       2.407  -2.379  -1.675  1.00  0.00    -0.545 NA
INPUT-LIGAND-PDBQT: BRANCH   3   4
INPUT-LIGAND-PDBQT: ATOM      4  N   UNL     1       2.293  -1.063  -2.165  1.00  0.00    -0.372 NA
INPUT-LIGAND-PDBQT: BRANCH   4   5
INPUT-LIGAND-PDBQT: ATOM      5  C   UNL     1       2.044  -0.033  -1.412  1.00  0.00     0.094 C 
INPUT-LIGAND-PDBQT: BRANCH   5   6
INPUT-LIGAND-PDBQT: ATOM      6  C   UNL     1       1.859   1.310  -1.995  1.00  0.00    -0.009 A 
INPUT-LIGAND-PDBQT: ATOM      7  C   UNL     1       2.136   1.567  -3.348  1.00  0.00     0.009 A 
INPUT-LIGAND-PDBQT: ATOM      8  C   UNL     1       1.358   2.344  -1.187  1.00  0.00     0.022 A 
INPUT-LIGAND-PDBQT: ATOM      9  C   UNL     1       1.906   2.835  -3.884  1.00  0.00     0.001 A 
INPUT-LIGAND-PDBQT: ATOM     10  C   UNL     1       1.138   3.628  -1.718  1.00  0.00     0.056 A 
INPUT-LIGAND-PDBQT: ATOM     11  C   UNL     1       1.400   3.858  -3.078  1.00  0.00     0.013 A 
INPUT-LIGAND-PDBQT: BRANCH  10  12
INPUT-LIGAND-PDBQT: ATOM     12  C   UNL     1       0.528   4.718  -0.873  1.00  0.00     0.416 C 
INPUT-LIGAND-PDBQT: ATOM     13  F   UNL     1      -0.837   4.748  -1.087  1.00  0.00    -0.166 F 
INPUT-LIGAND-PDBQT: ATOM     14  F   UNL     1       1.066   5.947  -1.214  1.00  0.00    -0.166 F 
INPUT-LIGAND-PDBQT: ATOM     15  F   UNL     1       0.768   4.498   0.473  1.00  0.00    -0.166 F 
INPUT-LIGAND-PDBQT: ENDBRANCH  10  12
INPUT-LIGAND-PDBQT: ENDBRANCH   5   6
INPUT-LIGAND-PDBQT: ENDBRANCH   4   5
INPUT-LIGAND-PDBQT: ENDBRANCH   3   4
INPUT-LIGAND-PDBQT: ENDBRANCH   1   3
INPUT-LIGAND-PDBQT: BRANCH   1  16
INPUT-LIGAND-PDBQT: ATOM     16  C   UNL     1       2.348  -4.047   0.238  1.00  0.00     0.060 C 
INPUT-LIGAND-PDBQT: BRANCH  16  17
INPUT-LIGAND-PDBQT: ATOM     17  C   UNL     1       0.821  -4.229   0.285  1.00  0.00     0.048 C 
INPUT-LIGAND-PDBQT: BRANCH  17  18
INPUT-LIGAND-PDBQT: ATOM     18  C   UNL     1       0.097  -3.093   1.022  1.00  0.00     0.230 C 
INPUT-LIGAND-PDBQT: BRANCH  18  19
INPUT-LIGAND-PDBQT: ATOM     19  O   UNL     1      -0.279  -2.081   0.088  1.00  0.00    -0.492 OA
INPUT-LIGAND-PDBQT: BRANCH  19  20
INPUT-LIGAND-PDBQT: ATOM     20  C   UNL     1      -0.866  -0.851   0.424  1.00  0.00     0.137 A 
INPUT-LIGAND-PDBQT: ATOM     21  C   UNL     1      -0.976  -0.411   1.758  1.00  0.00     0.049 A 
INPUT-LIGAND-PDBQT: ATOM     22  C   UNL     1      -1.340  -0.025  -0.610  1.00  0.00     0.084 A 
INPUT-LIGAND-PDBQT: ATOM     23  C   UNL     1      -1.522   0.844   2.043  1.00  0.00     0.024 A 
INPUT-LIGAND-PDBQT: ATOM     24  C   UNL     1      -1.885   1.230  -0.317  1.00  0.00     0.045 A 
INPUT-LIGAND-PDBQT: ATOM     25  C   UNL     1      -1.971   1.667   1.007  1.00  0.00     0.042 A 
INPUT-LIGAND-PDBQT: ATOM     26  Cl  UNL     1      -1.266  -0.557  -2.283  1.00  0.00    -0.080 Cl
INPUT-LIGAND-PDBQT: ATOM     27  Cl  UNL     1      -2.646   3.245   1.369  1.00  0.00    -0.084 Cl
INPUT-LIGAND-PDBQT: ENDBRANCH  19  20
INPUT-LIGAND-PDBQT: ENDBRANCH  18  19
INPUT-LIGAND-PDBQT: ENDBRANCH  17  18
INPUT-LIGAND-PDBQT: ENDBRANCH  16  17
INPUT-LIGAND-PDBQT: ENDBRANCH   1  16
INPUT-LIGAND-PDBQT: TORSDOF 10


    FINAL DOCKED STATE:
    ________________________


Run:   1 / 20
Time taken for this run:   0.054s

DOCKED: MODEL        1
DOCKED: USER    Run = 1
DOCKED: USER
DOCKED: USER    Estimated Free Energy of Binding    =  -6.85 kcal/mol  [=(1)+(2)+(3)-(4)]
DOCKED: USER
DOCKED: USER    (1) Final Intermolecular Energy     =  -9.83 kcal/mol
DOCKED: USER        vdW + Hbond + desolv Energy     =  -9.92 kcal/mol
DOCKED: USER        Electrostatic Energy            =  +0.09 kcal/mol
DOCKED: USER        Moving Ligand-Fixed Receptor    =  -9.83 kcal/mol
DOCKED: USER        Moving Ligand-Moving Receptor   =  +0.00 kcal/mol
DOCKED: USER    (2) Final Total Internal Energy     =  -0.86 kcal/mol
DOCKED: USER    (3) Torsional Free Energy           =  +2.98 kcal/mol
DOCKED: USER    (4) Unbound System's Energy         =  -0.86 kcal/mol
DOCKED: USER
DOCKED: USER
DOCKED: REMARK SMILES O=C(CCCOc1ccc(Cl)cc1Cl)[N-]/N=C/c1cccc(C(F)(F)F)c1
DOCKED: REMARK SMILES IDX 2 1 1 2 15 3 16 4 17 5 18 6 19 7 27 8 20 9 22 10 21 11 23 12
DOCKED: REMARK SMILES IDX 24 13 25 14 26 15 3 16 4 17 5 18 6 19 7 20 8 21 13 22 9 23
DOCKED: REMARK SMILES IDX 12 24 10 25 14 26 11 27
DOCKED: REMARK H PARENT
DOCKED: USER                              x       y       z     vdW  Elec       q    Type
DOCKED: USER                           _______ _______ _______ _____ _____    ______ ____
DOCKED: ROOT
DOCKED: ATOM      1  C   UNL     1     139.657  74.546 221.902 -0.24 -0.01    +0.068 C  
DOCKED: ATOM      2  O   UNL     1     139.524  75.514 222.697 -0.47 +0.04    -0.319 OA 
DOCKED: ENDROOT
DOCKED: BRANCH   1   3
DOCKED: ATOM      3  N   UNL     1     139.647  73.199 222.389 -0.45 +0.09    -0.545 NA 
DOCKED: BRANCH   3   4
DOCKED: ATOM      4  N   UNL     1     140.659  72.628 223.186 -0.24 +0.00    -0.372 NA 
DOCKED: BRANCH   4   5
DOCKED: ATOM      5  C   UNL     1     140.637  71.398 223.607 -0.27 -0.01    +0.094 C  
DOCKED: BRANCH   5   6
DOCKED: ATOM      6  C   UNL     1     140.776  71.081 225.042 -0.53 +0.00    -0.009 A  
DOCKED: ATOM      7  C   UNL     1     140.994  72.088 225.997 -0.34 -0.00    +0.009 A  
DOCKED: ATOM      8  C   UNL     1     140.648  69.748 225.464 -0.45 -0.00    +0.022 A  
DOCKED: ATOM      9  C   UNL     1     141.073  71.765 227.353 -0.81 -0.00    +0.001 A  
DOCKED: ATOM     10  C   UNL     1     140.742  69.414 226.828 -0.53 -0.01    +0.056 A  
DOCKED: ATOM     11  C   UNL     1     140.937  70.438 227.769 -0.63 -0.00    +0.013 A  
DOCKED: BRANCH  10  12
DOCKED: ATOM     12  C   UNL     1     140.528  67.995 227.291 -0.29 -0.10    +0.416 C  
DOCKED: ATOM     13  F   UNL     1     141.164  67.132 226.418 -0.20 +0.05    -0.166 F  
DOCKED: ATOM     14  F   UNL     1     139.177  67.697 227.316 -0.16 +0.02    -0.166 F  
DOCKED: ATOM     15  F   UNL     1     141.038  67.805 228.564 -0.23 +0.05    -0.166 F  
DOCKED: ENDBRANCH  10  12
DOCKED: ENDBRANCH   5   6
DOCKED: ENDBRANCH   4   5
DOCKED: ENDBRANCH   3   4
DOCKED: ENDBRANCH   1   3
DOCKED: BRANCH   1  16
DOCKED: ATOM     16  C   UNL     1     139.787  74.810 220.432 -0.14 -0.01    +0.060 C  
DOCKED: BRANCH  16  17
DOCKED: ATOM     17  C   UNL     1     141.242  74.716 219.940 -0.17 -0.01    +0.048 C  
DOCKED: BRANCH  17  18
DOCKED: ATOM     18  C   UNL     1     142.056  75.991 220.205 -0.18 -0.11    +0.230 C  
DOCKED: BRANCH  18  19
DOCKED: ATOM     19  O   UNL     1     141.170  77.069 220.503 -0.05 +0.22    -0.492 OA 
DOCKED: BRANCH  19  20
DOCKED: ATOM     20  C   UNL     1     141.444  78.114 221.401 -0.29 -0.07    +0.137 A  
DOCKED: ATOM     21  C   UNL     1     141.370  77.942 222.797 -0.41 -0.02    +0.049 A  
DOCKED: ATOM     22  C   UNL     1     141.824  79.365 220.884 -0.30 -0.05    +0.084 A  
DOCKED: ATOM     23  C   UNL     1     141.701  78.996 223.654 -0.60 -0.01    +0.024 A  
DOCKED: ATOM     24  C   UNL     1     142.154  80.414 221.748 -0.44 -0.02    +0.045 A  
DOCKED: ATOM     25  C   UNL     1     142.098  80.229 223.132 -0.59 -0.01    +0.042 A  
DOCKED: ATOM     26  Cl  UNL     1     141.881  79.634 219.149 -0.35 +0.05    -0.080 Cl 
DOCKED: ATOM     27  Cl  UNL     1     142.522  81.545 224.212 -0.56 +0.01    -0.084 Cl 
DOCKED: ENDBRANCH  19  20
DOCKED: ENDBRANCH  18  19
DOCKED: ENDBRANCH  17  18
DOCKED: ENDBRANCH  16  17
DOCKED: ENDBRANCH   1  16
DOCKED: TORSDOF 10
DOCKED: TER
DOCKED: ENDMDL
________________________________________________________________________________


    FINAL DOCKED STATE:
    ________________________


Run:   2 / 20
Time taken for this run:   0.054s

DOCKED: MODEL        2
DOCKED: USER    Run = 2
DOCKED: USER
DOCKED: USER    Estimated Free Energy of Binding    =  -6.66 kcal/mol  [=(1)+(2)+(3)-(4)]
DOCKED: USER
DOCKED: USER    (1) Final Intermolecular Energy     =  -9.64 kcal/mol
DOCKED: USER        vdW + Hbond + desolv Energy     =  -9.82 kcal/mol
DOCKED: USER        Electrostatic Energy            =  +0.17 kcal/mol
DOCKED: USER        Moving Ligand-Fixed Receptor    =  -9.64 kcal/mol
DOCKED: USER        Moving Ligand-Moving Receptor   =  +0.00 kcal/mol
DOCKED: USER    (2) Final Total Internal Energy     =  -0.73 kcal/mol
DOCKED: USER    (3) Torsional Free Energy           =  +2.98 kcal/mol
DOCKED: USER    (4) Unbound System's Energy         =  -0.73 kcal/mol
DOCKED: USER
DOCKED: USER
DOCKED: REMARK SMILES O=C(CCCOc1ccc(Cl)cc1Cl)[N-]/N=C/c1cccc(C(F)(F)F)c1
DOCKED: REMARK SMILES IDX 2 1 1 2 15 3 16 4 17 5 18 6 19 7 27 8 20 9 22 10 21 11 23 12
DOCKED: REMARK SMILES IDX 24 13 25 14 26 15 3 16 4 17 5 18 6 19 7 20 8 21 13 22 9 23
DOCKED: REMARK SMILES IDX 12 24 10 25 14 26 11 27
DOCKED: REMARK H PARENT
DOCKED: USER                              x       y       z     vdW  Elec       q    Type
DOCKED: USER                           _______ _______ _______ _____ _____    ______ ____
DOCKED: ROOT
DOCKED: ATOM      1  C   UNL     1     140.565  73.885 221.722 -0.24 -0.01    +0.068 C  
DOCKED: ATOM      2  O   UNL     1     139.596  74.391 222.348 -0.76 +0.04    -0.319 OA 
DOCKED: ENDROOT
DOCKED: BRANCH   1   3
DOCKED: ATOM      3  N   UNL     1     140.797  72.471 221.759 -0.10 +0.05    -0.545 NA 
DOCKED: BRANCH   3   4
DOCKED: ATOM      4  N   UNL     1     141.014  71.726 222.935 -0.08 +0.02    -0.372 NA 
DOCKED: BRANCH   4   5
DOCKED: ATOM      5  C   UNL     1     140.099  71.517 223.835 -0.36 -0.02    +0.094 C  
DOCKED: BRANCH   5   6
DOCKED: ATOM      6  C   UNL     1     140.459  71.110 225.207 -0.54 +0.00    -0.009 A  
DOCKED: ATOM      7  C   UNL     1     140.812  72.056 226.183 -0.41 -0.00    +0.009 A  
DOCKED: ATOM      8  C   UNL     1     140.408  69.750 225.553 -0.46 -0.00    +0.022 A  
DOCKED: ATOM      9  C   UNL     1     141.101  71.647 227.486 -0.80 -0.00    +0.001 A  
DOCKED: ATOM     10  C   UNL     1     140.713  69.330 226.860 -0.53 -0.01    +0.056 A  
DOCKED: ATOM     11  C   UNL     1     141.042  70.293 227.827 -0.61 -0.00    +0.013 A  
DOCKED: BRANCH  10  12
DOCKED: ATOM     12  C   UNL     1     140.585  67.880 227.254 -0.27 -0.11    +0.416 C  
DOCKED: ATOM     13  F   UNL     1     141.103  67.706 228.523 -0.20 +0.05    -0.166 F  
DOCKED: ATOM     14  F   UNL     1     141.283  67.078 226.367 -0.16 +0.05    -0.166 F  
DOCKED: ATOM     15  F   UNL     1     139.259  67.478 227.250 -0.20 +0.03    -0.166 F  
DOCKED: ENDBRANCH  10  12
DOCKED: ENDBRANCH   5   6
DOCKED: ENDBRANCH   4   5
DOCKED: ENDBRANCH   3   4
DOCKED: ENDBRANCH   1   3
DOCKED: BRANCH   1  16
DOCKED: ATOM     16  C   UNL     1     141.457  74.768 220.902 -0.28 -0.02    +0.060 C  
DOCKED: BRANCH  16  17
DOCKED: ATOM     17  C   UNL     1     140.723  76.001 220.348 -0.20 -0.02    +0.048 C  
DOCKED: BRANCH  17  18
DOCKED: ATOM     18  C   UNL     1     141.525  77.302 220.496 -0.20 -0.12    +0.230 C  
DOCKED: BRANCH  18  19
DOCKED: ATOM     19  O   UNL     1     141.546  77.697 221.868 -0.08 +0.28    -0.492 OA 
DOCKED: BRANCH  19  20
DOCKED: ATOM     20  C   UNL     1     140.593  78.524 222.484 -0.33 -0.04    +0.137 A  
DOCKED: ATOM     21  C   UNL     1     139.220  78.210 222.493 -0.28 -0.01    +0.049 A  
DOCKED: ATOM     22  C   UNL     1     141.032  79.693 223.129 -0.44 -0.02    +0.084 A  
DOCKED: ATOM     23  C   UNL     1     138.313  79.037 223.163 -0.27 -0.00    +0.024 A  
DOCKED: ATOM     24  C   UNL     1     140.119  80.516 223.797 -0.39 -0.01    +0.045 A  
DOCKED: ATOM     25  C   UNL     1     138.761  80.186 223.819 -0.39 -0.01    +0.042 A  
DOCKED: ATOM     26  Cl  UNL     1     142.730  80.147 223.099 -0.81 +0.03    -0.080 Cl 
DOCKED: ATOM     27  Cl  UNL     1     137.621  81.215 224.666 -0.46 +0.01    -0.084 Cl 
DOCKED: ENDBRANCH  19  20
DOCKED: ENDBRANCH  18  19
DOCKED: ENDBRANCH  17  18
DOCKED: ENDBRANCH  16  17
DOCKED: ENDBRANCH   1  16
DOCKED: TORSDOF 10
DOCKED: TER
DOCKED: ENDMDL
________________________________________________________________________________


    FINAL DOCKED STATE:
    ________________________


Run:   3 / 20
Time taken for this run:   0.054s

DOCKED: MODEL        3
DOCKED: USER    Run = 3
DOCKED: USER
DOCKED: USER    Estimated Free Energy of Binding    =  -4.63 kcal/mol  [=(1)+(2)+(3)-(4)]
DOCKED: USER
DOCKED: USER    (1) Final Intermolecular Energy     =  -7.61 kcal/mol
DOCKED: USER        vdW + Hbond + desolv Energy     =  -7.73 kcal/mol
DOCKED: USER        Electrostatic Energy            =  +0.12 kcal/mol
DOCKED: USER        Moving Ligand-Fixed Receptor    =  -7.61 kcal/mol
DOCKED: USER        Moving Ligand-Moving Receptor   =  +0.00 kcal/mol
DOCKED: USER    (2) Final Total Internal Energy     =  -1.92 kcal/mol
DOCKED: USER    (3) Torsional Free Energy           =  +2.98 kcal/mol
DOCKED: USER    (4) Unbound System's Energy         =  -1.92 kcal/mol
DOCKED: USER
DOCKED: USER
DOCKED: REMARK SMILES O=C(CCCOc1ccc(Cl)cc1Cl)[N-]/N=C/c1cccc(C(F)(F)F)c1
DOCKED: REMARK SMILES IDX 2 1 1 2 15 3 16 4 17 5 18 6 19 7 27 8 20 9 22 10 21 11 23 12
DOCKED: REMARK SMILES IDX 24 13 25 14 26 15 3 16 4 17 5 18 6 19 7 20 8 21 13 22 9 23
DOCKED: REMARK SMILES IDX 12 24 10 25 14 26 11 27
DOCKED: REMARK H PARENT
DOCKED: USER                              x       y       z     vdW  Elec       q    Type
DOCKED: USER                           _______ _______ _______ _____ _____    ______ ____
DOCKED: ROOT
DOCKED: ATOM      1  C   UNL     1     140.459  74.118 221.712 -0.23 -0.01    +0.068 C  
DOCKED: ATOM      2  O   UNL     1     140.677  73.056 222.355 -0.66 +0.00    -0.319 OA 
DOCKED: ENDROOT
DOCKED: BRANCH   1   3
DOCKED: ATOM      3  N   UNL     1     139.709  75.185 222.305 -0.45 +0.07    -0.545 NA 
DOCKED: BRANCH   3   4
DOCKED: ATOM      4  N   UNL     1     139.684  76.509 221.824 -0.14 +0.09    -0.372 NA 
DOCKED: BRANCH   4   5
DOCKED: ATOM      5  C   UNL     1     139.456  77.545 222.576 -0.26 -0.02    +0.094 C  
DOCKED: BRANCH   5   6
DOCKED: ATOM      6  C   UNL     1     140.445  78.634 222.694 -0.41 +0.00    -0.009 A  
DOCKED: ATOM      7  C   UNL     1     141.611  78.486 223.463 -0.57 -0.00    +0.009 A  
DOCKED: ATOM      8  C   UNL     1     140.233  79.830 221.988 -0.27 -0.01    +0.022 A  
DOCKED: ATOM      9  C   UNL     1     142.553  79.515 223.517 -0.58 -0.00    +0.001 A  
DOCKED: ATOM     10  C   UNL     1     141.171  80.876 222.050 -0.38 -0.01    +0.056 A  
DOCKED: ATOM     11  C   UNL     1     142.341  80.700 222.807 -0.59 -0.00    +0.013 A  
DOCKED: BRANCH  10  12
DOCKED: ATOM     12  C   UNL     1     140.984  82.130 221.233 -0.15 -0.09    +0.416 C  
DOCKED: ATOM     13  F   UNL     1     139.636  82.319 220.995 -0.05 +0.03    -0.166 F  
DOCKED: ATOM     14  F   UNL     1     141.645  82.016 220.022 -0.10 +0.05    -0.166 F  
DOCKED: ATOM     15  F   UNL     1     141.484  83.237 221.898 -0.09 +0.02    -0.166 F  
DOCKED: ENDBRANCH  10  12
DOCKED: ENDBRANCH   5   6
DOCKED: ENDBRANCH   4   5
DOCKED: ENDBRANCH   3   4
DOCKED: ENDBRANCH   1   3
DOCKED: BRANCH   1  16
DOCKED: ATOM     16  C   UNL     1     141.024  74.276 220.332 -0.19 -0.01    +0.060 C  
DOCKED: BRANCH  16  17
DOCKED: ATOM     17  C   UNL     1     142.333  73.492 220.135 -0.21 -0.01    +0.048 C  
DOCKED: BRANCH  17  18
DOCKED: ATOM     18  C   UNL     1     143.577  74.262 220.599 -0.19 -0.08    +0.230 C  
DOCKED: BRANCH  18  19
DOCKED: ATOM     19  O   UNL     1     143.995  75.159 219.570 -0.16 +0.26    -0.492 OA 
DOCKED: BRANCH  19  20
DOCKED: ATOM     20  C   UNL     1     143.290  76.302 219.162 -0.32 -0.09    +0.137 A  
DOCKED: ATOM     21  C   UNL     1     142.623  77.140 220.077 -0.25 -0.04    +0.049 A  
DOCKED: ATOM     22  C   UNL     1     143.269  76.629 217.795 -0.25 -0.05    +0.084 A  
DOCKED: ATOM     23  C   UNL     1     141.976  78.296 219.632 -0.26 -0.02    +0.024 A  
DOCKED: ATOM     24  C   UNL     1     142.620  77.788 217.356 -0.26 -0.04    +0.045 A  
DOCKED: ATOM     25  C   UNL     1     141.979  78.624 218.273 -0.25 -0.03    +0.042 A  
DOCKED: ATOM     26  Cl  UNL     1     144.048  75.585 216.615 -0.24 +0.04    -0.080 Cl 
DOCKED: ATOM     27  Cl  UNL     1     141.174  80.082 217.720 -0.20 +0.05    -0.084 Cl 
DOCKED: ENDBRANCH  19  20
DOCKED: ENDBRANCH  18  19
DOCKED: ENDBRANCH  17  18
DOCKED: ENDBRANCH  16  17
DOCKED: ENDBRANCH   1  16
DOCKED: TORSDOF 10
DOCKED: TER
DOCKED: ENDMDL
________________________________________________________________________________


    FINAL DOCKED STATE:
    ________________________


Run:   4 / 20
Time taken for this run:   0.054s

DOCKED: MODEL        4
DOCKED: USER    Run = 4
DOCKED: USER
DOCKED: USER    Estimated Free Energy of Binding    =  -6.31 kcal/mol  [=(1)+(2)+(3)-(4)]
DOCKED: USER
DOCKED: USER    (1) Final Intermolecular Energy     =  -9.29 kcal/mol
DOCKED: USER        vdW + Hbond + desolv Energy     =  -9.39 kcal/mol
DOCKED: USER        Electrostatic Energy            =  +0.10 kcal/mol
DOCKED: USER        Moving Ligand-Fixed Receptor    =  -9.29 kcal/mol
DOCKED: USER        Moving Ligand-Moving Receptor   =  +0.00 kcal/mol
DOCKED: USER    (2) Final Total Internal Energy     =  -0.88 kcal/mol
DOCKED: USER    (3) Torsional Free Energy           =  +2.98 kcal/mol
DOCKED: USER    (4) Unbound System's Energy         =  -0.88 kcal/mol
DOCKED: USER
DOCKED: USER
DOCKED: REMARK SMILES O=C(CCCOc1ccc(Cl)cc1Cl)[N-]/N=C/c1cccc(C(F)(F)F)c1
DOCKED: REMARK SMILES IDX 2 1 1 2 15 3 16 4 17 5 18 6 19 7 27 8 20 9 22 10 21 11 23 12
DOCKED: REMARK SMILES IDX 24 13 25 14 26 15 3 16 4 17 5 18 6 19 7 20 8 21 13 22 9 23
DOCKED: REMARK SMILES IDX 12 24 10 25 14 26 11 27
DOCKED: REMARK H PARENT
DOCKED: USER                              x       y       z     vdW  Elec       q    Type
DOCKED: USER                           _______ _______ _______ _____ _____    ______ ____
DOCKED: ROOT
DOCKED: ATOM      1  C   UNL     1     138.947  73.467 221.933 -0.19 -0.02    +0.068 C  
DOCKED: ATOM      2  O   UNL     1     139.903  74.169 222.356 -0.80 +0.01    -0.319 OA 
DOCKED: ENDROOT
DOCKED: BRANCH   1   3
DOCKED: ATOM      3  N   UNL     1     139.152  72.091 221.588 -0.02 +0.11    -0.545 NA 
DOCKED: BRANCH   3   4
DOCKED: ATOM      4  N   UNL     1     140.016  71.214 222.273 -0.10 +0.06    -0.372 NA 
DOCKED: BRANCH   4   5
DOCKED: ATOM      5  C   UNL     1     139.624  70.402 223.210 -0.23 -0.02    +0.094 C  
DOCKED: BRANCH   5   6
DOCKED: ATOM      6  C   UNL     1     140.102  70.552 224.598 -0.43 +0.00    -0.009 A  
DOCKED: ATOM      7  C   UNL     1     140.657  71.758 225.057 -0.44 -0.00    +0.009 A  
DOCKED: ATOM      8  C   UNL     1     139.965  69.475 225.489 -0.43 -0.00    +0.022 A  
DOCKED: ATOM      9  C   UNL     1     141.057  71.887 226.387 -0.70 -0.00    +0.001 A  
DOCKED: ATOM     10  C   UNL     1     140.380  69.594 226.828 -0.52 -0.01    +0.056 A  
DOCKED: ATOM     11  C   UNL     1     140.911  70.815 227.272 -0.66 -0.00    +0.013 A  
DOCKED: BRANCH  10  12
DOCKED: ATOM     12  C   UNL     1     140.162  68.467 227.806 -0.28 -0.09    +0.416 C  
DOCKED: ATOM     13  F   UNL     1     139.541  68.961 228.937 -0.17 +0.02    -0.166 F  
DOCKED: ATOM     14  F   UNL     1     141.374  67.903 228.165 -0.22 +0.05    -0.166 F  
DOCKED: ATOM     15  F   UNL     1     139.369  67.475 227.254 -0.20 +0.03    -0.166 F  
DOCKED: ENDBRANCH  10  12
DOCKED: ENDBRANCH   5   6
DOCKED: ENDBRANCH   4   5
DOCKED: ENDBRANCH   3   4
DOCKED: ENDBRANCH   1   3
DOCKED: BRANCH   1  16
DOCKED: ATOM     16  C   UNL     1     137.578  74.068 221.827 -0.14 -0.02    +0.060 C  
DOCKED: BRANCH  16  17
DOCKED: ATOM     17  C   UNL     1     137.519  75.506 222.372 -0.21 -0.01    +0.048 C  
DOCKED: BRANCH  17  18
DOCKED: ATOM     18  C   UNL     1     138.177  76.535 221.441 -0.13 -0.05    +0.230 C  
DOCKED: BRANCH  18  19
DOCKED: ATOM     19  O   UNL     1     138.175  77.817 222.069 -0.05 +0.09    -0.492 OA 
DOCKED: BRANCH  19  20
DOCKED: ATOM     20  C   UNL     1     139.316  78.488 222.535 -0.25 -0.03    +0.137 A  
DOCKED: ATOM     21  C   UNL     1     140.619  78.002 222.307 -0.38 -0.02    +0.049 A  
DOCKED: ATOM     22  C   UNL     1     139.150  79.697 223.234 -0.33 -0.01    +0.084 A  
DOCKED: ATOM     23  C   UNL     1     141.729  78.730 222.745 -0.50 -0.01    +0.024 A  
DOCKED: ATOM     24  C   UNL     1     140.266  80.420 223.669 -0.41 -0.01    +0.045 A  
DOCKED: ATOM     25  C   UNL     1     141.554  79.941 223.421 -0.55 -0.01    +0.042 A  
DOCKED: ATOM     26  Cl  UNL     1     137.541  80.312 223.581 -0.35 +0.01    -0.080 Cl 
DOCKED: ATOM     27  Cl  UNL     1     142.950  80.855 223.960 -0.71 +0.02    -0.084 Cl 
DOCKED: ENDBRANCH  19  20
DOCKED: ENDBRANCH  18  19
DOCKED: ENDBRANCH  17  18
DOCKED: ENDBRANCH  16  17
DOCKED: ENDBRANCH   1  16
DOCKED: TORSDOF 10
DOCKED: TER
DOCKED: ENDMDL
________________________________________________________________________________


    FINAL DOCKED STATE:
    ________________________


Run:   5 / 20
Time taken for this run:   0.054s

DOCKED: MODEL        5
DOCKED: USER    Run = 5
DOCKED: USER
DOCKED: USER    Estimated Free Energy of Binding    =  -5.11 kcal/mol  [=(1)+(2)+(3)-(4)]
DOCKED: USER
DOCKED: USER    (1) Final Intermolecular Energy     =  -8.10 kcal/mol
DOCKED: USER        vdW + Hbond + desolv Energy     =  -8.20 kcal/mol
DOCKED: USER        Electrostatic Energy            =  +0.11 kcal/mol
DOCKED: USER        Moving Ligand-Fixed Receptor    =  -8.10 kcal/mol
DOCKED: USER        Moving Ligand-Moving Receptor   =  +0.00 kcal/mol
DOCKED: USER    (2) Final Total Internal Energy     =  -1.82 kcal/mol
DOCKED: USER    (3) Torsional Free Energy           =  +2.98 kcal/mol
DOCKED: USER    (4) Unbound System's Energy         =  -1.82 kcal/mol
DOCKED: USER
DOCKED: USER
DOCKED: REMARK SMILES O=C(CCCOc1ccc(Cl)cc1Cl)[N-]/N=C/c1cccc(C(F)(F)F)c1
DOCKED: REMARK SMILES IDX 2 1 1 2 15 3 16 4 17 5 18 6 19 7 27 8 20 9 22 10 21 11 23 12
DOCKED: REMARK SMILES IDX 24 13 25 14 26 15 3 16 4 17 5 18 6 19 7 20 8 21 13 22 9 23
DOCKED: REMARK SMILES IDX 12 24 10 25 14 26 11 27
DOCKED: REMARK H PARENT
DOCKED: USER                              x       y       z     vdW  Elec       q    Type
DOCKED: USER                           _______ _______ _______ _____ _____    ______ ____
DOCKED: ROOT
DOCKED: ATOM      1  C   UNL     1     139.982  74.950 221.621 -0.29 -0.01    +0.068 C  
DOCKED: ATOM      2  O   UNL     1     140.361  74.890 220.421 -0.08 +0.08    -0.319 OA 
DOCKED: ENDROOT
DOCKED: BRANCH   1   3
DOCKED: ATOM      3  N   UNL     1     139.627  73.758 222.333 -0.62 +0.08    -0.545 NA 
DOCKED: BRANCH   3   4
DOCKED: ATOM      4  N   UNL     1     140.551  72.828 222.848 -0.40 -0.00    -0.372 NA 
DOCKED: BRANCH   4   5
DOCKED: ATOM      5  C   UNL     1     140.312  71.555 222.949 -0.30 -0.01    +0.094 C  
DOCKED: BRANCH   5   6
DOCKED: ATOM      6  C   UNL     1     140.079  70.925 224.263 -0.43 +0.00    -0.009 A  
DOCKED: ATOM      7  C   UNL     1     139.441  69.679 224.377 -0.34 -0.00    +0.009 A  
DOCKED: ATOM      8  C   UNL     1     140.540  71.569 225.423 -0.52 -0.00    +0.022 A  
DOCKED: ATOM      9  C   UNL     1     139.277  69.084 225.629 -0.45 -0.00    +0.001 A  
DOCKED: ATOM     10  C   UNL     1     140.365  70.982 226.689 -0.58 -0.01    +0.056 A  
DOCKED: ATOM     11  C   UNL     1     139.745  69.726 226.779 -0.52 -0.00    +0.013 A  
DOCKED: BRANCH  10  12
DOCKED: ATOM     12  C   UNL     1     140.928  71.635 227.927 -0.40 -0.09    +0.416 C  
DOCKED: ATOM     13  F   UNL     1     141.805  72.635 227.553 -0.35 +0.03    -0.166 F  
DOCKED: ATOM     14  F   UNL     1     141.605  70.703 228.695 -0.14 +0.03    -0.166 F  
DOCKED: ATOM     15  F   UNL     1     139.920  72.186 228.701 -0.29 +0.06    -0.166 F  
DOCKED: ENDBRANCH  10  12
DOCKED: ENDBRANCH   5   6
DOCKED: ENDBRANCH   4   5
DOCKED: ENDBRANCH   3   4
DOCKED: ENDBRANCH   1   3
DOCKED: BRANCH   1  16
DOCKED: ATOM     16  C   UNL     1     139.940  76.277 222.318 -0.33 -0.01    +0.060 C  
DOCKED: BRANCH  16  17
DOCKED: ATOM     17  C   UNL     1     138.514  76.690 222.723 -0.27 -0.01    +0.048 C  
DOCKED: BRANCH  17  18
DOCKED: ATOM     18  C   UNL     1     137.453  76.305 221.682 -0.13 -0.05    +0.230 C  
DOCKED: BRANCH  18  19
DOCKED: ATOM     19  O   UNL     1     136.306  75.773 222.344 -0.06 +0.10    -0.492 OA 
DOCKED: BRANCH  19  20
DOCKED: ATOM     20  C   UNL     1     136.186  74.456 222.816 -0.15 -0.04    +0.137 A  
DOCKED: ATOM     21  C   UNL     1     136.699  73.354 222.105 -0.13 -0.01    +0.049 A  
DOCKED: ATOM     22  C   UNL     1     135.549  74.238 224.050 -0.22 -0.02    +0.084 A  
DOCKED: ATOM     23  C   UNL     1     136.602  72.065 222.637 -0.14 -0.01    +0.024 A  
DOCKED: ATOM     24  C   UNL     1     135.455  72.945 224.577 -0.20 -0.01    +0.045 A  
DOCKED: ATOM     25  C   UNL     1     135.986  71.860 223.875 -0.19 -0.01    +0.042 A  
DOCKED: ATOM     26  Cl  UNL     1     134.851  75.579 224.945 -0.44 +0.01    -0.080 Cl 
DOCKED: ATOM     27  Cl  UNL     1     135.875  70.242 224.543 -0.25 +0.01    -0.084 Cl 
DOCKED: ENDBRANCH  19  20
DOCKED: ENDBRANCH  18  19
DOCKED: ENDBRANCH  17  18
DOCKED: ENDBRANCH  16  17
DOCKED: ENDBRANCH   1  16
DOCKED: TORSDOF 10
DOCKED: TER
DOCKED: ENDMDL
________________________________________________________________________________


    FINAL DOCKED STATE:
    ________________________


Run:   6 / 20
Time taken for this run:   0.054s

DOCKED: MODEL        6
DOCKED: USER    Run = 6
DOCKED: USER
DOCKED: USER    Estimated Free Energy of Binding    =  -5.91 kcal/mol  [=(1)+(2)+(3)-(4)]
DOCKED: USER
DOCKED: USER    (1) Final Intermolecular Energy     =  -8.89 kcal/mol
DOCKED: USER        vdW + Hbond + desolv Energy     =  -9.22 kcal/mol
DOCKED: USER        Electrostatic Energy            =  +0.33 kcal/mol
DOCKED: USER        Moving Ligand-Fixed Receptor    =  -8.89 kcal/mol
DOCKED: USER        Moving Ligand-Moving Receptor   =  +0.00 kcal/mol
DOCKED: USER    (2) Final Total Internal Energy     =  -0.83 kcal/mol
DOCKED: USER    (3) Torsional Free Energy           =  +2.98 kcal/mol
DOCKED: USER    (4) Unbound System's Energy         =  -0.83 kcal/mol
DOCKED: USER
DOCKED: USER
DOCKED: REMARK SMILES O=C(CCCOc1ccc(Cl)cc1Cl)[N-]/N=C/c1cccc(C(F)(F)F)c1
DOCKED: REMARK SMILES IDX 2 1 1 2 15 3 16 4 17 5 18 6 19 7 27 8 20 9 22 10 21 11 23 12
DOCKED: REMARK SMILES IDX 24 13 25 14 26 15 3 16 4 17 5 18 6 19 7 20 8 21 13 22 9 23
DOCKED: REMARK SMILES IDX 12 24 10 25 14 26 11 27
DOCKED: REMARK H PARENT
DOCKED: USER                              x       y       z     vdW  Elec       q    Type
DOCKED: USER                           _______ _______ _______ _____ _____    ______ ____
DOCKED: ROOT
DOCKED: ATOM      1  C   UNL     1     139.741  75.267 222.046 -0.24 -0.01    +0.068 C  
DOCKED: ATOM      2  O   UNL     1     138.994  76.035 222.711 -0.29 +0.06    -0.319 OA 
DOCKED: ENDROOT
DOCKED: BRANCH   1   3
DOCKED: ATOM      3  N   UNL     1     140.963  75.754 221.478 -0.12 +0.16    -0.545 NA 
DOCKED: BRANCH   3   4
DOCKED: ATOM      4  N   UNL     1     141.052  76.829 220.573 -0.08 +0.16    -0.372 NA 
DOCKED: BRANCH   4   5
DOCKED: ATOM      5  C   UNL     1     141.818  77.863 220.756 -0.27 -0.06    +0.094 C  
DOCKED: BRANCH   5   6
DOCKED: ATOM      6  C   UNL     1     141.548  78.828 221.840 -0.42 +0.00    -0.009 A  
DOCKED: ATOM      7  C   UNL     1     142.587  79.538 222.465 -0.55 -0.00    +0.009 A  
DOCKED: ATOM      8  C   UNL     1     140.220  79.070 222.226 -0.31 -0.01    +0.022 A  
DOCKED: ATOM      9  C   UNL     1     142.298  80.480 223.454 -0.65 -0.00    +0.001 A  
DOCKED: ATOM     10  C   UNL     1     139.924  80.007 223.232 -0.38 -0.01    +0.056 A  
DOCKED: ATOM     11  C   UNL     1     140.974  80.723 223.829 -0.46 -0.00    +0.013 A  
DOCKED: BRANCH  10  12
DOCKED: ATOM     12  C   UNL     1     138.495  80.324 223.595 -0.17 -0.05    +0.416 C  
DOCKED: ATOM     13  F   UNL     1     137.685  79.270 223.215 -0.08 +0.02    -0.166 F  
DOCKED: ATOM     14  F   UNL     1     138.078  81.472 222.943 -0.06 +0.02    -0.166 F  
DOCKED: ATOM     15  F   UNL     1     138.360  80.527 224.958 -0.16 +0.01    -0.166 F  
DOCKED: ENDBRANCH  10  12
DOCKED: ENDBRANCH   5   6
DOCKED: ENDBRANCH   4   5
DOCKED: ENDBRANCH   3   4
DOCKED: ENDBRANCH   1   3
DOCKED: BRANCH   1  16
DOCKED: ATOM     16  C   UNL     1     139.362  73.825 221.886 -0.23 -0.01    +0.060 C  
DOCKED: BRANCH  16  17
DOCKED: ATOM     17  C   UNL     1     140.583  72.912 221.683 -0.28 -0.01    +0.048 C  
DOCKED: BRANCH  17  18
DOCKED: ATOM     18  C   UNL     1     140.480  71.583 222.445 -0.20 -0.03    +0.230 C  
DOCKED: BRANCH  18  19
DOCKED: ATOM     19  O   UNL     1     139.889  71.810 223.724 -0.19 +0.10    -0.492 OA 
DOCKED: BRANCH  19  20
DOCKED: ATOM     20  C   UNL     1     140.126  71.038 224.872 -0.40 -0.02    +0.137 A  
DOCKED: ATOM     21  C   UNL     1     140.931  71.498 225.933 -0.60 -0.01    +0.049 A  
DOCKED: ATOM     22  C   UNL     1     139.523  69.772 224.969 -0.35 -0.01    +0.084 A  
DOCKED: ATOM     23  C   UNL     1     141.099  70.716 227.080 -0.61 -0.00    +0.024 A  
DOCKED: ATOM     24  C   UNL     1     139.696  68.995 226.120 -0.48 -0.01    +0.045 A  
DOCKED: ATOM     25  C   UNL     1     140.478  69.468 227.177 -0.56 -0.01    +0.042 A  
DOCKED: ATOM     26  Cl  UNL     1     138.553  69.141 223.648 -0.35 +0.01    -0.080 Cl 
DOCKED: ATOM     27  Cl  UNL     1     140.684  68.494 228.621 -0.74 +0.02    -0.084 Cl 
DOCKED: ENDBRANCH  19  20
DOCKED: ENDBRANCH  18  19
DOCKED: ENDBRANCH  17  18
DOCKED: ENDBRANCH  16  17
DOCKED: ENDBRANCH   1  16
DOCKED: TORSDOF 10
DOCKED: TER
DOCKED: ENDMDL
________________________________________________________________________________


    FINAL DOCKED STATE:
    ________________________


Run:   7 / 20
Time taken for this run:   0.054s

DOCKED: MODEL        7
DOCKED: USER    Run = 7
DOCKED: USER
DOCKED: USER    Estimated Free Energy of Binding    =  -6.58 kcal/mol  [=(1)+(2)+(3)-(4)]
DOCKED: USER
DOCKED: USER    (1) Final Intermolecular Energy     =  -9.56 kcal/mol
DOCKED: USER        vdW + Hbond + desolv Energy     =  -9.64 kcal/mol
DOCKED: USER        Electrostatic Energy            =  +0.08 kcal/mol
DOCKED: USER        Moving Ligand-Fixed Receptor    =  -9.56 kcal/mol
DOCKED: USER        Moving Ligand-Moving Receptor   =  +0.00 kcal/mol
DOCKED: USER    (2) Final Total Internal Energy     =  -0.68 kcal/mol
DOCKED: USER    (3) Torsional Free Energy           =  +2.98 kcal/mol
DOCKED: USER    (4) Unbound System's Energy         =  -0.68 kcal/mol
DOCKED: USER
DOCKED: USER
DOCKED: REMARK SMILES O=C(CCCOc1ccc(Cl)cc1Cl)[N-]/N=C/c1cccc(C(F)(F)F)c1
DOCKED: REMARK SMILES IDX 2 1 1 2 15 3 16 4 17 5 18 6 19 7 27 8 20 9 22 10 21 11 23 12
DOCKED: REMARK SMILES IDX 24 13 25 14 26 15 3 16 4 17 5 18 6 19 7 20 8 21 13 22 9 23
DOCKED: REMARK SMILES IDX 12 24 10 25 14 26 11 27
DOCKED: REMARK H PARENT
DOCKED: USER                              x       y       z     vdW  Elec       q    Type
DOCKED: USER                           _______ _______ _______ _____ _____    ______ ____
DOCKED: ROOT
DOCKED: ATOM      1  C   UNL     1     140.258  74.721 221.961 -0.16 -0.01    +0.068 C  
DOCKED: ATOM      2  O   UNL     1     141.388  74.956 221.456 -0.32 +0.08    -0.319 OA 
DOCKED: ENDROOT
DOCKED: BRANCH   1   3
DOCKED: ATOM      3  N   UNL     1     139.884  73.384 222.317 -0.60 +0.06    -0.545 NA 
DOCKED: BRANCH   3   4
DOCKED: ATOM      4  N   UNL     1     140.686  72.502 223.068 -0.30 +0.01    -0.372 NA 
DOCKED: BRANCH   4   5
DOCKED: ATOM      5  C   UNL     1     140.231  71.428 223.642 -0.35 -0.01    +0.094 C  
DOCKED: BRANCH   5   6
DOCKED: ATOM      6  C   UNL     1     140.536  71.133 225.056 -0.53 +0.00    -0.009 A  
DOCKED: ATOM      7  C   UNL     1     140.939  72.142 225.946 -0.22 -0.00    +0.009 A  
DOCKED: ATOM      8  C   UNL     1     140.381  69.819 225.530 -0.46 -0.00    +0.022 A  
DOCKED: ATOM      9  C   UNL     1     141.174  71.843 227.288 -0.80 -0.00    +0.001 A  
DOCKED: ATOM     10  C   UNL     1     140.630  69.509 226.879 -0.53 -0.01    +0.056 A  
DOCKED: ATOM     11  C   UNL     1     141.011  70.536 227.757 -0.63 -0.00    +0.013 A  
DOCKED: BRANCH  10  12
DOCKED: ATOM     12  C   UNL     1     140.390  68.117 227.407 -0.30 -0.10    +0.416 C  
DOCKED: ATOM     13  F   UNL     1     141.420  67.291 226.995 -0.15 +0.05    -0.166 F  
DOCKED: ATOM     14  F   UNL     1     139.192  67.620 226.923 -0.21 +0.02    -0.166 F  
DOCKED: ATOM     15  F   UNL     1     140.335  68.111 228.791 -0.22 +0.04    -0.166 F  
DOCKED: ENDBRANCH  10  12
DOCKED: ENDBRANCH   5   6
DOCKED: ENDBRANCH   4   5
DOCKED: ENDBRANCH   3   4
DOCKED: ENDBRANCH   1   3
DOCKED: BRANCH   1  16
DOCKED: ATOM     16  C   UNL     1     139.315  75.856 222.224 -0.30 -0.01    +0.060 C  
DOCKED: BRANCH  16  17
DOCKED: ATOM     17  C   UNL     1     139.884  77.214 221.778 -0.30 -0.01    +0.048 C  
DOCKED: BRANCH  17  18
DOCKED: ATOM     18  C   UNL     1     140.952  77.768 222.732 -0.31 -0.08    +0.230 C  
DOCKED: BRANCH  18  19
DOCKED: ATOM     19  O   UNL     1     140.476  78.971 223.336 -0.15 +0.10    -0.492 OA 
DOCKED: BRANCH  19  20
DOCKED: ATOM     20  C   UNL     1     140.409  80.220 222.700 -0.31 -0.03    +0.137 A  
DOCKED: ATOM     21  C   UNL     1     139.231  80.687 222.084 -0.21 -0.01    +0.049 A  
DOCKED: ATOM     22  C   UNL     1     141.552  81.038 222.699 -0.46 -0.02    +0.084 A  
DOCKED: ATOM     23  C   UNL     1     139.195  81.960 221.507 -0.18 -0.00    +0.024 A  
DOCKED: ATOM     24  C   UNL     1     141.508  82.311 222.119 -0.31 -0.01    +0.045 A  
DOCKED: ATOM     25  C   UNL     1     140.330  82.774 221.529 -0.27 -0.01    +0.042 A  
DOCKED: ATOM     26  Cl  UNL     1     143.055  80.474 223.414 -0.77 +0.02    -0.080 Cl 
DOCKED: ATOM     27  Cl  UNL     1     140.277  84.374 220.812 -0.30 +0.01    -0.084 Cl 
DOCKED: ENDBRANCH  19  20
DOCKED: ENDBRANCH  18  19
DOCKED: ENDBRANCH  17  18
DOCKED: ENDBRANCH  16  17
DOCKED: ENDBRANCH   1  16
DOCKED: TORSDOF 10
DOCKED: TER
DOCKED: ENDMDL
________________________________________________________________________________


    FINAL DOCKED STATE:
    ________________________


Run:   8 / 20
Time taken for this run:   0.054s

DOCKED: MODEL        8
DOCKED: USER    Run = 8
DOCKED: USER
DOCKED: USER    Estimated Free Energy of Binding    =  -6.30 kcal/mol  [=(1)+(2)+(3)-(4)]
DOCKED: USER
DOCKED: USER    (1) Final Intermolecular Energy     =  -9.28 kcal/mol
DOCKED: USER        vdW + Hbond + desolv Energy     =  -9.34 kcal/mol
DOCKED: USER        Electrostatic Energy            =  +0.06 kcal/mol
DOCKED: USER        Moving Ligand-Fixed Receptor    =  -9.28 kcal/mol
DOCKED: USER        Moving Ligand-Moving Receptor   =  +0.00 kcal/mol
DOCKED: USER    (2) Final Total Internal Energy     =  -0.72 kcal/mol
DOCKED: USER    (3) Torsional Free Energy           =  +2.98 kcal/mol
DOCKED: USER    (4) Unbound System's Energy         =  -0.72 kcal/mol
DOCKED: USER
DOCKED: USER
DOCKED: REMARK SMILES O=C(CCCOc1ccc(Cl)cc1Cl)[N-]/N=C/c1cccc(C(F)(F)F)c1
DOCKED: REMARK SMILES IDX 2 1 1 2 15 3 16 4 17 5 18 6 19 7 27 8 20 9 22 10 21 11 23 12
DOCKED: REMARK SMILES IDX 24 13 25 14 26 15 3 16 4 17 5 18 6 19 7 20 8 21 13 22 9 23
DOCKED: REMARK SMILES IDX 12 24 10 25 14 26 11 27
DOCKED: REMARK H PARENT
DOCKED: USER                              x       y       z     vdW  Elec       q    Type
DOCKED: USER                           _______ _______ _______ _____ _____    ______ ____
DOCKED: ROOT
DOCKED: ATOM      1  C   UNL     1     140.550  73.595 221.645 -0.27 -0.01    +0.068 C  
DOCKED: ATOM      2  O   UNL     1     141.804  73.682 221.550 -0.19 +0.03    -0.319 OA 
DOCKED: ENDROOT
DOCKED: BRANCH   1   3
DOCKED: ATOM      3  N   UNL     1     139.802  74.599 222.341 -0.57 +0.04    -0.545 NA 
DOCKED: BRANCH   3   4
DOCKED: ATOM      4  N   UNL     1     139.911  75.984 222.108 -0.27 +0.07    -0.372 NA 
DOCKED: BRANCH   4   5
DOCKED: ATOM      5  C   UNL     1     140.992  76.670 222.334 -0.30 -0.03    +0.094 C  
DOCKED: BRANCH   5   6
DOCKED: ATOM      6  C   UNL     1     140.923  78.075 222.781 -0.47 +0.00    -0.009 A  
DOCKED: ATOM      7  C   UNL     1     142.072  78.879 222.854 -0.51 -0.00    +0.009 A  
DOCKED: ATOM      8  C   UNL     1     139.673  78.631 223.103 -0.35 -0.00    +0.022 A  
DOCKED: ATOM      9  C   UNL     1     141.971  80.218 223.234 -0.61 -0.00    +0.001 A  
DOCKED: ATOM     10  C   UNL     1     139.567  79.976 223.501 -0.39 -0.01    +0.056 A  
DOCKED: ATOM     11  C   UNL     1     140.725  80.768 223.546 -0.46 -0.00    +0.013 A  
DOCKED: BRANCH  10  12
DOCKED: ATOM     12  C   UNL     1     138.219  80.595 223.773 -0.17 -0.05    +0.416 C  
DOCKED: ATOM     13  F   UNL     1     137.228  79.740 223.327 -0.07 +0.02    -0.166 F  
DOCKED: ATOM     14  F   UNL     1     138.104  81.804 223.109 -0.07 +0.02    -0.166 F  
DOCKED: ATOM     15  F   UNL     1     138.040  80.825 225.127 -0.17 +0.01    -0.166 F  
DOCKED: ENDBRANCH  10  12
DOCKED: ENDBRANCH   5   6
DOCKED: ENDBRANCH   4   5
DOCKED: ENDBRANCH   3   4
DOCKED: ENDBRANCH   1   3
DOCKED: BRANCH   1  16
DOCKED: ATOM     16  C   UNL     1     139.837  72.451 220.989 -0.15 -0.01    +0.060 C  
DOCKED: BRANCH  16  17
DOCKED: ATOM     17  C   UNL     1     138.435  72.212 221.575 -0.13 -0.01    +0.048 C  
DOCKED: BRANCH  17  18
DOCKED: ATOM     18  C   UNL     1     138.456  71.816 223.059 -0.08 -0.07    +0.230 C  
DOCKED: BRANCH  18  19
DOCKED: ATOM     19  O   UNL     1     139.703  71.194 223.369 -0.13 +0.09    -0.492 OA 
DOCKED: BRANCH  19  20
DOCKED: ATOM     20  C   UNL     1     140.016  70.578 224.591 -0.35 -0.02    +0.137 A  
DOCKED: ATOM     21  C   UNL     1     140.734  71.242 225.605 -0.56 -0.01    +0.049 A  
DOCKED: ATOM     22  C   UNL     1     139.578  69.261 224.813 -0.33 -0.01    +0.084 A  
DOCKED: ATOM     23  C   UNL     1     140.979  70.608 226.826 -0.60 -0.00    +0.024 A  
DOCKED: ATOM     24  C   UNL     1     139.826  68.632 226.039 -0.51 -0.01    +0.045 A  
DOCKED: ATOM     25  C   UNL     1     140.521  69.306 227.046 -0.56 -0.01    +0.042 A  
DOCKED: ATOM     26  Cl  UNL     1     138.721  68.380 223.557 -0.34 +0.01    -0.080 Cl 
DOCKED: ATOM     27  Cl  UNL     1     140.822  68.518 228.584 -0.75 +0.02    -0.084 Cl 
DOCKED: ENDBRANCH  19  20
DOCKED: ENDBRANCH  18  19
DOCKED: ENDBRANCH  17  18
DOCKED: ENDBRANCH  16  17
DOCKED: ENDBRANCH   1  16
DOCKED: TORSDOF 10
DOCKED: TER
DOCKED: ENDMDL
________________________________________________________________________________


    FINAL DOCKED STATE:
    ________________________


Run:   9 / 20
Time taken for this run:   0.054s

DOCKED: MODEL        9
DOCKED: USER    Run = 9
DOCKED: USER
DOCKED: USER    Estimated Free Energy of Binding    =  -5.02 kcal/mol  [=(1)+(2)+(3)-(4)]
DOCKED: USER
DOCKED: USER    (1) Final Intermolecular Energy     =  -8.01 kcal/mol
DOCKED: USER        vdW + Hbond + desolv Energy     =  -8.10 kcal/mol
DOCKED: USER        Electrostatic Energy            =  +0.09 kcal/mol
DOCKED: USER        Moving Ligand-Fixed Receptor    =  -8.01 kcal/mol
DOCKED: USER        Moving Ligand-Moving Receptor   =  +0.00 kcal/mol
DOCKED: USER    (2) Final Total Internal Energy     =  -1.84 kcal/mol
DOCKED: USER    (3) Torsional Free Energy           =  +2.98 kcal/mol
DOCKED: USER    (4) Unbound System's Energy         =  -1.84 kcal/mol
DOCKED: USER
DOCKED: USER
DOCKED: REMARK SMILES O=C(CCCOc1ccc(Cl)cc1Cl)[N-]/N=C/c1cccc(C(F)(F)F)c1
DOCKED: REMARK SMILES IDX 2 1 1 2 15 3 16 4 17 5 18 6 19 7 27 8 20 9 22 10 21 11 23 12
DOCKED: REMARK SMILES IDX 24 13 25 14 26 15 3 16 4 17 5 18 6 19 7 20 8 21 13 22 9 23
DOCKED: REMARK SMILES IDX 12 24 10 25 14 26 11 27
DOCKED: REMARK H PARENT
DOCKED: USER                              x       y       z     vdW  Elec       q    Type
DOCKED: USER                           _______ _______ _______ _____ _____    ______ ____
DOCKED: ROOT
DOCKED: ATOM      1  C   UNL     1     140.379  74.999 221.443 -0.29 -0.01    +0.068 C  
DOCKED: ATOM      2  O   UNL     1     141.095  74.959 220.407 -0.11 +0.09    -0.319 OA 
DOCKED: ENDROOT
DOCKED: BRANCH   1   3
DOCKED: ATOM      3  N   UNL     1     139.857  73.793 222.014 -0.59 +0.07    -0.545 NA 
DOCKED: BRANCH   3   4
DOCKED: ATOM      4  N   UNL     1     140.578  72.932 222.865 -0.36 -0.01    -0.372 NA 
DOCKED: BRANCH   4   5
DOCKED: ATOM      5  C   UNL     1     140.370  71.651 222.939 -0.30 -0.01    +0.094 C  
DOCKED: BRANCH   5   6
DOCKED: ATOM      6  C   UNL     1     140.103  70.996 224.234 -0.43 +0.00    -0.009 A  
DOCKED: ATOM      7  C   UNL     1     139.437  69.762 224.308 -0.34 -0.00    +0.009 A  
DOCKED: ATOM      8  C   UNL     1     140.559  71.604 225.415 -0.51 -0.00    +0.022 A  
DOCKED: ATOM      9  C   UNL     1     139.240  69.142 225.543 -0.44 -0.00    +0.001 A  
DOCKED: ATOM     10  C   UNL     1     140.350  70.992 226.665 -0.57 -0.01    +0.056 A  
DOCKED: ATOM     11  C   UNL     1     139.703  69.747 226.715 -0.51 -0.00    +0.013 A  
DOCKED: BRANCH  10  12
DOCKED: ATOM     12  C   UNL     1     140.907  71.604 227.926 -0.40 -0.09    +0.416 C  
DOCKED: ATOM     13  F   UNL     1     141.561  70.628 228.654 -0.15 +0.03    -0.166 F  
DOCKED: ATOM     14  F   UNL     1     139.883  72.131 228.695 -0.29 +0.05    -0.166 F  
DOCKED: ATOM     15  F   UNL     1     141.799  72.622 227.634 -0.34 +0.03    -0.166 F  
DOCKED: ENDBRANCH  10  12
DOCKED: ENDBRANCH   5   6
DOCKED: ENDBRANCH   4   5
DOCKED: ENDBRANCH   3   4
DOCKED: ENDBRANCH   1   3
DOCKED: BRANCH   1  16
DOCKED: ATOM     16  C   UNL     1     140.106  76.318 222.103 -0.35 -0.01    +0.060 C  
DOCKED: BRANCH  16  17
DOCKED: ATOM     17  C   UNL     1     138.701  76.389 222.726 -0.25 -0.01    +0.048 C  
DOCKED: BRANCH  17  18
DOCKED: ATOM     18  C   UNL     1     137.574  76.180 221.705 -0.13 -0.05    +0.230 C  
DOCKED: BRANCH  18  19
DOCKED: ATOM     19  O   UNL     1     136.421  75.659 222.367 -0.06 +0.11    -0.492 OA 
DOCKED: BRANCH  19  20
DOCKED: ATOM     20  C   UNL     1     136.282  74.340 222.827 -0.12 -0.04    +0.137 A  
DOCKED: ATOM     21  C   UNL     1     136.828  73.241 222.134 -0.13 -0.01    +0.049 A  
DOCKED: ATOM     22  C   UNL     1     135.591  74.115 224.030 -0.20 -0.02    +0.084 A  
DOCKED: ATOM     23  C   UNL     1     136.709  71.950 222.655 -0.14 -0.01    +0.024 A  
DOCKED: ATOM     24  C   UNL     1     135.476  72.819 224.546 -0.19 -0.01    +0.045 A  
DOCKED: ATOM     25  C   UNL     1     136.039  71.738 223.863 -0.19 -0.01    +0.042 A  
DOCKED: ATOM     26  Cl  UNL     1     134.853  75.451 224.900 -0.44 +0.01    -0.080 Cl 
DOCKED: ATOM     27  Cl  UNL     1     135.901  70.117 224.518 -0.27 +0.01    -0.084 Cl 
DOCKED: ENDBRANCH  19  20
DOCKED: ENDBRANCH  18  19
DOCKED: ENDBRANCH  17  18
DOCKED: ENDBRANCH  16  17
DOCKED: ENDBRANCH   1  16
DOCKED: TORSDOF 10
DOCKED: TER
DOCKED: ENDMDL
________________________________________________________________________________


    FINAL DOCKED STATE:
    ________________________


Run:   10 / 20
Time taken for this run:   0.054s

DOCKED: MODEL        10
DOCKED: USER    Run = 10
DOCKED: USER
DOCKED: USER    Estimated Free Energy of Binding    =  -6.17 kcal/mol  [=(1)+(2)+(3)-(4)]
DOCKED: USER
DOCKED: USER    (1) Final Intermolecular Energy     =  -9.15 kcal/mol
DOCKED: USER        vdW + Hbond + desolv Energy     =  -9.36 kcal/mol
DOCKED: USER        Electrostatic Energy            =  +0.20 kcal/mol
DOCKED: USER        Moving Ligand-Fixed Receptor    =  -9.15 kcal/mol
DOCKED: USER        Moving Ligand-Moving Receptor   =  +0.00 kcal/mol
DOCKED: USER    (2) Final Total Internal Energy     =  -1.08 kcal/mol
DOCKED: USER    (3) Torsional Free Energy           =  +2.98 kcal/mol
DOCKED: USER    (4) Unbound System's Energy         =  -1.08 kcal/mol
DOCKED: USER
DOCKED: USER
DOCKED: REMARK SMILES O=C(CCCOc1ccc(Cl)cc1Cl)[N-]/N=C/c1cccc(C(F)(F)F)c1
DOCKED: REMARK SMILES IDX 2 1 1 2 15 3 16 4 17 5 18 6 19 7 27 8 20 9 22 10 21 11 23 12
DOCKED: REMARK SMILES IDX 24 13 25 14 26 15 3 16 4 17 5 18 6 19 7 20 8 21 13 22 9 23
DOCKED: REMARK SMILES IDX 12 24 10 25 14 26 11 27
DOCKED: REMARK H PARENT
DOCKED: USER                              x       y       z     vdW  Elec       q    Type
DOCKED: USER                           _______ _______ _______ _____ _____    ______ ____
DOCKED: ROOT
DOCKED: ATOM      1  C   UNL     1     139.943  75.496 222.250 -0.15 -0.01    +0.068 C  
DOCKED: ATOM      2  O   UNL     1     141.029  76.131 222.321 -0.35 +0.10    -0.319 OA 
DOCKED: ENDROOT
DOCKED: BRANCH   1   3
DOCKED: ATOM      3  N   UNL     1     139.929  74.120 221.852 -0.56 +0.07    -0.545 NA 
DOCKED: BRANCH   3   4
DOCKED: ATOM      4  N   UNL     1     139.610  73.043 222.702 -0.48 +0.08    -0.372 NA 
DOCKED: BRANCH   4   5
DOCKED: ATOM      5  C   UNL     1     140.436  72.082 222.990 -0.28 -0.01    +0.094 C  
DOCKED: BRANCH   5   6
DOCKED: ATOM      6  C   UNL     1     140.249  71.251 224.195 -0.44 +0.00    -0.009 A  
DOCKED: ATOM      7  C   UNL     1     139.748  69.941 224.112 -0.31 -0.00    +0.009 A  
DOCKED: ATOM      8  C   UNL     1     140.615  71.769 225.448 -0.45 -0.00    +0.022 A  
DOCKED: ATOM      9  C   UNL     1     139.627  69.160 225.262 -0.43 -0.00    +0.001 A  
DOCKED: ATOM     10  C   UNL     1     140.481  70.992 226.613 -0.59 -0.01    +0.056 A  
DOCKED: ATOM     11  C   UNL     1     140.000  69.678 226.505 -0.52 -0.00    +0.013 A  
DOCKED: BRANCH  10  12
DOCKED: ATOM     12  C   UNL     1     140.946  71.518 227.948 -0.40 -0.09    +0.416 C  
DOCKED: ATOM     13  F   UNL     1     141.568  70.500 228.645 -0.14 +0.03    -0.166 F  
DOCKED: ATOM     14  F   UNL     1     139.867  71.976 228.685 -0.29 +0.05    -0.166 F  
DOCKED: ATOM     15  F   UNL     1     141.838  72.565 227.788 -0.31 +0.03    -0.166 F  
DOCKED: ENDBRANCH  10  12
DOCKED: ENDBRANCH   5   6
DOCKED: ENDBRANCH   4   5
DOCKED: ENDBRANCH   3   4
DOCKED: ENDBRANCH   1   3
DOCKED: BRANCH   1  16
DOCKED: ATOM     16  C   UNL     1     138.662  76.180 222.624 -0.25 -0.01    +0.060 C  
DOCKED: BRANCH  16  17
DOCKED: ATOM     17  C   UNL     1     137.941  76.791 221.410 -0.16 -0.01    +0.048 C  
DOCKED: BRANCH  17  18
DOCKED: ATOM     18  C   UNL     1     137.097  78.024 221.764 -0.09 -0.04    +0.230 C  
DOCKED: BRANCH  18  19
DOCKED: ATOM     19  O   UNL     1     137.853  79.209 221.511 -0.00 +0.09    -0.492 OA 
DOCKED: BRANCH  19  20
DOCKED: ATOM     20  C   UNL     1     139.139  79.467 222.011 -0.17 -0.03    +0.137 A  
DOCKED: ATOM     21  C   UNL     1     140.305  79.117 221.301 -0.21 -0.02    +0.049 A  
DOCKED: ATOM     22  C   UNL     1     139.263  80.115 223.252 -0.33 -0.01    +0.084 A  
DOCKED: ATOM     23  C   UNL     1     141.565  79.438 221.813 -0.41 -0.01    +0.024 A  
DOCKED: ATOM     24  C   UNL     1     140.528  80.434 223.758 -0.41 -0.01    +0.045 A  
DOCKED: ATOM     25  C   UNL     1     141.678  80.102 223.038 -0.53 -0.01    +0.042 A  
DOCKED: ATOM     26  Cl  UNL     1     137.836  80.526 224.191 -0.44 +0.01    -0.080 Cl 
DOCKED: ATOM     27  Cl  UNL     1     143.261  80.513 223.671 -0.67 +0.02    -0.084 Cl 
DOCKED: ENDBRANCH  19  20
DOCKED: ENDBRANCH  18  19
DOCKED: ENDBRANCH  17  18
DOCKED: ENDBRANCH  16  17
DOCKED: ENDBRANCH   1  16
DOCKED: TORSDOF 10
DOCKED: TER
DOCKED: ENDMDL
________________________________________________________________________________


    FINAL DOCKED STATE:
    ________________________


Run:   11 / 20
Time taken for this run:   0.054s

DOCKED: MODEL        11
DOCKED: USER    Run = 11
DOCKED: USER
DOCKED: USER    Estimated Free Energy of Binding    =  -6.05 kcal/mol  [=(1)+(2)+(3)-(4)]
DOCKED: USER
DOCKED: USER    (1) Final Intermolecular Energy     =  -9.04 kcal/mol
DOCKED: USER        vdW + Hbond + desolv Energy     =  -9.11 kcal/mol
DOCKED: USER        Electrostatic Energy            =  +0.07 kcal/mol
DOCKED: USER        Moving Ligand-Fixed Receptor    =  -9.04 kcal/mol
DOCKED: USER        Moving Ligand-Moving Receptor   =  +0.00 kcal/mol
DOCKED: USER    (2) Final Total Internal Energy     =  -0.92 kcal/mol
DOCKED: USER    (3) Torsional Free Energy           =  +2.98 kcal/mol
DOCKED: USER    (4) Unbound System's Energy         =  -0.92 kcal/mol
DOCKED: USER
DOCKED: USER
DOCKED: REMARK SMILES O=C(CCCOc1ccc(Cl)cc1Cl)[N-]/N=C/c1cccc(C(F)(F)F)c1
DOCKED: REMARK SMILES IDX 2 1 1 2 15 3 16 4 17 5 18 6 19 7 27 8 20 9 22 10 21 11 23 12
DOCKED: REMARK SMILES IDX 24 13 25 14 26 15 3 16 4 17 5 18 6 19 7 20 8 21 13 22 9 23
DOCKED: REMARK SMILES IDX 12 24 10 25 14 26 11 27
DOCKED: REMARK H PARENT
DOCKED: USER                              x       y       z     vdW  Elec       q    Type
DOCKED: USER                           _______ _______ _______ _____ _____    ______ ____
DOCKED: ROOT
DOCKED: ATOM      1  C   UNL     1     139.586  75.677 222.322 -0.28 -0.01    +0.068 C  
DOCKED: ATOM      2  O   UNL     1     138.578  76.413 222.499 -0.22 +0.07    -0.319 OA 
DOCKED: ENDROOT
DOCKED: BRANCH   1   3
DOCKED: ATOM      3  N   UNL     1     139.454  74.250 222.326 -0.55 +0.09    -0.545 NA 
DOCKED: BRANCH   3   4
DOCKED: ATOM      4  N   UNL     1     140.475  73.353 222.700 -0.46 -0.03    -0.372 NA 
DOCKED: BRANCH   4   5
DOCKED: ATOM      5  C   UNL     1     140.342  72.060 222.675 -0.30 -0.01    +0.094 C  
DOCKED: BRANCH   5   6
DOCKED: ATOM      6  C   UNL     1     140.126  71.293 223.917 -0.42 +0.00    -0.009 A  
DOCKED: ATOM      7  C   UNL     1     139.536  70.018 223.899 -0.31 -0.00    +0.009 A  
DOCKED: ATOM      8  C   UNL     1     140.555  71.835 225.140 -0.39 -0.00    +0.022 A  
DOCKED: ATOM      9  C   UNL     1     139.389  69.295 225.084 -0.40 -0.00    +0.001 A  
DOCKED: ATOM     10  C   UNL     1     140.395  71.118 226.339 -0.57 -0.01    +0.056 A  
DOCKED: ATOM     11  C   UNL     1     139.824  69.836 226.296 -0.49 -0.00    +0.013 A  
DOCKED: BRANCH  10  12
DOCKED: ATOM     12  C   UNL     1     140.925  71.664 227.641 -0.41 -0.08    +0.416 C  
DOCKED: ATOM     13  F   UNL     1     141.905  72.601 227.375 -0.32 +0.03    -0.166 F  
DOCKED: ATOM     14  F   UNL     1     141.469  70.644 228.403 -0.18 +0.03    -0.166 F  
DOCKED: ATOM     15  F   UNL     1     139.916  72.264 228.377 -0.27 +0.05    -0.166 F  
DOCKED: ENDBRANCH  10  12
DOCKED: ENDBRANCH   5   6
DOCKED: ENDBRANCH   4   5
DOCKED: ENDBRANCH   3   4
DOCKED: ENDBRANCH   1   3
DOCKED: BRANCH   1  16
DOCKED: ATOM     16  C   UNL     1     140.923  76.305 222.066 -0.32 -0.02    +0.060 C  
DOCKED: BRANCH  16  17
DOCKED: ATOM     17  C   UNL     1     140.916  77.827 222.290 -0.42 -0.02    +0.048 C  
DOCKED: BRANCH  17  18
DOCKED: ATOM     18  C   UNL     1     141.797  78.271 223.467 -0.29 -0.09    +0.230 C  
DOCKED: BRANCH  18  19
DOCKED: ATOM     19  O   UNL     1     141.411  79.580 223.885 -0.19 +0.11    -0.492 OA 
DOCKED: BRANCH  19  20
DOCKED: ATOM     20  C   UNL     1     140.197  80.205 223.561 -0.36 -0.02    +0.137 A  
DOCKED: ATOM     21  C   UNL     1     138.987  79.873 224.202 -0.34 -0.01    +0.049 A  
DOCKED: ATOM     22  C   UNL     1     140.197  81.210 222.578 -0.31 -0.01    +0.084 A  
DOCKED: ATOM     23  C   UNL     1     137.810  80.558 223.883 -0.34 -0.00    +0.024 A  
DOCKED: ATOM     24  C   UNL     1     139.016  81.891 222.265 -0.19 -0.01    +0.045 A  
DOCKED: ATOM     25  C   UNL     1     137.825  81.570 222.920 -0.20 -0.00    +0.042 A  
DOCKED: ATOM     26  Cl  UNL     1     141.675  81.621 221.721 -0.46 +0.02    -0.080 Cl 
DOCKED: ATOM     27  Cl  UNL     1     136.348  82.433 222.530 -0.12 +0.01    -0.084 Cl 
DOCKED: ENDBRANCH  19  20
DOCKED: ENDBRANCH  18  19
DOCKED: ENDBRANCH  17  18
DOCKED: ENDBRANCH  16  17
DOCKED: ENDBRANCH   1  16
DOCKED: TORSDOF 10
DOCKED: TER
DOCKED: ENDMDL
________________________________________________________________________________


    FINAL DOCKED STATE:
    ________________________


Run:   12 / 20
Time taken for this run:   0.054s

DOCKED: MODEL        12
DOCKED: USER    Run = 12
DOCKED: USER
DOCKED: USER    Estimated Free Energy of Binding    =  -6.74 kcal/mol  [=(1)+(2)+(3)-(4)]
DOCKED: USER
DOCKED: USER    (1) Final Intermolecular Energy     =  -9.72 kcal/mol
DOCKED: USER        vdW + Hbond + desolv Energy     =  -9.88 kcal/mol
DOCKED: USER        Electrostatic Energy            =  +0.16 kcal/mol
DOCKED: USER        Moving Ligand-Fixed Receptor    =  -9.72 kcal/mol
DOCKED: USER        Moving Ligand-Moving Receptor   =  +0.00 kcal/mol
DOCKED: USER    (2) Final Total Internal Energy     =  -0.77 kcal/mol
DOCKED: USER    (3) Torsional Free Energy           =  +2.98 kcal/mol
DOCKED: USER    (4) Unbound System's Energy         =  -0.77 kcal/mol
DOCKED: USER
DOCKED: USER
DOCKED: REMARK SMILES O=C(CCCOc1ccc(Cl)cc1Cl)[N-]/N=C/c1cccc(C(F)(F)F)c1
DOCKED: REMARK SMILES IDX 2 1 1 2 15 3 16 4 17 5 18 6 19 7 27 8 20 9 22 10 21 11 23 12
DOCKED: REMARK SMILES IDX 24 13 25 14 26 15 3 16 4 17 5 18 6 19 7 20 8 21 13 22 9 23
DOCKED: REMARK SMILES IDX 12 24 10 25 14 26 11 27
DOCKED: REMARK H PARENT
DOCKED: USER                              x       y       z     vdW  Elec       q    Type
DOCKED: USER                           _______ _______ _______ _____ _____    ______ ____
DOCKED: ROOT
DOCKED: ATOM      1  C   UNL     1     139.853  73.490 222.012 -0.24 -0.01    +0.068 C  
DOCKED: ATOM      2  O   UNL     1     139.345  74.614 222.268 -0.63 +0.06    -0.319 OA 
DOCKED: ENDROOT
DOCKED: BRANCH   1   3
DOCKED: ATOM      3  N   UNL     1     140.114  72.553 223.064 -0.30 +0.07    -0.545 NA 
DOCKED: BRANCH   3   4
DOCKED: ATOM      4  N   UNL     1     140.298  71.169 222.877 -0.12 +0.05    -0.372 NA 
DOCKED: BRANCH   4   5
DOCKED: ATOM      5  C   UNL     1     139.619  70.259 223.510 -0.25 -0.02    +0.094 C  
DOCKED: BRANCH   5   6
DOCKED: ATOM      6  C   UNL     1     139.904  69.942 224.923 -0.40 +0.00    -0.009 A  
DOCKED: ATOM      7  C   UNL     1     139.926  68.616 225.387 -0.44 -0.00    +0.009 A  
DOCKED: ATOM      8  C   UNL     1     140.196  70.987 225.814 -0.54 -0.00    +0.022 A  
DOCKED: ATOM      9  C   UNL     1     140.246  68.342 226.717 -0.64 -0.00    +0.001 A  
DOCKED: ATOM     10  C   UNL     1     140.504  70.719 227.160 -0.60 -0.01    +0.056 A  
DOCKED: ATOM     11  C   UNL     1     140.544  69.385 227.598 -0.61 -0.00    +0.013 A  
DOCKED: BRANCH  10  12
DOCKED: ATOM     12  C   UNL     1     140.894  71.832 228.099 -0.37 -0.10    +0.416 C  
DOCKED: ATOM     13  F   UNL     1     141.416  72.882 227.367 -0.32 +0.04    -0.166 F  
DOCKED: ATOM     14  F   UNL     1     141.848  71.390 228.999 -0.16 +0.04    -0.166 F  
DOCKED: ATOM     15  F   UNL     1     139.799  72.285 228.816 -0.25 +0.06    -0.166 F  
DOCKED: ENDBRANCH  10  12
DOCKED: ENDBRANCH   5   6
DOCKED: ENDBRANCH   4   5
DOCKED: ENDBRANCH   3   4
DOCKED: ENDBRANCH   1   3
DOCKED: BRANCH   1  16
DOCKED: ATOM     16  C   UNL     1     140.149  73.119 220.590 -0.14 -0.01    +0.060 C  
DOCKED: BRANCH  16  17
DOCKED: ATOM     17  C   UNL     1     141.147  74.082 219.922 -0.15 -0.01    +0.048 C  
DOCKED: BRANCH  17  18
DOCKED: ATOM     18  C   UNL     1     141.737  75.114 220.894 -0.20 -0.08    +0.230 C  
DOCKED: BRANCH  18  19
DOCKED: ATOM     19  O   UNL     1     141.186  76.401 220.616 -0.07 +0.20    -0.492 OA 
DOCKED: BRANCH  19  20
DOCKED: ATOM     20  C   UNL     1     141.381  77.548 221.401 -0.25 -0.07    +0.137 A  
DOCKED: ATOM     21  C   UNL     1     141.170  77.550 222.794 -0.36 -0.02    +0.049 A  
DOCKED: ATOM     22  C   UNL     1     141.821  78.727 220.774 -0.29 -0.05    +0.084 A  
DOCKED: ATOM     23  C   UNL     1     141.426  78.702 223.544 -0.57 -0.01    +0.024 A  
DOCKED: ATOM     24  C   UNL     1     142.075  79.876 221.531 -0.40 -0.02    +0.045 A  
DOCKED: ATOM     25  C   UNL     1     141.884  79.863 222.915 -0.55 -0.01    +0.042 A  
DOCKED: ATOM     26  Cl  UNL     1     142.050  78.781 219.033 -0.32 +0.05    -0.080 Cl 
DOCKED: ATOM     27  Cl  UNL     1     142.212  81.303 223.861 -0.73 +0.01    -0.084 Cl 
DOCKED: ENDBRANCH  19  20
DOCKED: ENDBRANCH  18  19
DOCKED: ENDBRANCH  17  18
DOCKED: ENDBRANCH  16  17
DOCKED: ENDBRANCH   1  16
DOCKED: TORSDOF 10
DOCKED: TER
DOCKED: ENDMDL
________________________________________________________________________________


    FINAL DOCKED STATE:
    ________________________


Run:   13 / 20
Time taken for this run:   0.054s

DOCKED: MODEL        13
DOCKED: USER    Run = 13
DOCKED: USER
DOCKED: USER    Estimated Free Energy of Binding    =  -6.57 kcal/mol  [=(1)+(2)+(3)-(4)]
DOCKED: USER
DOCKED: USER    (1) Final Intermolecular Energy     =  -9.55 kcal/mol
DOCKED: USER        vdW + Hbond + desolv Energy     =  -9.56 kcal/mol
DOCKED: USER        Electrostatic Energy            =  +0.01 kcal/mol
DOCKED: USER        Moving Ligand-Fixed Receptor    =  -9.55 kcal/mol
DOCKED: USER        Moving Ligand-Moving Receptor   =  +0.00 kcal/mol
DOCKED: USER    (2) Final Total Internal Energy     =  -0.70 kcal/mol
DOCKED: USER    (3) Torsional Free Energy           =  +2.98 kcal/mol
DOCKED: USER    (4) Unbound System's Energy         =  -0.70 kcal/mol
DOCKED: USER
DOCKED: USER
DOCKED: REMARK SMILES O=C(CCCOc1ccc(Cl)cc1Cl)[N-]/N=C/c1cccc(C(F)(F)F)c1
DOCKED: REMARK SMILES IDX 2 1 1 2 15 3 16 4 17 5 18 6 19 7 27 8 20 9 22 10 21 11 23 12
DOCKED: REMARK SMILES IDX 24 13 25 14 26 15 3 16 4 17 5 18 6 19 7 20 8 21 13 22 9 23
DOCKED: REMARK SMILES IDX 12 24 10 25 14 26 11 27
DOCKED: REMARK H PARENT
DOCKED: USER                              x       y       z     vdW  Elec       q    Type
DOCKED: USER                           _______ _______ _______ _____ _____    ______ ____
DOCKED: ROOT
DOCKED: ATOM      1  C   UNL     1     141.063  73.981 220.675 -0.22 -0.01    +0.068 C  
DOCKED: ATOM      2  O   UNL     1     140.748  73.214 219.726 -0.03 +0.06    -0.319 OA 
DOCKED: ENDROOT
DOCKED: BRANCH   1   3
DOCKED: ATOM      3  N   UNL     1     140.514  73.783 221.984 -0.62 +0.02    -0.545 NA 
DOCKED: BRANCH   3   4
DOCKED: ATOM      4  N   UNL     1     140.724  72.636 222.775 -0.40 +0.01    -0.372 NA 
DOCKED: BRANCH   4   5
DOCKED: ATOM      5  C   UNL     1     139.787  71.787 223.076 -0.30 -0.02    +0.094 C  
DOCKED: BRANCH   5   6
DOCKED: ATOM      6  C   UNL     1     139.871  70.960 224.295 -0.43 +0.00    -0.009 A  
DOCKED: ATOM      7  C   UNL     1     139.547  69.593 224.279 -0.32 -0.00    +0.009 A  
DOCKED: ATOM      8  C   UNL     1     140.323  71.545 225.490 -0.50 -0.00    +0.022 A  
DOCKED: ATOM      9  C   UNL     1     139.683  68.825 225.436 -0.46 -0.00    +0.001 A  
DOCKED: ATOM     10  C   UNL     1     140.447  70.779 226.663 -0.57 -0.01    +0.056 A  
DOCKED: ATOM     11  C   UNL     1     140.140  69.410 226.619 -0.54 -0.00    +0.013 A  
DOCKED: BRANCH  10  12
DOCKED: ATOM     12  C   UNL     1     141.005  71.387 227.926 -0.38 -0.08    +0.416 C  
DOCKED: ATOM     13  F   UNL     1     141.723  70.426 228.612 -0.10 +0.03    -0.166 F  
DOCKED: ATOM     14  F   UNL     1     139.977  71.844 228.732 -0.29 +0.05    -0.166 F  
DOCKED: ATOM     15  F   UNL     1     141.839  72.454 227.638 -0.33 +0.03    -0.166 F  
DOCKED: ENDBRANCH  10  12
DOCKED: ENDBRANCH   5   6
DOCKED: ENDBRANCH   4   5
DOCKED: ENDBRANCH   3   4
DOCKED: ENDBRANCH   1   3
DOCKED: BRANCH   1  16
DOCKED: ATOM     16  C   UNL     1     142.050  75.084 220.436 -0.28 -0.02    +0.060 C  
DOCKED: BRANCH  16  17
DOCKED: ATOM     17  C   UNL     1     142.077  75.548 218.970 -0.18 -0.02    +0.048 C  
DOCKED: BRANCH  17  18
DOCKED: ATOM     18  C   UNL     1     142.243  77.067 218.816 -0.20 -0.13    +0.230 C  
DOCKED: BRANCH  18  19
DOCKED: ATOM     19  O   UNL     1     141.242  77.736 219.583 -0.03 +0.23    -0.492 OA 
DOCKED: BRANCH  19  20
DOCKED: ATOM     20  C   UNL     1     141.492  78.569 220.685 -0.25 -0.07    +0.137 A  
DOCKED: ATOM     21  C   UNL     1     141.413  78.101 222.012 -0.37 -0.02    +0.049 A  
DOCKED: ATOM     22  C   UNL     1     141.853  79.907 220.452 -0.28 -0.04    +0.084 A  
DOCKED: ATOM     23  C   UNL     1     141.720  78.952 223.078 -0.56 -0.01    +0.024 A  
DOCKED: ATOM     24  C   UNL     1     142.159  80.753 221.524 -0.39 -0.02    +0.045 A  
DOCKED: ATOM     25  C   UNL     1     142.098  80.275 222.835 -0.56 -0.01    +0.042 A  
DOCKED: ATOM     26  Cl  UNL     1     141.915  80.543 218.815 -0.37 +0.05    -0.080 Cl 
DOCKED: ATOM     27  Cl  UNL     1     142.492  81.336 224.175 -0.62 +0.01    -0.084 Cl 
DOCKED: ENDBRANCH  19  20
DOCKED: ENDBRANCH  18  19
DOCKED: ENDBRANCH  17  18
DOCKED: ENDBRANCH  16  17
DOCKED: ENDBRANCH   1  16
DOCKED: TORSDOF 10
DOCKED: TER
DOCKED: ENDMDL
________________________________________________________________________________


    FINAL DOCKED STATE:
    ________________________


Run:   14 / 20
Time taken for this run:   0.054s

DOCKED: MODEL        14
DOCKED: USER    Run = 14
DOCKED: USER
DOCKED: USER    Estimated Free Energy of Binding    =  -6.41 kcal/mol  [=(1)+(2)+(3)-(4)]
DOCKED: USER
DOCKED: USER    (1) Final Intermolecular Energy     =  -9.39 kcal/mol
DOCKED: USER        vdW + Hbond + desolv Energy     =  -9.44 kcal/mol
DOCKED: USER        Electrostatic Energy            =  +0.05 kcal/mol
DOCKED: USER        Moving Ligand-Fixed Receptor    =  -9.39 kcal/mol
DOCKED: USER        Moving Ligand-Moving Receptor   =  +0.00 kcal/mol
DOCKED: USER    (2) Final Total Internal Energy     =  -0.65 kcal/mol
DOCKED: USER    (3) Torsional Free Energy           =  +2.98 kcal/mol
DOCKED: USER    (4) Unbound System's Energy         =  -0.65 kcal/mol
DOCKED: USER
DOCKED: USER
DOCKED: REMARK SMILES O=C(CCCOc1ccc(Cl)cc1Cl)[N-]/N=C/c1cccc(C(F)(F)F)c1
DOCKED: REMARK SMILES IDX 2 1 1 2 15 3 16 4 17 5 18 6 19 7 27 8 20 9 22 10 21 11 23 12
DOCKED: REMARK SMILES IDX 24 13 25 14 26 15 3 16 4 17 5 18 6 19 7 20 8 21 13 22 9 23
DOCKED: REMARK SMILES IDX 12 24 10 25 14 26 11 27
DOCKED: REMARK H PARENT
DOCKED: USER                              x       y       z     vdW  Elec       q    Type
DOCKED: USER                           _______ _______ _______ _____ _____    ______ ____
DOCKED: ROOT
DOCKED: ATOM      1  C   UNL     1     140.152  74.642 221.018 -0.23 -0.01    +0.068 C  
DOCKED: ATOM      2  O   UNL     1     139.379  74.144 220.156 -0.03 +0.07    -0.319 OA 
DOCKED: ENDROOT
DOCKED: BRANCH   1   3
DOCKED: ATOM      3  N   UNL     1     140.692  73.827 222.066 -0.57 -0.00    -0.545 NA 
DOCKED: BRANCH   3   4
DOCKED: ATOM      4  N   UNL     1     139.938  72.945 222.864 -0.46 +0.05    -0.372 NA 
DOCKED: BRANCH   4   5
DOCKED: ATOM      5  C   UNL     1     140.179  71.670 222.954 -0.30 -0.01    +0.094 C  
DOCKED: BRANCH   5   6
DOCKED: ATOM      6  C   UNL     1     140.068  70.963 224.244 -0.43 +0.00    -0.009 A  
DOCKED: ATOM      7  C   UNL     1     139.581  69.647 224.320 -0.33 -0.00    +0.009 A  
DOCKED: ATOM      8  C   UNL     1     140.494  71.607 225.417 -0.49 -0.00    +0.022 A  
DOCKED: ATOM      9  C   UNL     1     139.533  68.986 225.548 -0.46 -0.00    +0.001 A  
DOCKED: ATOM     10  C   UNL     1     140.434  70.951 226.660 -0.58 -0.01    +0.056 A  
DOCKED: ATOM     11  C   UNL     1     139.966  69.628 226.711 -0.53 -0.00    +0.013 A  
DOCKED: BRANCH  10  12
DOCKED: ATOM     12  C   UNL     1     140.963  71.612 227.908 -0.40 -0.09    +0.416 C  
DOCKED: ATOM     13  F   UNL     1     141.646  70.677 228.662 -0.13 +0.03    -0.166 F  
DOCKED: ATOM     14  F   UNL     1     139.919  72.123 228.659 -0.29 +0.05    -0.166 F  
DOCKED: ATOM     15  F   UNL     1     141.822  72.652 227.595 -0.35 +0.03    -0.166 F  
DOCKED: ENDBRANCH  10  12
DOCKED: ENDBRANCH   5   6
DOCKED: ENDBRANCH   4   5
DOCKED: ENDBRANCH   3   4
DOCKED: ENDBRANCH   1   3
DOCKED: BRANCH   1  16
DOCKED: ATOM     16  C   UNL     1     140.536  76.087 220.920 -0.25 -0.02    +0.060 C  
DOCKED: BRANCH  16  17
DOCKED: ATOM     17  C   UNL     1     139.987  76.927 222.087 -0.35 -0.01    +0.048 C  
DOCKED: BRANCH  17  18
DOCKED: ATOM     18  C   UNL     1     141.079  77.688 222.853 -0.27 -0.08    +0.230 C  
DOCKED: BRANCH  18  19
DOCKED: ATOM     19  O   UNL     1     140.522  78.867 223.433 -0.16 +0.10    -0.492 OA 
DOCKED: BRANCH  19  20
DOCKED: ATOM     20  C   UNL     1     140.400  80.106 222.784 -0.31 -0.03    +0.137 A  
DOCKED: ATOM     21  C   UNL     1     139.200  80.518 222.172 -0.22 -0.01    +0.049 A  
DOCKED: ATOM     22  C   UNL     1     141.510  80.969 222.765 -0.46 -0.02    +0.084 A  
DOCKED: ATOM     23  C   UNL     1     139.109  81.782 221.581 -0.18 -0.00    +0.024 A  
DOCKED: ATOM     24  C   UNL     1     141.411  82.232 222.172 -0.34 -0.01    +0.045 A  
DOCKED: ATOM     25  C   UNL     1     140.211  82.641 221.586 -0.27 -0.01    +0.042 A  
DOCKED: ATOM     26  Cl  UNL     1     143.039  80.473 223.475 -0.78 +0.02    -0.080 Cl 
DOCKED: ATOM     27  Cl  UNL     1     140.088  84.230 220.852 -0.29 +0.01    -0.084 Cl 
DOCKED: ENDBRANCH  19  20
DOCKED: ENDBRANCH  18  19
DOCKED: ENDBRANCH  17  18
DOCKED: ENDBRANCH  16  17
DOCKED: ENDBRANCH   1  16
DOCKED: TORSDOF 10
DOCKED: TER
DOCKED: ENDMDL
________________________________________________________________________________


    FINAL DOCKED STATE:
    ________________________


Run:   15 / 20
Time taken for this run:   0.054s

DOCKED: MODEL        15
DOCKED: USER    Run = 15
DOCKED: USER
DOCKED: USER    Estimated Free Energy of Binding    =  -5.99 kcal/mol  [=(1)+(2)+(3)-(4)]
DOCKED: USER
DOCKED: USER    (1) Final Intermolecular Energy     =  -8.97 kcal/mol
DOCKED: USER        vdW + Hbond + desolv Energy     =  -9.10 kcal/mol
DOCKED: USER        Electrostatic Energy            =  +0.12 kcal/mol
DOCKED: USER        Moving Ligand-Fixed Receptor    =  -8.97 kcal/mol
DOCKED: USER        Moving Ligand-Moving Receptor   =  +0.00 kcal/mol
DOCKED: USER    (2) Final Total Internal Energy     =  -1.35 kcal/mol
DOCKED: USER    (3) Torsional Free Energy           =  +2.98 kcal/mol
DOCKED: USER    (4) Unbound System's Energy         =  -1.35 kcal/mol
DOCKED: USER
DOCKED: USER
DOCKED: REMARK SMILES O=C(CCCOc1ccc(Cl)cc1Cl)[N-]/N=C/c1cccc(C(F)(F)F)c1
DOCKED: REMARK SMILES IDX 2 1 1 2 15 3 16 4 17 5 18 6 19 7 27 8 20 9 22 10 21 11 23 12
DOCKED: REMARK SMILES IDX 24 13 25 14 26 15 3 16 4 17 5 18 6 19 7 20 8 21 13 22 9 23
DOCKED: REMARK SMILES IDX 12 24 10 25 14 26 11 27
DOCKED: REMARK H PARENT
DOCKED: USER                              x       y       z     vdW  Elec       q    Type
DOCKED: USER                           _______ _______ _______ _____ _____    ______ ____
DOCKED: ROOT
DOCKED: ATOM      1  C   UNL     1     140.024  73.663 222.055 -0.16 -0.01    +0.068 C  
DOCKED: ATOM      2  O   UNL     1     140.868  74.597 221.999 -0.65 +0.01    -0.319 OA 
DOCKED: ENDROOT
DOCKED: BRANCH   1   3
DOCKED: ATOM      3  N   UNL     1     140.164  72.613 223.019 -0.33 +0.06    -0.545 NA 
DOCKED: BRANCH   3   4
DOCKED: ATOM      4  N   UNL     1     139.971  71.244 222.746 -0.13 +0.06    -0.372 NA 
DOCKED: BRANCH   4   5
DOCKED: ATOM      5  C   UNL     1     139.261  70.453 223.495 -0.27 -0.02    +0.094 C  
DOCKED: BRANCH   5   6
DOCKED: ATOM      6  C   UNL     1     139.715  70.073 224.847 -0.40 +0.00    -0.009 A  
DOCKED: ATOM      7  C   UNL     1     139.851  68.726 225.223 -0.39 -0.00    +0.009 A  
DOCKED: ATOM      8  C   UNL     1     140.056  71.081 225.763 -0.51 -0.00    +0.022 A  
DOCKED: ATOM      9  C   UNL     1     140.329  68.396 226.492 -0.62 -0.00    +0.001 A  
DOCKED: ATOM     10  C   UNL     1     140.524  70.754 227.049 -0.59 -0.01    +0.056 A  
DOCKED: ATOM     11  C   UNL     1     140.674  69.403 227.398 -0.60 -0.00    +0.013 A  
DOCKED: BRANCH  10  12
DOCKED: ATOM     12  C   UNL     1     140.964  71.833 228.007 -0.40 -0.10    +0.416 C  
DOCKED: ATOM     13  F   UNL     1     141.936  71.325 228.848 -0.11 +0.03    -0.166 F  
DOCKED: ATOM     14  F   UNL     1     139.890  72.266 228.767 -0.28 +0.06    -0.166 F  
DOCKED: ATOM     15  F   UNL     1     141.481  72.923 227.327 -0.32 +0.04    -0.166 F  
DOCKED: ENDBRANCH  10  12
DOCKED: ENDBRANCH   5   6
DOCKED: ENDBRANCH   4   5
DOCKED: ENDBRANCH   3   4
DOCKED: ENDBRANCH   1   3
DOCKED: BRANCH   1  16
DOCKED: ATOM     16  C   UNL     1     138.844  73.676 221.129 -0.15 -0.01    +0.060 C  
DOCKED: BRANCH  16  17
DOCKED: ATOM     17  C   UNL     1     139.241  73.955 219.669 -0.06 -0.01    +0.048 C  
DOCKED: BRANCH  17  18
DOCKED: ATOM     18  C   UNL     1     140.173  72.887 219.079 -0.02 -0.04    +0.230 C  
DOCKED: BRANCH  18  19
DOCKED: ATOM     19  O   UNL     1     141.418  73.486 218.719 +0.02 +0.11    -0.492 OA 
DOCKED: BRANCH  19  20
DOCKED: ATOM     20  C   UNL     1     142.591  73.431 219.489 -0.13 -0.03    +0.137 A  
DOCKED: ATOM     21  C   UNL     1     143.089  72.222 220.015 -0.21 -0.01    +0.049 A  
DOCKED: ATOM     22  C   UNL     1     143.301  74.622 219.722 -0.30 -0.03    +0.084 A  
DOCKED: ATOM     23  C   UNL     1     144.288  72.207 220.732 -0.34 -0.00    +0.024 A  
DOCKED: ATOM     24  C   UNL     1     144.501  74.599 220.441 -0.43 -0.02    +0.045 A  
DOCKED: ATOM     25  C   UNL     1     144.997  73.393 220.941 -0.53 -0.01    +0.042 A  
DOCKED: ATOM     26  Cl  UNL     1     142.690  76.157 219.125 -0.40 +0.04    -0.080 Cl 
DOCKED: ATOM     27  Cl  UNL     1     146.507  73.367 221.833 -0.78 +0.01    -0.084 Cl 
DOCKED: ENDBRANCH  19  20
DOCKED: ENDBRANCH  18  19
DOCKED: ENDBRANCH  17  18
DOCKED: ENDBRANCH  16  17
DOCKED: ENDBRANCH   1  16
DOCKED: TORSDOF 10
DOCKED: TER
DOCKED: ENDMDL
________________________________________________________________________________


    FINAL DOCKED STATE:
    ________________________


Run:   16 / 20
Time taken for this run:   0.054s

DOCKED: MODEL        16
DOCKED: USER    Run = 16
DOCKED: USER
DOCKED: USER    Estimated Free Energy of Binding    =  -6.17 kcal/mol  [=(1)+(2)+(3)-(4)]
DOCKED: USER
DOCKED: USER    (1) Final Intermolecular Energy     =  -9.16 kcal/mol
DOCKED: USER        vdW + Hbond + desolv Energy     =  -9.48 kcal/mol
DOCKED: USER        Electrostatic Energy            =  +0.32 kcal/mol
DOCKED: USER        Moving Ligand-Fixed Receptor    =  -9.16 kcal/mol
DOCKED: USER        Moving Ligand-Moving Receptor   =  +0.00 kcal/mol
DOCKED: USER    (2) Final Total Internal Energy     =  -0.53 kcal/mol
DOCKED: USER    (3) Torsional Free Energy           =  +2.98 kcal/mol
DOCKED: USER    (4) Unbound System's Energy         =  -0.53 kcal/mol
DOCKED: USER
DOCKED: USER
DOCKED: REMARK SMILES O=C(CCCOc1ccc(Cl)cc1Cl)[N-]/N=C/c1cccc(C(F)(F)F)c1
DOCKED: REMARK SMILES IDX 2 1 1 2 15 3 16 4 17 5 18 6 19 7 27 8 20 9 22 10 21 11 23 12
DOCKED: REMARK SMILES IDX 24 13 25 14 26 15 3 16 4 17 5 18 6 19 7 20 8 21 13 22 9 23
DOCKED: REMARK SMILES IDX 12 24 10 25 14 26 11 27
DOCKED: REMARK H PARENT
DOCKED: USER                              x       y       z     vdW  Elec       q    Type
DOCKED: USER                           _______ _______ _______ _____ _____    ______ ____
DOCKED: ROOT
DOCKED: ATOM      1  C   UNL     1     139.973  74.682 221.505 -0.27 -0.01    +0.068 C  
DOCKED: ATOM      2  O   UNL     1     139.546  74.590 222.687 -0.55 +0.03    -0.319 OA 
DOCKED: ENDROOT
DOCKED: BRANCH   1   3
DOCKED: ATOM      3  N   UNL     1     140.275  75.962 220.937 -0.03 +0.15    -0.545 NA 
DOCKED: BRANCH   3   4
DOCKED: ATOM      4  N   UNL     1     141.160  76.901 221.504 -0.13 +0.17    -0.372 NA 
DOCKED: BRANCH   4   5
DOCKED: ATOM      5  C   UNL     1     140.967  77.468 222.658 -0.36 -0.03    +0.094 C  
DOCKED: BRANCH   5   6
DOCKED: ATOM      6  C   UNL     1     141.291  78.892 222.871 -0.51 +0.00    -0.009 A  
DOCKED: ATOM      7  C   UNL     1     142.231  79.294 223.834 -0.55 -0.00    +0.009 A  
DOCKED: ATOM      8  C   UNL     1     140.672  79.862 222.066 -0.33 -0.01    +0.022 A  
DOCKED: ATOM      9  C   UNL     1     142.554  80.644 223.980 -0.65 -0.00    +0.001 A  
DOCKED: ATOM     10  C   UNL     1     140.982  81.226 222.219 -0.37 -0.01    +0.056 A  
DOCKED: ATOM     11  C   UNL     1     141.942  81.605 223.172 -0.50 -0.00    +0.013 A  
DOCKED: BRANCH  10  12
DOCKED: ATOM     12  C   UNL     1     140.378  82.262 221.305 -0.13 -0.08    +0.416 C  
DOCKED: ATOM     13  F   UNL     1     139.098  82.556 221.735 -0.06 +0.02    -0.166 F  
DOCKED: ATOM     14  F   UNL     1     140.319  81.781 220.008 -0.04 +0.04    -0.166 F  
DOCKED: ATOM     15  F   UNL     1     141.130  83.424 221.303 -0.12 +0.03    -0.166 F  
DOCKED: ENDBRANCH  10  12
DOCKED: ENDBRANCH   5   6
DOCKED: ENDBRANCH   4   5
DOCKED: ENDBRANCH   3   4
DOCKED: ENDBRANCH   1   3
DOCKED: BRANCH   1  16
DOCKED: ATOM     16  C   UNL     1     140.202  73.436 220.703 -0.17 -0.01    +0.060 C  
DOCKED: BRANCH  16  17
DOCKED: ATOM     17  C   UNL     1     139.771  72.162 221.452 -0.19 -0.01    +0.048 C  
DOCKED: BRANCH  17  18
DOCKED: ATOM     18  C   UNL     1     140.738  71.763 222.576 -0.18 -0.02    +0.230 C  
DOCKED: BRANCH  18  19
DOCKED: ATOM     19  O   UNL     1     140.122  71.999 223.842 -0.21 +0.09    -0.492 OA 
DOCKED: BRANCH  19  20
DOCKED: ATOM     20  C   UNL     1     140.276  71.188 224.977 -0.42 -0.02    +0.137 A  
DOCKED: ATOM     21  C   UNL     1     140.984  71.617 226.117 -0.62 -0.01    +0.049 A  
DOCKED: ATOM     22  C   UNL     1     139.684  69.913 224.980 -0.36 -0.01    +0.084 A  
DOCKED: ATOM     23  C   UNL     1     141.069  70.796 227.245 -0.64 -0.00    +0.024 A  
DOCKED: ATOM     24  C   UNL     1     139.772  69.096 226.113 -0.47 -0.01    +0.045 A  
DOCKED: ATOM     25  C   UNL     1     140.459  69.539 227.246 -0.56 -0.01    +0.042 A  
DOCKED: ATOM     26  Cl  UNL     1     138.833  69.320 223.561 -0.34 +0.01    -0.080 Cl 
DOCKED: ATOM     27  Cl  UNL     1     140.559  68.516 228.667 -0.71 +0.02    -0.084 Cl 
DOCKED: ENDBRANCH  19  20
DOCKED: ENDBRANCH  18  19
DOCKED: ENDBRANCH  17  18
DOCKED: ENDBRANCH  16  17
DOCKED: ENDBRANCH   1  16
DOCKED: TORSDOF 10
DOCKED: TER
DOCKED: ENDMDL
________________________________________________________________________________


    FINAL DOCKED STATE:
    ________________________


Run:   17 / 20
Time taken for this run:   0.054s

DOCKED: MODEL        17
DOCKED: USER    Run = 17
DOCKED: USER
DOCKED: USER    Estimated Free Energy of Binding    =  -6.52 kcal/mol  [=(1)+(2)+(3)-(4)]
DOCKED: USER
DOCKED: USER    (1) Final Intermolecular Energy     =  -9.50 kcal/mol
DOCKED: USER        vdW + Hbond + desolv Energy     =  -9.59 kcal/mol
DOCKED: USER        Electrostatic Energy            =  +0.09 kcal/mol
DOCKED: USER        Moving Ligand-Fixed Receptor    =  -9.50 kcal/mol
DOCKED: USER        Moving Ligand-Moving Receptor   =  +0.00 kcal/mol
DOCKED: USER    (2) Final Total Internal Energy     =  -0.76 kcal/mol
DOCKED: USER    (3) Torsional Free Energy           =  +2.98 kcal/mol
DOCKED: USER    (4) Unbound System's Energy         =  -0.76 kcal/mol
DOCKED: USER
DOCKED: USER
DOCKED: REMARK SMILES O=C(CCCOc1ccc(Cl)cc1Cl)[N-]/N=C/c1cccc(C(F)(F)F)c1
DOCKED: REMARK SMILES IDX 2 1 1 2 15 3 16 4 17 5 18 6 19 7 27 8 20 9 22 10 21 11 23 12
DOCKED: REMARK SMILES IDX 24 13 25 14 26 15 3 16 4 17 5 18 6 19 7 20 8 21 13 22 9 23
DOCKED: REMARK SMILES IDX 12 24 10 25 14 26 11 27
DOCKED: REMARK H PARENT
DOCKED: USER                              x       y       z     vdW  Elec       q    Type
DOCKED: USER                           _______ _______ _______ _____ _____    ______ ____
DOCKED: ROOT
DOCKED: ATOM      1  C   UNL     1     139.822  72.422 222.177 -0.27 -0.01    +0.068 C  
DOCKED: ATOM      2  O   UNL     1     140.626  73.366 222.399 -0.70 -0.01    -0.319 OA 
DOCKED: ENDROOT
DOCKED: BRANCH   1   3
DOCKED: ATOM      3  N   UNL     1     140.005  71.148 222.808 -0.05 +0.09    -0.545 NA 
DOCKED: BRANCH   3   4
DOCKED: ATOM      4  N   UNL     1     139.008  70.459 223.526 -0.10 +0.07    -0.372 NA 
DOCKED: BRANCH   4   5
DOCKED: ATOM      5  C   UNL     1     139.207  69.323 224.126 -0.28 -0.02    +0.094 C  
DOCKED: BRANCH   5   6
DOCKED: ATOM      6  C   UNL     1     139.769  69.270 225.489 -0.44 +0.00    -0.009 A  
DOCKED: ATOM      7  C   UNL     1     140.080  68.047 226.107 -0.61 -0.00    +0.009 A  
DOCKED: ATOM      8  C   UNL     1     140.034  70.470 226.168 -0.51 -0.00    +0.022 A  
DOCKED: ATOM      9  C   UNL     1     140.656  68.029 227.378 -0.67 -0.00    +0.001 A  
DOCKED: ATOM     10  C   UNL     1     140.601  70.458 227.455 -0.59 -0.01    +0.056 A  
DOCKED: ATOM     11  C   UNL     1     140.926  69.226 228.046 -0.61 -0.00    +0.013 A  
DOCKED: BRANCH  10  12
DOCKED: ATOM     12  C   UNL     1     140.958  71.746 228.153 -0.35 -0.10    +0.416 C  
DOCKED: ATOM     13  F   UNL     1     141.938  71.495 229.095 -0.17 +0.04    -0.166 F  
DOCKED: ATOM     14  F   UNL     1     139.846  72.271 228.788 -0.27 +0.06    -0.166 F  
DOCKED: ATOM     15  F   UNL     1     141.428  72.687 227.253 -0.34 +0.04    -0.166 F  
DOCKED: ENDBRANCH  10  12
DOCKED: ENDBRANCH   5   6
DOCKED: ENDBRANCH   4   5
DOCKED: ENDBRANCH   3   4
DOCKED: ENDBRANCH   1   3
DOCKED: BRANCH   1  16
DOCKED: ATOM     16  C   UNL     1     138.645  72.649 221.277 -0.13 -0.01    +0.060 C  
DOCKED: BRANCH  16  17
DOCKED: ATOM     17  C   UNL     1     137.798  73.860 221.704 -0.15 -0.01    +0.048 C  
DOCKED: BRANCH  17  18
DOCKED: ATOM     18  C   UNL     1     138.414  75.206 221.296 -0.13 -0.05    +0.230 C  
DOCKED: BRANCH  18  19
DOCKED: ATOM     19  O   UNL     1     139.236  75.695 222.356 -0.27 +0.10    -0.492 OA 
DOCKED: BRANCH  19  20
DOCKED: ATOM     20  C   UNL     1     139.883  76.941 222.365 -0.31 -0.03    +0.137 A  
DOCKED: ATOM     21  C   UNL     1     139.389  78.038 223.097 -0.18 -0.01    +0.049 A  
DOCKED: ATOM     22  C   UNL     1     141.075  77.087 221.634 -0.33 -0.04    +0.084 A  
DOCKED: ATOM     23  C   UNL     1     140.094  79.246 223.118 -0.41 -0.00    +0.024 A  
DOCKED: ATOM     24  C   UNL     1     141.775  78.298 221.661 -0.33 -0.03    +0.045 A  
DOCKED: ATOM     25  C   UNL     1     141.289  79.375 222.406 -0.43 -0.01    +0.042 A  
DOCKED: ATOM     26  Cl  UNL     1     141.700  75.758 220.669 -0.32 +0.03    -0.080 Cl 
DOCKED: ATOM     27  Cl  UNL     1     142.174  80.888 222.444 -0.66 +0.02    -0.084 Cl 
DOCKED: ENDBRANCH  19  20
DOCKED: ENDBRANCH  18  19
DOCKED: ENDBRANCH  17  18
DOCKED: ENDBRANCH  16  17
DOCKED: ENDBRANCH   1  16
DOCKED: TORSDOF 10
DOCKED: TER
DOCKED: ENDMDL
________________________________________________________________________________


    FINAL DOCKED STATE:
    ________________________


Run:   18 / 20
Time taken for this run:   0.054s

DOCKED: MODEL        18
DOCKED: USER    Run = 18
DOCKED: USER
DOCKED: USER    Estimated Free Energy of Binding    =  -6.33 kcal/mol  [=(1)+(2)+(3)-(4)]
DOCKED: USER
DOCKED: USER    (1) Final Intermolecular Energy     =  -9.31 kcal/mol
DOCKED: USER        vdW + Hbond + desolv Energy     =  -9.46 kcal/mol
DOCKED: USER        Electrostatic Energy            =  +0.15 kcal/mol
DOCKED: USER        Moving Ligand-Fixed Receptor    =  -9.31 kcal/mol
DOCKED: USER        Moving Ligand-Moving Receptor   =  +0.00 kcal/mol
DOCKED: USER    (2) Final Total Internal Energy     =  -0.66 kcal/mol
DOCKED: USER    (3) Torsional Free Energy           =  +2.98 kcal/mol
DOCKED: USER    (4) Unbound System's Energy         =  -0.66 kcal/mol
DOCKED: USER
DOCKED: USER
DOCKED: REMARK SMILES O=C(CCCOc1ccc(Cl)cc1Cl)[N-]/N=C/c1cccc(C(F)(F)F)c1
DOCKED: REMARK SMILES IDX 2 1 1 2 15 3 16 4 17 5 18 6 19 7 27 8 20 9 22 10 21 11 23 12
DOCKED: REMARK SMILES IDX 24 13 25 14 26 15 3 16 4 17 5 18 6 19 7 20 8 21 13 22 9 23
DOCKED: REMARK SMILES IDX 12 24 10 25 14 26 11 27
DOCKED: REMARK H PARENT
DOCKED: USER                              x       y       z     vdW  Elec       q    Type
DOCKED: USER                           _______ _______ _______ _____ _____    ______ ____
DOCKED: ROOT
DOCKED: ATOM      1  C   UNL     1     140.650  73.594 221.640 -0.27 -0.01    +0.068 C  
DOCKED: ATOM      2  O   UNL     1     139.749  74.176 222.303 -0.79 +0.03    -0.319 OA 
DOCKED: ENDROOT
DOCKED: BRANCH   1   3
DOCKED: ATOM      3  N   UNL     1     140.640  72.169 221.497 -0.05 +0.07    -0.545 NA 
DOCKED: BRANCH   3   4
DOCKED: ATOM      4  N   UNL     1     140.720  71.256 222.566 -0.06 +0.04    -0.372 NA 
DOCKED: BRANCH   4   5
DOCKED: ATOM      5  C   UNL     1     139.684  70.810 223.212 -0.27 -0.02    +0.094 C  
DOCKED: BRANCH   5   6
DOCKED: ATOM      6  C   UNL     1     139.799  70.336 224.605 -0.41 +0.00    -0.009 A  
DOCKED: ATOM      7  C   UNL     1     139.499  69.009 224.955 -0.39 -0.00    +0.009 A  
DOCKED: ATOM      8  C   UNL     1     140.257  71.222 225.594 -0.53 -0.00    +0.022 A  
DOCKED: ATOM      9  C   UNL     1     139.664  68.575 226.272 -0.56 -0.00    +0.001 A  
DOCKED: ATOM     10  C   UNL     1     140.411  70.795 226.925 -0.58 -0.01    +0.056 A  
DOCKED: ATOM     11  C   UNL     1     140.127  69.459 227.250 -0.58 -0.00    +0.013 A  
DOCKED: BRANCH  10  12
DOCKED: ATOM     12  C   UNL     1     140.975  71.722 227.972 -0.40 -0.09    +0.416 C  
DOCKED: ATOM     13  F   UNL     1     139.938  72.247 228.720 -0.29 +0.06    -0.166 F  
DOCKED: ATOM     14  F   UNL     1     141.669  72.758 227.372 -0.33 +0.04    -0.166 F  
DOCKED: ATOM     15  F   UNL     1     141.844  71.050 228.816 -0.12 +0.03    -0.166 F  
DOCKED: ENDBRANCH  10  12
DOCKED: ENDBRANCH   5   6
DOCKED: ENDBRANCH   4   5
DOCKED: ENDBRANCH   3   4
DOCKED: ENDBRANCH   1   3
DOCKED: BRANCH   1  16
DOCKED: ATOM     16  C   UNL     1     141.714  74.408 220.966 -0.25 -0.01    +0.060 C  
DOCKED: BRANCH  16  17
DOCKED: ATOM     17  C   UNL     1     141.266  75.853 220.686 -0.27 -0.02    +0.048 C  
DOCKED: BRANCH  17  18
DOCKED: ATOM     18  C   UNL     1     141.054  76.681 221.962 -0.23 -0.09    +0.230 C  
DOCKED: BRANCH  18  19
DOCKED: ATOM     19  O   UNL     1     140.696  78.017 221.610 -0.07 +0.18    -0.492 OA 
DOCKED: BRANCH  19  20
DOCKED: ATOM     20  C   UNL     1     139.879  78.862 222.377 -0.25 -0.03    +0.137 A  
DOCKED: ATOM     21  C   UNL     1     138.485  78.677 222.469 -0.23 -0.01    +0.049 A  
DOCKED: ATOM     22  C   UNL     1     140.478  79.914 223.091 -0.39 -0.02    +0.084 A  
DOCKED: ATOM     23  C   UNL     1     137.716  79.512 223.285 -0.24 -0.00    +0.024 A  
DOCKED: ATOM     24  C   UNL     1     139.702  80.745 223.906 -0.31 -0.00    +0.045 A  
DOCKED: ATOM     25  C   UNL     1     138.323  80.541 224.008 -0.38 -0.00    +0.042 A  
DOCKED: ATOM     26  Cl  UNL     1     142.205  80.209 222.965 -0.77 +0.02    -0.080 Cl 
DOCKED: ATOM     27  Cl  UNL     1     137.356  81.580 225.039 -0.45 +0.01    -0.084 Cl 
DOCKED: ENDBRANCH  19  20
DOCKED: ENDBRANCH  18  19
DOCKED: ENDBRANCH  17  18
DOCKED: ENDBRANCH  16  17
DOCKED: ENDBRANCH   1  16
DOCKED: TORSDOF 10
DOCKED: TER
DOCKED: ENDMDL
________________________________________________________________________________


    FINAL DOCKED STATE:
    ________________________


Run:   19 / 20
Time taken for this run:   0.054s

DOCKED: MODEL        19
DOCKED: USER    Run = 19
DOCKED: USER
DOCKED: USER    Estimated Free Energy of Binding    =  -5.97 kcal/mol  [=(1)+(2)+(3)-(4)]
DOCKED: USER
DOCKED: USER    (1) Final Intermolecular Energy     =  -8.95 kcal/mol
DOCKED: USER        vdW + Hbond + desolv Energy     =  -9.02 kcal/mol
DOCKED: USER        Electrostatic Energy            =  +0.07 kcal/mol
DOCKED: USER        Moving Ligand-Fixed Receptor    =  -8.95 kcal/mol
DOCKED: USER        Moving Ligand-Moving Receptor   =  +0.00 kcal/mol
DOCKED: USER    (2) Final Total Internal Energy     =  -0.76 kcal/mol
DOCKED: USER    (3) Torsional Free Energy           =  +2.98 kcal/mol
DOCKED: USER    (4) Unbound System's Energy         =  -0.76 kcal/mol
DOCKED: USER
DOCKED: USER
DOCKED: REMARK SMILES O=C(CCCOc1ccc(Cl)cc1Cl)[N-]/N=C/c1cccc(C(F)(F)F)c1
DOCKED: REMARK SMILES IDX 2 1 1 2 15 3 16 4 17 5 18 6 19 7 27 8 20 9 22 10 21 11 23 12
DOCKED: REMARK SMILES IDX 24 13 25 14 26 15 3 16 4 17 5 18 6 19 7 20 8 21 13 22 9 23
DOCKED: REMARK SMILES IDX 12 24 10 25 14 26 11 27
DOCKED: REMARK H PARENT
DOCKED: USER                              x       y       z     vdW  Elec       q    Type
DOCKED: USER                           _______ _______ _______ _____ _____    ______ ____
DOCKED: ROOT
DOCKED: ATOM      1  C   UNL     1     139.998  73.630 221.827 -0.25 -0.01    +0.068 C  
DOCKED: ATOM      2  O   UNL     1     141.091  73.276 222.343 -0.52 -0.02    -0.319 OA 
DOCKED: ENDROOT
DOCKED: BRANCH   1   3
DOCKED: ATOM      3  N   UNL     1     139.741  75.011 221.543 -0.20 +0.10    -0.545 NA 
DOCKED: BRANCH   3   4
DOCKED: ATOM      4  N   UNL     1     140.011  76.074 222.427 -0.28 +0.07    -0.372 NA 
DOCKED: BRANCH   4   5
DOCKED: ATOM      5  C   UNL     1     141.058  76.840 222.334 -0.30 -0.04    +0.094 C  
DOCKED: BRANCH   5   6
DOCKED: ATOM      6  C   UNL     1     141.031  78.229 222.830 -0.49 +0.00    -0.009 A  
DOCKED: ATOM      7  C   UNL     1     142.212  78.974 222.989 -0.55 -0.00    +0.009 A  
DOCKED: ATOM      8  C   UNL     1     139.794  78.832 223.112 -0.37 -0.00    +0.022 A  
DOCKED: ATOM      9  C   UNL     1     142.153  80.302 223.415 -0.64 -0.00    +0.001 A  
DOCKED: ATOM     10  C   UNL     1     139.730  80.166 223.555 -0.40 -0.01    +0.056 A  
DOCKED: ATOM     11  C   UNL     1     140.920  80.900 223.686 -0.46 -0.00    +0.013 A  
DOCKED: BRANCH  10  12
DOCKED: ATOM     12  C   UNL     1     138.400  80.839 223.784 -0.17 -0.04    +0.416 C  
DOCKED: ATOM     13  F   UNL     1     137.384  79.964 223.447 -0.08 +0.02    -0.166 F  
DOCKED: ATOM     14  F   UNL     1     138.296  81.975 223.000 -0.06 +0.02    -0.166 F  
DOCKED: ATOM     15  F   UNL     1     138.252  81.212 225.109 -0.13 +0.01    -0.166 F  
DOCKED: ENDBRANCH  10  12
DOCKED: ENDBRANCH   5   6
DOCKED: ENDBRANCH   4   5
DOCKED: ENDBRANCH   3   4
DOCKED: ENDBRANCH   1   3
DOCKED: BRANCH   1  16
DOCKED: ATOM     16  C   UNL     1     138.977  72.591 221.472 -0.16 -0.01    +0.060 C  
DOCKED: BRANCH  16  17
DOCKED: ATOM     17  C   UNL     1     137.699  72.701 222.322 -0.12 -0.02    +0.048 C  
DOCKED: BRANCH  17  18
DOCKED: ATOM     18  C   UNL     1     137.470  71.486 223.232 -0.13 -0.06    +0.230 C  
DOCKED: BRANCH  18  19
DOCKED: ATOM     19  O   UNL     1     138.655  70.691 223.277 -0.06 +0.10    -0.492 OA 
DOCKED: BRANCH  19  20
DOCKED: ATOM     20  C   UNL     1     139.262  70.214 224.449 -0.29 -0.02    +0.137 A  
DOCKED: ATOM     21  C   UNL     1     139.752  71.079 225.448 -0.42 -0.01    +0.049 A  
DOCKED: ATOM     22  C   UNL     1     139.364  68.824 224.638 -0.31 -0.01    +0.084 A  
DOCKED: ATOM     23  C   UNL     1     140.303  70.558 226.622 -0.57 -0.00    +0.024 A  
DOCKED: ATOM     24  C   UNL     1     139.917  68.311 225.816 -0.52 -0.01    +0.045 A  
DOCKED: ATOM     25  C   UNL     1     140.381  69.176 226.810 -0.54 -0.01    +0.042 A  
DOCKED: ATOM     26  Cl  UNL     1     138.810  67.712 223.396 -0.23 +0.01    -0.080 Cl 
DOCKED: ATOM     27  Cl  UNL     1     141.065  68.528 228.289 -0.78 +0.02    -0.084 Cl 
DOCKED: ENDBRANCH  19  20
DOCKED: ENDBRANCH  18  19
DOCKED: ENDBRANCH  17  18
DOCKED: ENDBRANCH  16  17
DOCKED: ENDBRANCH   1  16
DOCKED: TORSDOF 10
DOCKED: TER
DOCKED: ENDMDL
________________________________________________________________________________


    FINAL DOCKED STATE:
    ________________________


Run:   20 / 20
Time taken for this run:   0.054s

DOCKED: MODEL        20
DOCKED: USER    Run = 20
DOCKED: USER
DOCKED: USER    Estimated Free Energy of Binding    =  -6.71 kcal/mol  [=(1)+(2)+(3)-(4)]
DOCKED: USER
DOCKED: USER    (1) Final Intermolecular Energy     =  -9.69 kcal/mol
DOCKED: USER        vdW + Hbond + desolv Energy     =  -9.89 kcal/mol
DOCKED: USER        Electrostatic Energy            =  +0.20 kcal/mol
DOCKED: USER        Moving Ligand-Fixed Receptor    =  -9.69 kcal/mol
DOCKED: USER        Moving Ligand-Moving Receptor   =  +0.00 kcal/mol
DOCKED: USER    (2) Final Total Internal Energy     =  -0.77 kcal/mol
DOCKED: USER    (3) Torsional Free Energy           =  +2.98 kcal/mol
DOCKED: USER    (4) Unbound System's Energy         =  -0.77 kcal/mol
DOCKED: USER
DOCKED: USER
DOCKED: REMARK SMILES O=C(CCCOc1ccc(Cl)cc1Cl)[N-]/N=C/c1cccc(C(F)(F)F)c1
DOCKED: REMARK SMILES IDX 2 1 1 2 15 3 16 4 17 5 18 6 19 7 27 8 20 9 22 10 21 11 23 12
DOCKED: REMARK SMILES IDX 24 13 25 14 26 15 3 16 4 17 5 18 6 19 7 20 8 21 13 22 9 23
DOCKED: REMARK SMILES IDX 12 24 10 25 14 26 11 27
DOCKED: REMARK H PARENT
DOCKED: USER                              x       y       z     vdW  Elec       q    Type
DOCKED: USER                           _______ _______ _______ _____ _____    ______ ____
DOCKED: ROOT
DOCKED: ATOM      1  C   UNL     1     140.139  74.950 221.964 -0.21 -0.01    +0.068 C  
DOCKED: ATOM      2  O   UNL     1     139.559  75.901 222.554 -0.38 +0.05    -0.319 OA 
DOCKED: ENDROOT
DOCKED: BRANCH   1   3
DOCKED: ATOM      3  N   UNL     1     139.794  73.592 222.262 -0.59 +0.07    -0.545 NA 
DOCKED: BRANCH   3   4
DOCKED: ATOM      4  N   UNL     1     140.683  72.638 222.796 -0.41 +0.01    -0.372 NA 
DOCKED: BRANCH   4   5
DOCKED: ATOM      5  C   UNL     1     140.388  71.381 222.942 -0.26 -0.01    +0.094 C  
DOCKED: BRANCH   5   6
DOCKED: ATOM      6  C   UNL     1     140.196  70.795 224.283 -0.42 +0.00    -0.009 A  
DOCKED: ATOM      7  C   UNL     1     139.631  69.520 224.452 -0.33 -0.00    +0.009 A  
DOCKED: ATOM      8  C   UNL     1     140.624  71.513 225.412 -0.55 -0.00    +0.022 A  
DOCKED: ATOM      9  C   UNL     1     139.507  68.970 225.729 -0.47 -0.00    +0.001 A  
DOCKED: ATOM     10  C   UNL     1     140.487  70.971 226.702 -0.59 -0.01    +0.056 A  
DOCKED: ATOM     11  C   UNL     1     139.941  69.685 226.848 -0.54 -0.00    +0.013 A  
DOCKED: BRANCH  10  12
DOCKED: ATOM     12  C   UNL     1     141.015  71.706 227.908 -0.40 -0.09    +0.416 C  
DOCKED: ATOM     13  F   UNL     1     139.952  72.196 228.643 -0.29 +0.06    -0.166 F  
DOCKED: ATOM     14  F   UNL     1     141.816  72.764 227.512 -0.33 +0.03    -0.166 F  
DOCKED: ATOM     15  F   UNL     1     141.770  70.868 228.712 -0.14 +0.03    -0.166 F  
DOCKED: ENDBRANCH  10  12
DOCKED: ENDBRANCH   5   6
DOCKED: ENDBRANCH   4   5
DOCKED: ENDBRANCH   3   4
DOCKED: ENDBRANCH   1   3
DOCKED: BRANCH   1  16
DOCKED: ATOM     16  C   UNL     1     141.169  75.248 220.916 -0.28 -0.02    +0.060 C  
DOCKED: BRANCH  16  17
DOCKED: ATOM     17  C   UNL     1     140.781  76.443 220.027 -0.17 -0.02    +0.048 C  
DOCKED: BRANCH  17  18
DOCKED: ATOM     18  C   UNL     1     141.747  77.630 220.151 -0.20 -0.13    +0.230 C  
DOCKED: BRANCH  18  19
DOCKED: ATOM     19  O   UNL     1     141.803  78.061 221.511 -0.11 +0.31    -0.492 OA 
DOCKED: BRANCH  19  20
DOCKED: ATOM     20  C   UNL     1     140.814  78.818 222.159 -0.30 -0.05    +0.137 A  
DOCKED: ATOM     21  C   UNL     1     139.439  78.597 221.946 -0.23 -0.01    +0.049 A  
DOCKED: ATOM     22  C   UNL     1     141.215  79.816 223.064 -0.45 -0.02    +0.084 A  
DOCKED: ATOM     23  C   UNL     1     138.489  79.341 222.652 -0.26 -0.00    +0.024 A  
DOCKED: ATOM     24  C   UNL     1     140.257  80.557 223.767 -0.39 -0.01    +0.045 A  
DOCKED: ATOM     25  C   UNL     1     138.896  80.316 223.565 -0.37 -0.01    +0.042 A  
DOCKED: ATOM     26  Cl  UNL     1     142.919  80.157 223.322 -0.78 +0.02    -0.080 Cl 
DOCKED: ATOM     27  Cl  UNL     1     137.700  81.241 224.455 -0.44 +0.01    -0.084 Cl 
DOCKED: ENDBRANCH  19  20
DOCKED: ENDBRANCH  18  19
DOCKED: ENDBRANCH  17  18
DOCKED: ENDBRANCH  16  17
DOCKED: ENDBRANCH   1  16
DOCKED: TORSDOF 10
DOCKED: TER
DOCKED: ENDMDL
________________________________________________________________________________


    CLUSTERING HISTOGRAM
    ____________________


________________________________________________________________________________
     |           |     |           |     |
Clus | Lowest    | Run | Mean      | Num | Histogram
-ter | Binding   |     | Binding   | in  |
Rank | Energy    |     | Energy    | Clus|    5    10   15   20   25   30   35
_____|___________|_____|___________|_____|____:____|____:____|____:____|____:___
   1 |     -6.85 |   1 |     -6.62 |   6 |######
   2 |     -6.71 |  20 |     -6.36 |   6 |######
   3 |     -6.30 |   8 |     -6.09 |   4 |####
   4 |     -5.99 |  15 |     -5.99 |   1 |#
   5 |     -5.11 |   5 |     -5.07 |   2 |##
   6 |     -4.63 |   3 |     -4.63 |   1 |#
_____|___________|_____|___________|_____|______________________________________


    RMSD TABLE
    __________


_______________________________________________________________________
     |      |      |           |         |                 |
Rank | Sub- | Run  | Binding   | Cluster | Reference       | Grep
     | Rank |      | Energy    | RMSD    | RMSD            | Pattern
_____|______|______|___________|_________|_________________|___________
   1      1      1       -6.85      0.00    273.69           RANKING
   1      2     12       -6.74      1.92    273.66           RANKING
   1      3      2       -6.66      1.65    273.76           RANKING
   1      4      7       -6.58      1.96    273.97           RANKING
   1      5     13       -6.57      1.90    273.46           RANKING
   1      6      4       -6.31      1.80    273.45           RANKING
   2      1     20       -6.71      0.00    273.78           RANKING
   2      2     17       -6.52      1.89    273.51           RANKING
   2      3     14       -6.41      1.77    273.82           RANKING
   2      4     18       -6.33      0.92    273.74           RANKING
   2      5     10       -6.17      1.45    273.71           RANKING
   2      6     11       -6.05      1.47    273.90           RANKING
   3      1      8       -6.30      0.00    273.29           RANKING
   3      2     16       -6.17      1.71    273.52           RANKING
   3      3     19       -5.97      0.64    273.21           RANKING
   3      4      6       -5.91      1.24    273.46           RANKING
   4      1     15       -5.99      0.00    272.93           RANKING
   5      1      5       -5.11      0.00    272.58           RANKING
   5      2      9       -5.02      0.23    272.58           RANKING
   6      1      3       -4.63      0.00    272.56           RANKING

Run time 1.049 sec
Idle time 0.000 sec
