AutoDock-GPU version: v1.6

**********************************************************
**    AutoDock-GPU AUTODOCKTOOLS-COMPATIBLE DLG FILE    **
**********************************************************


    DOCKING PARAMETERS
    ________________________


Ligand file:                               /home/a/REINVENT4/ReinventStudies/scoringData/graph-dock-h4r84i/graph-DockGPU/node-autodockgpu/inputs/VHXSVHVNRGGTDL-UPLQUKELNA-M.pdbqt
Grid fld file:                             /home/a/REINVENT4/ReinventStudies/mols/Rad51/maps/rad51_receptor.maps.fld

Random seed:                               42
Number of runs:                            20
Number of energy evaluations:              2542121
Number of generations:                     42000
Size of population:                        150
Rate of crossover:                         80.000000%
Tournament selection probability limit:    60.000000%
Rate of mutation:                          2.000000%
Maximal allowed delta movement:            +/- 6.000000A
Maximal allowed delta angle:               +/- 90.000000

Rate of local search:                      100.000000%
Maximal number of local search iterations: 300
Rho lower bound:                           0.010000
Spread of local search delta movement:     2.000000A
Spread of local search delta angle:        74.999999
Limit of consecutive successes/failures:   4

Handle symmetry during clustering:         YES
RMSD tolerance:                            2.000000A

Program call in command line was:          /home/a/REINVENT4/ReinventStudies/adgpu-v1.6_linux_x64_cuda12_128wi --filelist batch.txt --heuristics 1 --nrun 20 --psize 150 --lsit 300 --seed 42 --heurmax 12000000 


    GRID PARAMETERS
    ________________________


Receptor name:                             rad51_receptor
Number of grid points (x, y, z):           53, 53, 53
Grid center (x, y, z):                     139.950000, 75.640000, 221.970000A
Grid size (x, y, z):                       19.500000, 19.500000, 19.500000A
Grid spacing:                              0.375000A


    LIGAND PARAMETERS
    ________________________


Ligand name:                               /home/a/REINVENT4/ReinventStudies/scoringData/graph-dock-h4r84i/graph-DockGPU/node-autodockgpu/inputs/VHXSVHVNRGGTDL-UPLQUKELNA-M
Number of atoms:                           27
Number of rotatable bonds:                 10
Number of atom types:                      6


    DUMMY DATA (only for ADT-compatibility)
    ________________________


DPF> outlev 1
DPF> ga_run 20
DPF> fld /home/a/REINVENT4/ReinventStudies/mols/Rad51/maps/rad51_receptor.maps.fld
DPF> move /home/a/REINVENT4/ReinventStudies/scoringData/graph-dock-h4r84i/graph-DockGPU/node-autodockgpu/inputs/VHXSVHVNRGGTDL-UPLQUKELNA-M.pdbqt


    COUNTER STATES
    ________________________


Number of energy evaluations performed:    2341306
Number of generations used:                120


    INPUT LIGAND PDBQT FILE:
    ________________________


INPUT-LIGAND-PDBQT: REMARK SMILES O=C(CCCOc1ccc(Cl)cc1Cl)[N-]/N=C\c1cccc(C(F)(F)F)c1
INPUT-LIGAND-PDBQT: REMARK SMILES IDX 2 1 1 2 15 3 16 4 17 5 18 6 19 7 27 8 20 9 22 10 21 11 23 12
INPUT-LIGAND-PDBQT: REMARK SMILES IDX 24 13 25 14 26 15 3 16 4 17 5 18 6 19 7 20 8 21 13 22 9 23
INPUT-LIGAND-PDBQT: REMARK SMILES IDX 12 24 10 25 14 26 11 27
INPUT-LIGAND-PDBQT: REMARK H PARENT
INPUT-LIGAND-PDBQT: ROOT
INPUT-LIGAND-PDBQT: ATOM      1  C   UNL     1       2.591   1.580   0.321  1.00  0.00     0.068 C 
INPUT-LIGAND-PDBQT: ATOM      2  O   UNL     1       3.106   1.818   1.446  1.00  0.00    -0.319 OA
INPUT-LIGAND-PDBQT: ENDROOT
INPUT-LIGAND-PDBQT: BRANCH   1   3
INPUT-LIGAND-PDBQT: ATOM      3  N   UNL     1       1.191   1.759   0.120  1.00  0.00    -0.545 NA
INPUT-LIGAND-PDBQT: BRANCH   3   4
INPUT-LIGAND-PDBQT: ATOM      4  N   UNL     1       0.371   2.276   1.133  1.00  0.00    -0.372 NA
INPUT-LIGAND-PDBQT: BRANCH   4   5
INPUT-LIGAND-PDBQT: ATOM      5  C   UNL     1      -0.922   2.350   1.023  1.00  0.00     0.094 C 
INPUT-LIGAND-PDBQT: BRANCH   5   6
INPUT-LIGAND-PDBQT: ATOM      6  C   UNL     1      -1.668   1.877  -0.165  1.00  0.00    -0.009 A 
INPUT-LIGAND-PDBQT: ATOM      7  C   UNL     1      -1.238   2.168  -1.471  1.00  0.00     0.009 A 
INPUT-LIGAND-PDBQT: ATOM      8  C   UNL     1      -2.866   1.170   0.021  1.00  0.00     0.022 A 
INPUT-LIGAND-PDBQT: ATOM      9  C   UNL     1      -1.980   1.729  -2.570  1.00  0.00     0.001 A 
INPUT-LIGAND-PDBQT: ATOM     10  C   UNL     1      -3.603   0.700  -1.081  1.00  0.00     0.056 A 
INPUT-LIGAND-PDBQT: ATOM     11  C   UNL     1      -3.157   1.002  -2.380  1.00  0.00     0.013 A 
INPUT-LIGAND-PDBQT: BRANCH  10  12
INPUT-LIGAND-PDBQT: ATOM     12  C   UNL     1      -4.903  -0.034  -0.867  1.00  0.00     0.416 C 
INPUT-LIGAND-PDBQT: ATOM     13  F   UNL     1      -4.827  -0.832   0.263  1.00  0.00    -0.166 F 
INPUT-LIGAND-PDBQT: ATOM     14  F   UNL     1      -5.923   0.885  -0.702  1.00  0.00    -0.166 F 
INPUT-LIGAND-PDBQT: ATOM     15  F   UNL     1      -5.197  -0.845  -1.950  1.00  0.00    -0.166 F 
INPUT-LIGAND-PDBQT: ENDBRANCH  10  12
INPUT-LIGAND-PDBQT: ENDBRANCH   5   6
INPUT-LIGAND-PDBQT: ENDBRANCH   4   5
INPUT-LIGAND-PDBQT: ENDBRANCH   3   4
INPUT-LIGAND-PDBQT: ENDBRANCH   1   3
INPUT-LIGAND-PDBQT: BRANCH   1  16
INPUT-LIGAND-PDBQT: ATOM     16  C   UNL     1       3.444   1.074  -0.800  1.00  0.00     0.060 C 
INPUT-LIGAND-PDBQT: BRANCH  16  17
INPUT-LIGAND-PDBQT: ATOM     17  C   UNL     1       3.694  -0.438  -0.699  1.00  0.00     0.048 C 
INPUT-LIGAND-PDBQT: BRANCH  17  18
INPUT-LIGAND-PDBQT: ATOM     18  C   UNL     1       2.466  -1.284  -1.082  1.00  0.00     0.230 C 
INPUT-LIGAND-PDBQT: BRANCH  18  19
INPUT-LIGAND-PDBQT: ATOM     19  O   UNL     1       1.452  -1.267  -0.075  1.00  0.00    -0.492 OA
INPUT-LIGAND-PDBQT: BRANCH  19  20
INPUT-LIGAND-PDBQT: ATOM     20  C   UNL     1       1.561  -1.648   1.277  1.00  0.00     0.137 A 
INPUT-LIGAND-PDBQT: ATOM     21  C   UNL     1       0.630  -1.075   2.155  1.00  0.00     0.049 A 
INPUT-LIGAND-PDBQT: ATOM     22  C   UNL     1       2.518  -2.563   1.798  1.00  0.00     0.084 A 
INPUT-LIGAND-PDBQT: ATOM     23  C   UNL     1       0.671  -1.341   3.524  1.00  0.00     0.024 A 
INPUT-LIGAND-PDBQT: ATOM     24  C   UNL     1       2.549  -2.819   3.177  1.00  0.00     0.045 A 
INPUT-LIGAND-PDBQT: ATOM     25  C   UNL     1       1.638  -2.204   4.038  1.00  0.00     0.042 A 
INPUT-LIGAND-PDBQT: ATOM     26  Cl  UNL     1       3.631  -3.500   0.811  1.00  0.00    -0.080 Cl
INPUT-LIGAND-PDBQT: ATOM     27  Cl  UNL     1       1.691  -2.540   5.759  1.00  0.00    -0.084 Cl
INPUT-LIGAND-PDBQT: ENDBRANCH  19  20
INPUT-LIGAND-PDBQT: ENDBRANCH  18  19
INPUT-LIGAND-PDBQT: ENDBRANCH  17  18
INPUT-LIGAND-PDBQT: ENDBRANCH  16  17
INPUT-LIGAND-PDBQT: ENDBRANCH   1  16
INPUT-LIGAND-PDBQT: TORSDOF 10


    FINAL DOCKED STATE:
    ________________________


Run:   1 / 20
Time taken for this run:   0.091s

DOCKED: MODEL        1
DOCKED: USER    Run = 1
DOCKED: USER
DOCKED: USER    Estimated Free Energy of Binding    =  -6.01 kcal/mol  [=(1)+(2)+(3)-(4)]
DOCKED: USER
DOCKED: USER    (1) Final Intermolecular Energy     =  -9.00 kcal/mol
DOCKED: USER        vdW + Hbond + desolv Energy     =  -9.06 kcal/mol
DOCKED: USER        Electrostatic Energy            =  +0.07 kcal/mol
DOCKED: USER        Moving Ligand-Fixed Receptor    =  -9.00 kcal/mol
DOCKED: USER        Moving Ligand-Moving Receptor   =  +0.00 kcal/mol
DOCKED: USER    (2) Final Total Internal Energy     =  -0.70 kcal/mol
DOCKED: USER    (3) Torsional Free Energy           =  +2.98 kcal/mol
DOCKED: USER    (4) Unbound System's Energy         =  -0.70 kcal/mol
DOCKED: USER
DOCKED: USER
DOCKED: REMARK SMILES O=C(CCCOc1ccc(Cl)cc1Cl)[N-]/N=C\c1cccc(C(F)(F)F)c1
DOCKED: REMARK SMILES IDX 2 1 1 2 15 3 16 4 17 5 18 6 19 7 27 8 20 9 22 10 21 11 23 12
DOCKED: REMARK SMILES IDX 24 13 25 14 26 15 3 16 4 17 5 18 6 19 7 20 8 21 13 22 9 23
DOCKED: REMARK SMILES IDX 12 24 10 25 14 26 11 27
DOCKED: REMARK H PARENT
DOCKED: USER                              x       y       z     vdW  Elec       q    Type
DOCKED: USER                           _______ _______ _______ _____ _____    ______ ____
DOCKED: ROOT
DOCKED: ATOM      1  C   UNL     1     139.077  72.827 221.291 -0.15 -0.01    +0.068 C  
DOCKED: ATOM      2  O   UNL     1     138.952  72.331 220.140 -0.02 +0.06    -0.319 OA 
DOCKED: ENDROOT
DOCKED: BRANCH   1   3
DOCKED: ATOM      3  N   UNL     1     140.253  73.558 221.634 -0.30 +0.07    -0.545 NA 
DOCKED: BRANCH   3   4
DOCKED: ATOM      4  N   UNL     1     140.177  74.776 222.324 -0.57 +0.00    -0.372 NA 
DOCKED: BRANCH   4   5
DOCKED: ATOM      5  C   UNL     1     140.706  75.874 221.874 -0.32 -0.02    +0.094 C  
DOCKED: BRANCH   5   6
DOCKED: ATOM      6  C   UNL     1     140.364  77.218 222.394 -0.40 +0.00    -0.009 A  
DOCKED: ATOM      7  C   UNL     1     139.042  77.570 222.716 -0.30 -0.00    +0.009 A  
DOCKED: ATOM      8  C   UNL     1     141.378  78.180 222.512 -0.45 -0.01    +0.022 A  
DOCKED: ATOM      9  C   UNL     1     138.750  78.855 223.179 -0.31 -0.00    +0.001 A  
DOCKED: ATOM     10  C   UNL     1     141.096  79.467 223.005 -0.46 -0.02    +0.056 A  
DOCKED: ATOM     11  C   UNL     1     139.767  79.801 223.321 -0.41 -0.00    +0.013 A  
DOCKED: BRANCH  10  12
DOCKED: ATOM     12  C   UNL     1     142.191  80.500 223.101 -0.32 -0.10    +0.416 C  
DOCKED: ATOM     13  F   UNL     1     143.434  79.889 223.089 -0.24 +0.06    -0.166 F  
DOCKED: ATOM     14  F   UNL     1     142.101  81.360 222.021 -0.16 +0.04    -0.166 F  
DOCKED: ATOM     15  F   UNL     1     142.079  81.232 224.271 -0.21 +0.02    -0.166 F  
DOCKED: ENDBRANCH  10  12
DOCKED: ENDBRANCH   5   6
DOCKED: ENDBRANCH   4   5
DOCKED: ENDBRANCH   3   4
DOCKED: ENDBRANCH   1   3
DOCKED: BRANCH   1  16
DOCKED: ATOM     16  C   UNL     1     138.006  72.620 222.316 -0.12 -0.02    +0.060 C  
DOCKED: BRANCH  16  17
DOCKED: ATOM     17  C   UNL     1     137.669  71.134 222.507 -0.15 -0.01    +0.048 C  
DOCKED: BRANCH  17  18
DOCKED: ATOM     18  C   UNL     1     138.910  70.223 222.497 -0.13 -0.04    +0.230 C  
DOCKED: BRANCH  18  19
DOCKED: ATOM     19  O   UNL     1     138.798  69.133 223.415 -0.07 +0.08    -0.492 OA 
DOCKED: BRANCH  19  20
DOCKED: ATOM     20  C   UNL     1     139.438  68.974 224.660 -0.28 -0.02    +0.137 A  
DOCKED: ATOM     21  C   UNL     1     139.286  67.723 225.275 -0.38 -0.00    +0.049 A  
DOCKED: ATOM     22  C   UNL     1     140.220  69.966 225.314 -0.40 -0.01    +0.084 A  
DOCKED: ATOM     23  C   UNL     1     139.834  67.466 226.532 -0.64 -0.00    +0.024 A  
DOCKED: ATOM     24  C   UNL     1     140.764  69.695 226.579 -0.52 -0.01    +0.045 A  
DOCKED: ATOM     25  C   UNL     1     140.564  68.455 227.190 -0.63 -0.01    +0.042 A  
DOCKED: ATOM     26  Cl  UNL     1     140.656  71.513 224.600 -0.53 +0.01    -0.080 Cl 
DOCKED: ATOM     27  Cl  UNL     1     141.255  68.134 228.771 -0.61 +0.02    -0.084 Cl 
DOCKED: ENDBRANCH  19  20
DOCKED: ENDBRANCH  18  19
DOCKED: ENDBRANCH  17  18
DOCKED: ENDBRANCH  16  17
DOCKED: ENDBRANCH   1  16
DOCKED: TORSDOF 10
DOCKED: TER
DOCKED: ENDMDL
________________________________________________________________________________


    FINAL DOCKED STATE:
    ________________________


Run:   2 / 20
Time taken for this run:   0.091s

DOCKED: MODEL        2
DOCKED: USER    Run = 2
DOCKED: USER
DOCKED: USER    Estimated Free Energy of Binding    =  -5.52 kcal/mol  [=(1)+(2)+(3)-(4)]
DOCKED: USER
DOCKED: USER    (1) Final Intermolecular Energy     =  -8.50 kcal/mol
DOCKED: USER        vdW + Hbond + desolv Energy     =  -8.49 kcal/mol
DOCKED: USER        Electrostatic Energy            =  -0.01 kcal/mol
DOCKED: USER        Moving Ligand-Fixed Receptor    =  -8.50 kcal/mol
DOCKED: USER        Moving Ligand-Moving Receptor   =  +0.00 kcal/mol
DOCKED: USER    (2) Final Total Internal Energy     =  -1.64 kcal/mol
DOCKED: USER    (3) Torsional Free Energy           =  +2.98 kcal/mol
DOCKED: USER    (4) Unbound System's Energy         =  -1.64 kcal/mol
DOCKED: USER
DOCKED: USER
DOCKED: REMARK SMILES O=C(CCCOc1ccc(Cl)cc1Cl)[N-]/N=C\c1cccc(C(F)(F)F)c1
DOCKED: REMARK SMILES IDX 2 1 1 2 15 3 16 4 17 5 18 6 19 7 27 8 20 9 22 10 21 11 23 12
DOCKED: REMARK SMILES IDX 24 13 25 14 26 15 3 16 4 17 5 18 6 19 7 20 8 21 13 22 9 23
DOCKED: REMARK SMILES IDX 12 24 10 25 14 26 11 27
DOCKED: REMARK H PARENT
DOCKED: USER                              x       y       z     vdW  Elec       q    Type
DOCKED: USER                           _______ _______ _______ _____ _____    ______ ____
DOCKED: ROOT
DOCKED: ATOM      1  C   UNL     1     139.956  72.574 221.910 -0.26 -0.01    +0.068 C  
DOCKED: ATOM      2  O   UNL     1     139.514  71.764 222.768 -0.20 +0.07    -0.319 OA 
DOCKED: ENDROOT
DOCKED: BRANCH   1   3
DOCKED: ATOM      3  N   UNL     1     140.683  73.729 222.320 -0.50 -0.04    -0.545 NA 
DOCKED: BRANCH   3   4
DOCKED: ATOM      4  N   UNL     1     140.110  75.007 222.265 -0.54 +0.02    -0.372 NA 
DOCKED: BRANCH   4   5
DOCKED: ATOM      5  C   UNL     1     140.787  76.070 221.946 -0.33 -0.03    +0.094 C  
DOCKED: BRANCH   5   6
DOCKED: ATOM      6  C   UNL     1     140.451  77.428 222.431 -0.41 +0.00    -0.009 A  
DOCKED: ATOM      7  C   UNL     1     139.127  77.803 222.716 -0.31 -0.00    +0.009 A  
DOCKED: ATOM      8  C   UNL     1     141.475  78.379 222.553 -0.46 -0.01    +0.022 A  
DOCKED: ATOM      9  C   UNL     1     138.841  79.101 223.146 -0.33 -0.00    +0.001 A  
DOCKED: ATOM     10  C   UNL     1     141.198  79.679 223.013 -0.47 -0.01    +0.056 A  
DOCKED: ATOM     11  C   UNL     1     139.867  80.036 223.292 -0.41 -0.00    +0.013 A  
DOCKED: BRANCH  10  12
DOCKED: ATOM     12  C   UNL     1     142.304  80.700 223.112 -0.30 -0.10    +0.416 C  
DOCKED: ATOM     13  F   UNL     1     142.204  81.407 224.300 -0.22 +0.02    -0.166 F  
DOCKED: ATOM     14  F   UNL     1     143.526  80.054 223.074 -0.25 +0.06    -0.166 F  
DOCKED: ATOM     15  F   UNL     1     142.238  81.604 222.065 -0.15 +0.04    -0.166 F  
DOCKED: ENDBRANCH  10  12
DOCKED: ENDBRANCH   5   6
DOCKED: ENDBRANCH   4   5
DOCKED: ENDBRANCH   3   4
DOCKED: ENDBRANCH   1   3
DOCKED: BRANCH   1  16
DOCKED: ATOM     16  C   UNL     1     139.689  72.342 220.455 -0.10 -0.01    +0.060 C  
DOCKED: BRANCH  16  17
DOCKED: ATOM     17  C   UNL     1     139.025  73.557 219.789 -0.06 -0.01    +0.048 C  
DOCKED: BRANCH  17  18
DOCKED: ATOM     18  C   UNL     1     140.033  74.510 219.122 -0.02 -0.05    +0.230 C  
DOCKED: BRANCH  18  19
DOCKED: ATOM     19  O   UNL     1     141.240  73.850 218.735 +0.02 +0.12    -0.492 OA 
DOCKED: BRANCH  19  20
DOCKED: ATOM     20  C   UNL     1     142.478  73.834 219.407 -0.13 -0.03    +0.137 A  
DOCKED: ATOM     21  C   UNL     1     142.960  72.571 219.780 -0.19 -0.01    +0.049 A  
DOCKED: ATOM     22  C   UNL     1     143.261  74.982 219.713 -0.32 -0.04    +0.084 A  
DOCKED: ATOM     23  C   UNL     1     144.152  72.436 220.492 -0.36 -0.00    +0.024 A  
DOCKED: ATOM     24  C   UNL     1     144.456  74.831 220.432 -0.38 -0.02    +0.045 A  
DOCKED: ATOM     25  C   UNL     1     144.895  73.566 220.829 -0.53 -0.01    +0.042 A  
DOCKED: ATOM     26  Cl  UNL     1     142.890  76.609 219.160 -0.45 +0.05    -0.080 Cl 
DOCKED: ATOM     27  Cl  UNL     1     146.394  73.398 221.725 -0.84 +0.01    -0.084 Cl 
DOCKED: ENDBRANCH  19  20
DOCKED: ENDBRANCH  18  19
DOCKED: ENDBRANCH  17  18
DOCKED: ENDBRANCH  16  17
DOCKED: ENDBRANCH   1  16
DOCKED: TORSDOF 10
DOCKED: TER
DOCKED: ENDMDL
________________________________________________________________________________


    FINAL DOCKED STATE:
    ________________________


Run:   3 / 20
Time taken for this run:   0.091s

DOCKED: MODEL        3
DOCKED: USER    Run = 3
DOCKED: USER
DOCKED: USER    Estimated Free Energy of Binding    =  -6.88 kcal/mol  [=(1)+(2)+(3)-(4)]
DOCKED: USER
DOCKED: USER    (1) Final Intermolecular Energy     =  -9.86 kcal/mol
DOCKED: USER        vdW + Hbond + desolv Energy     =  -9.80 kcal/mol
DOCKED: USER        Electrostatic Energy            =  -0.05 kcal/mol
DOCKED: USER        Moving Ligand-Fixed Receptor    =  -9.86 kcal/mol
DOCKED: USER        Moving Ligand-Moving Receptor   =  +0.00 kcal/mol
DOCKED: USER    (2) Final Total Internal Energy     =  -0.72 kcal/mol
DOCKED: USER    (3) Torsional Free Energy           =  +2.98 kcal/mol
DOCKED: USER    (4) Unbound System's Energy         =  -0.72 kcal/mol
DOCKED: USER
DOCKED: USER
DOCKED: REMARK SMILES O=C(CCCOc1ccc(Cl)cc1Cl)[N-]/N=C\c1cccc(C(F)(F)F)c1
DOCKED: REMARK SMILES IDX 2 1 1 2 15 3 16 4 17 5 18 6 19 7 27 8 20 9 22 10 21 11 23 12
DOCKED: REMARK SMILES IDX 24 13 25 14 26 15 3 16 4 17 5 18 6 19 7 20 8 21 13 22 9 23
DOCKED: REMARK SMILES IDX 12 24 10 25 14 26 11 27
DOCKED: REMARK H PARENT
DOCKED: USER                              x       y       z     vdW  Elec       q    Type
DOCKED: USER                           _______ _______ _______ _____ _____    ______ ____
DOCKED: ROOT
DOCKED: ATOM      1  C   UNL     1     134.543  69.536 225.371 -0.25 -0.00    +0.068 C  
DOCKED: ATOM      2  O   UNL     1     133.950  69.179 226.424 -0.74 -0.01    -0.319 OA 
DOCKED: ENDROOT
DOCKED: BRANCH   1   3
DOCKED: ATOM      3  N   UNL     1     135.743  68.880 224.966 -0.25 -0.00    -0.545 NA 
DOCKED: BRANCH   3   4
DOCKED: ATOM      4  N   UNL     1     136.963  69.569 224.907 -0.08 +0.03    -0.372 NA 
DOCKED: BRANCH   4   5
DOCKED: ATOM      5  C   UNL     1     138.110  68.963 224.823 -0.30 -0.01    +0.094 C  
DOCKED: BRANCH   5   6
DOCKED: ATOM      6  C   UNL     1     139.133  68.999 225.893 -0.46 +0.00    -0.009 A  
DOCKED: ATOM      7  C   UNL     1     139.679  67.822 226.432 -0.64 -0.00    +0.009 A  
DOCKED: ATOM      8  C   UNL     1     139.522  70.240 226.419 -0.34 -0.00    +0.022 A  
DOCKED: ATOM      9  C   UNL     1     140.622  67.891 227.460 -0.63 -0.00    +0.001 A  
DOCKED: ATOM     10  C   UNL     1     140.493  70.318 227.434 -0.58 -0.01    +0.056 A  
DOCKED: ATOM     11  C   UNL     1     141.027  69.129 227.962 -0.61 -0.00    +0.013 A  
DOCKED: BRANCH  10  12
DOCKED: ATOM     12  C   UNL     1     140.882  71.657 228.010 -0.39 -0.09    +0.416 C  
DOCKED: ATOM     13  F   UNL     1     141.872  71.502 228.967 -0.19 +0.04    -0.166 F  
DOCKED: ATOM     14  F   UNL     1     141.358  72.468 226.997 -0.32 +0.03    -0.166 F  
DOCKED: ATOM     15  F   UNL     1     139.796  72.272 228.609 -0.26 +0.06    -0.166 F  
DOCKED: ENDBRANCH  10  12
DOCKED: ENDBRANCH   5   6
DOCKED: ENDBRANCH   4   5
DOCKED: ENDBRANCH   3   4
DOCKED: ENDBRANCH   1   3
DOCKED: BRANCH   1  16
DOCKED: ATOM     16  C   UNL     1     134.008  70.674 224.559 -0.14 -0.01    +0.060 C  
DOCKED: BRANCH  16  17
DOCKED: ATOM     17  C   UNL     1     134.892  71.925 224.665 -0.18 -0.00    +0.048 C  
DOCKED: BRANCH  17  18
DOCKED: ATOM     18  C   UNL     1     134.085  73.230 224.793 -0.15 -0.02    +0.230 C  
DOCKED: BRANCH  18  19
DOCKED: ATOM     19  O   UNL     1     134.181  73.809 226.096 -0.59 -0.04    -0.492 OA 
DOCKED: BRANCH  19  20
DOCKED: ATOM     20  C   UNL     1     133.381  74.824 226.658 -0.23 +0.01    +0.137 A  
DOCKED: ATOM     21  C   UNL     1     133.874  76.132 226.541 -0.38 -0.00    +0.049 A  
DOCKED: ATOM     22  C   UNL     1     132.132  74.620 227.308 -0.36 -0.00    +0.084 A  
DOCKED: ATOM     23  C   UNL     1     133.192  77.212 227.101 -0.35 -0.00    +0.024 A  
DOCKED: ATOM     24  C   UNL     1     131.459  75.716 227.869 -0.27 +0.00    +0.045 A  
DOCKED: ATOM     25  C   UNL     1     131.990  77.004 227.776 -0.31 +0.00    +0.042 A  
DOCKED: ATOM     26  Cl  UNL     1     131.294  73.076 227.380 -0.47 +0.01    -0.080 Cl 
DOCKED: ATOM     27  Cl  UNL     1     131.130  78.361 228.481 -0.33 -0.02    -0.084 Cl 
DOCKED: ENDBRANCH  19  20
DOCKED: ENDBRANCH  18  19
DOCKED: ENDBRANCH  17  18
DOCKED: ENDBRANCH  16  17
DOCKED: ENDBRANCH   1  16
DOCKED: TORSDOF 10
DOCKED: TER
DOCKED: ENDMDL
________________________________________________________________________________


    FINAL DOCKED STATE:
    ________________________


Run:   4 / 20
Time taken for this run:   0.091s

DOCKED: MODEL        4
DOCKED: USER    Run = 4
DOCKED: USER
DOCKED: USER    Estimated Free Energy of Binding    =  -6.09 kcal/mol  [=(1)+(2)+(3)-(4)]
DOCKED: USER
DOCKED: USER    (1) Final Intermolecular Energy     =  -9.07 kcal/mol
DOCKED: USER        vdW + Hbond + desolv Energy     =  -9.22 kcal/mol
DOCKED: USER        Electrostatic Energy            =  +0.15 kcal/mol
DOCKED: USER        Moving Ligand-Fixed Receptor    =  -9.07 kcal/mol
DOCKED: USER        Moving Ligand-Moving Receptor   =  +0.00 kcal/mol
DOCKED: USER    (2) Final Total Internal Energy     =  -0.86 kcal/mol
DOCKED: USER    (3) Torsional Free Energy           =  +2.98 kcal/mol
DOCKED: USER    (4) Unbound System's Energy         =  -0.86 kcal/mol
DOCKED: USER
DOCKED: USER
DOCKED: REMARK SMILES O=C(CCCOc1ccc(Cl)cc1Cl)[N-]/N=C\c1cccc(C(F)(F)F)c1
DOCKED: REMARK SMILES IDX 2 1 1 2 15 3 16 4 17 5 18 6 19 7 27 8 20 9 22 10 21 11 23 12
DOCKED: REMARK SMILES IDX 24 13 25 14 26 15 3 16 4 17 5 18 6 19 7 20 8 21 13 22 9 23
DOCKED: REMARK SMILES IDX 12 24 10 25 14 26 11 27
DOCKED: REMARK H PARENT
DOCKED: USER                              x       y       z     vdW  Elec       q    Type
DOCKED: USER                           _______ _______ _______ _____ _____    ______ ____
DOCKED: ROOT
DOCKED: ATOM      1  C   UNL     1     138.060  73.763 221.683 -0.15 -0.02    +0.068 C  
DOCKED: ATOM      2  O   UNL     1     137.268  72.915 221.192 -0.04 +0.07    -0.319 OA 
DOCKED: ENDROOT
DOCKED: BRANCH   1   3
DOCKED: ATOM      3  N   UNL     1     139.464  73.517 221.686 -0.18 +0.10    -0.545 NA 
DOCKED: BRANCH   3   4
DOCKED: ATOM      4  N   UNL     1     140.111  73.007 222.821 -0.50 +0.03    -0.372 NA 
DOCKED: BRANCH   4   5
DOCKED: ATOM      5  C   UNL     1     140.352  71.741 222.984 -0.31 -0.01    +0.094 C  
DOCKED: BRANCH   5   6
DOCKED: ATOM      6  C   UNL     1     140.231  71.048 224.287 -0.44 +0.00    -0.009 A  
DOCKED: ATOM      7  C   UNL     1     139.626  69.784 224.398 -0.34 -0.00    +0.009 A  
DOCKED: ATOM      8  C   UNL     1     140.680  71.698 225.447 -0.50 -0.00    +0.022 A  
DOCKED: ATOM      9  C   UNL     1     139.504  69.171 225.647 -0.46 -0.00    +0.001 A  
DOCKED: ATOM     10  C   UNL     1     140.586  71.074 226.704 -0.61 -0.01    +0.056 A  
DOCKED: ATOM     11  C   UNL     1     139.977  69.810 226.795 -0.54 -0.00    +0.013 A  
DOCKED: BRANCH  10  12
DOCKED: ATOM     12  C   UNL     1     141.046  71.795 227.946 -0.41 -0.09    +0.416 C  
DOCKED: ATOM     13  F   UNL     1     141.802  70.951 228.743 -0.14 +0.03    -0.166 F  
DOCKED: ATOM     14  F   UNL     1     141.819  72.883 227.581 -0.31 +0.04    -0.166 F  
DOCKED: ATOM     15  F   UNL     1     139.966  72.239 228.689 -0.29 +0.06    -0.166 F  
DOCKED: ENDBRANCH  10  12
DOCKED: ENDBRANCH   5   6
DOCKED: ENDBRANCH   4   5
DOCKED: ENDBRANCH   3   4
DOCKED: ENDBRANCH   1   3
DOCKED: BRANCH   1  16
DOCKED: ATOM     16  C   UNL     1     137.524  75.018 222.298 -0.14 -0.02    +0.060 C  
DOCKED: BRANCH  16  17
DOCKED: ATOM     17  C   UNL     1     136.909  75.958 221.250 -0.10 -0.01    +0.048 C  
DOCKED: BRANCH  17  18
DOCKED: ATOM     18  C   UNL     1     137.588  77.338 221.198 -0.07 -0.05    +0.230 C  
DOCKED: BRANCH  18  19
DOCKED: ATOM     19  O   UNL     1     138.053  77.770 222.479 -0.08 +0.09    -0.492 OA 
DOCKED: BRANCH  19  20
DOCKED: ATOM     20  C   UNL     1     139.262  78.422 222.792 -0.26 -0.02    +0.137 A  
DOCKED: ATOM     21  C   UNL     1     139.143  79.664 223.433 -0.37 -0.01    +0.049 A  
DOCKED: ATOM     22  C   UNL     1     140.563  77.915 222.522 -0.38 -0.03    +0.084 A  
DOCKED: ATOM     23  C   UNL     1     140.270  80.423 223.748 -0.41 -0.00    +0.024 A  
DOCKED: ATOM     24  C   UNL     1     141.687  78.690 222.843 -0.50 -0.02    +0.045 A  
DOCKED: ATOM     25  C   UNL     1     141.543  79.943 223.443 -0.55 -0.01    +0.042 A  
DOCKED: ATOM     26  Cl  UNL     1     140.887  76.305 221.893 -0.43 +0.03    -0.080 Cl 
DOCKED: ATOM     27  Cl  UNL     1     142.961  80.896 223.839 -0.74 +0.02    -0.084 Cl 
DOCKED: ENDBRANCH  19  20
DOCKED: ENDBRANCH  18  19
DOCKED: ENDBRANCH  17  18
DOCKED: ENDBRANCH  16  17
DOCKED: ENDBRANCH   1  16
DOCKED: TORSDOF 10
DOCKED: TER
DOCKED: ENDMDL
________________________________________________________________________________


    FINAL DOCKED STATE:
    ________________________


Run:   5 / 20
Time taken for this run:   0.091s

DOCKED: MODEL        5
DOCKED: USER    Run = 5
DOCKED: USER
DOCKED: USER    Estimated Free Energy of Binding    =  -6.33 kcal/mol  [=(1)+(2)+(3)-(4)]
DOCKED: USER
DOCKED: USER    (1) Final Intermolecular Energy     =  -9.32 kcal/mol
DOCKED: USER        vdW + Hbond + desolv Energy     =  -9.45 kcal/mol
DOCKED: USER        Electrostatic Energy            =  +0.14 kcal/mol
DOCKED: USER        Moving Ligand-Fixed Receptor    =  -9.32 kcal/mol
DOCKED: USER        Moving Ligand-Moving Receptor   =  +0.00 kcal/mol
DOCKED: USER    (2) Final Total Internal Energy     =  -1.48 kcal/mol
DOCKED: USER    (3) Torsional Free Energy           =  +2.98 kcal/mol
DOCKED: USER    (4) Unbound System's Energy         =  -1.48 kcal/mol
DOCKED: USER
DOCKED: USER
DOCKED: REMARK SMILES O=C(CCCOc1ccc(Cl)cc1Cl)[N-]/N=C\c1cccc(C(F)(F)F)c1
DOCKED: REMARK SMILES IDX 2 1 1 2 15 3 16 4 17 5 18 6 19 7 27 8 20 9 22 10 21 11 23 12
DOCKED: REMARK SMILES IDX 24 13 25 14 26 15 3 16 4 17 5 18 6 19 7 20 8 21 13 22 9 23
DOCKED: REMARK SMILES IDX 12 24 10 25 14 26 11 27
DOCKED: REMARK H PARENT
DOCKED: USER                              x       y       z     vdW  Elec       q    Type
DOCKED: USER                           _______ _______ _______ _____ _____    ______ ____
DOCKED: ROOT
DOCKED: ATOM      1  C   UNL     1     140.133  74.769 221.586 -0.29 -0.01    +0.068 C  
DOCKED: ATOM      2  O   UNL     1     141.060  75.533 221.964 -0.45 +0.07    -0.319 OA 
DOCKED: ENDROOT
DOCKED: BRANCH   1   3
DOCKED: ATOM      3  N   UNL     1     139.761  73.644 222.380 -0.60 +0.06    -0.545 NA 
DOCKED: BRANCH   3   4
DOCKED: ATOM      4  N   UNL     1     140.696  72.659 222.728 -0.44 +0.01    -0.372 NA 
DOCKED: BRANCH   4   5
DOCKED: ATOM      5  C   UNL     1     140.368  71.418 222.933 -0.27 -0.01    +0.094 C  
DOCKED: BRANCH   5   6
DOCKED: ATOM      6  C   UNL     1     140.233  70.821 224.281 -0.42 +0.00    -0.009 A  
DOCKED: ATOM      7  C   UNL     1     139.620  69.572 224.477 -0.34 -0.00    +0.009 A  
DOCKED: ATOM      8  C   UNL     1     140.678  71.550 225.395 -0.55 -0.00    +0.022 A  
DOCKED: ATOM      9  C   UNL     1     139.485  69.050 225.766 -0.47 -0.00    +0.001 A  
DOCKED: ATOM     10  C   UNL     1     140.572  71.017 226.692 -0.60 -0.01    +0.056 A  
DOCKED: ATOM     11  C   UNL     1     139.954  69.766 226.869 -0.54 -0.00    +0.013 A  
DOCKED: BRANCH  10  12
DOCKED: ATOM     12  C   UNL     1     141.028  71.823 227.883 -0.41 -0.09    +0.416 C  
DOCKED: ATOM     13  F   UNL     1     139.937  72.260 228.617 -0.29 +0.06    -0.166 F  
DOCKED: ATOM     14  F   UNL     1     141.826  71.032 228.689 -0.15 +0.03    -0.166 F  
DOCKED: ATOM     15  F   UNL     1     141.752  72.933 227.481 -0.30 +0.04    -0.166 F  
DOCKED: ENDBRANCH  10  12
DOCKED: ENDBRANCH   5   6
DOCKED: ENDBRANCH   4   5
DOCKED: ENDBRANCH   3   4
DOCKED: ENDBRANCH   1   3
DOCKED: BRANCH   1  16
DOCKED: ATOM     16  C   UNL     1     139.441  75.020 220.283 -0.11 -0.01    +0.060 C  
DOCKED: BRANCH  16  17
DOCKED: ATOM     17  C   UNL     1     138.997  73.716 219.604 -0.05 -0.01    +0.048 C  
DOCKED: BRANCH  17  18
DOCKED: ATOM     18  C   UNL     1     140.128  73.022 218.822 -0.01 -0.05    +0.230 C  
DOCKED: BRANCH  18  19
DOCKED: ATOM     19  O   UNL     1     141.264  73.869 218.632 +0.02 +0.12    -0.492 OA 
DOCKED: BRANCH  19  20
DOCKED: ATOM     20  C   UNL     1     142.491  73.847 219.323 -0.12 -0.03    +0.137 A  
DOCKED: ATOM     21  C   UNL     1     142.950  72.584 219.722 -0.18 -0.01    +0.049 A  
DOCKED: ATOM     22  C   UNL     1     143.286  74.989 219.623 -0.31 -0.04    +0.084 A  
DOCKED: ATOM     23  C   UNL     1     144.130  72.443 220.454 -0.36 -0.00    +0.024 A  
DOCKED: ATOM     24  C   UNL     1     144.468  74.833 220.362 -0.38 -0.02    +0.045 A  
DOCKED: ATOM     25  C   UNL     1     144.883  73.569 220.785 -0.53 -0.01    +0.042 A  
DOCKED: ATOM     26  Cl  UNL     1     142.945  76.612 219.040 -0.45 +0.05    -0.080 Cl 
DOCKED: ATOM     27  Cl  UNL     1     146.366  73.394 221.706 -0.85 +0.01    -0.084 Cl 
DOCKED: ENDBRANCH  19  20
DOCKED: ENDBRANCH  18  19
DOCKED: ENDBRANCH  17  18
DOCKED: ENDBRANCH  16  17
DOCKED: ENDBRANCH   1  16
DOCKED: TORSDOF 10
DOCKED: TER
DOCKED: ENDMDL
________________________________________________________________________________


    FINAL DOCKED STATE:
    ________________________


Run:   6 / 20
Time taken for this run:   0.091s

DOCKED: MODEL        6
DOCKED: USER    Run = 6
DOCKED: USER
DOCKED: USER    Estimated Free Energy of Binding    =  -6.27 kcal/mol  [=(1)+(2)+(3)-(4)]
DOCKED: USER
DOCKED: USER    (1) Final Intermolecular Energy     =  -9.25 kcal/mol
DOCKED: USER        vdW + Hbond + desolv Energy     =  -9.31 kcal/mol
DOCKED: USER        Electrostatic Energy            =  +0.06 kcal/mol
DOCKED: USER        Moving Ligand-Fixed Receptor    =  -9.25 kcal/mol
DOCKED: USER        Moving Ligand-Moving Receptor   =  +0.00 kcal/mol
DOCKED: USER    (2) Final Total Internal Energy     =  -1.00 kcal/mol
DOCKED: USER    (3) Torsional Free Energy           =  +2.98 kcal/mol
DOCKED: USER    (4) Unbound System's Energy         =  -1.00 kcal/mol
DOCKED: USER
DOCKED: USER
DOCKED: REMARK SMILES O=C(CCCOc1ccc(Cl)cc1Cl)[N-]/N=C\c1cccc(C(F)(F)F)c1
DOCKED: REMARK SMILES IDX 2 1 1 2 15 3 16 4 17 5 18 6 19 7 27 8 20 9 22 10 21 11 23 12
DOCKED: REMARK SMILES IDX 24 13 25 14 26 15 3 16 4 17 5 18 6 19 7 20 8 21 13 22 9 23
DOCKED: REMARK SMILES IDX 12 24 10 25 14 26 11 27
DOCKED: REMARK H PARENT
DOCKED: USER                              x       y       z     vdW  Elec       q    Type
DOCKED: USER                           _______ _______ _______ _____ _____    ______ ____
DOCKED: ROOT
DOCKED: ATOM      1  C   UNL     1     139.397  74.560 221.892 -0.25 -0.01    +0.068 C  
DOCKED: ATOM      2  O   UNL     1     139.584  75.490 222.721 -0.47 +0.04    -0.319 OA 
DOCKED: ENDROOT
DOCKED: BRANCH   1   3
DOCKED: ATOM      3  N   UNL     1     140.355  73.513 221.758 -0.39 +0.05    -0.545 NA 
DOCKED: BRANCH   3   4
DOCKED: ATOM      4  N   UNL     1     140.664  72.669 222.834 -0.40 +0.00    -0.372 NA 
DOCKED: BRANCH   4   5
DOCKED: ATOM      5  C   UNL     1     140.094  71.514 223.008 -0.31 -0.01    +0.094 C  
DOCKED: BRANCH   5   6
DOCKED: ATOM      6  C   UNL     1     140.058  70.810 224.310 -0.42 +0.00    -0.009 A  
DOCKED: ATOM      7  C   UNL     1     139.497  69.528 224.441 -0.34 -0.00    +0.009 A  
DOCKED: ATOM      8  C   UNL     1     140.545  71.466 225.451 -0.55 -0.00    +0.022 A  
DOCKED: ATOM      9  C   UNL     1     139.456  68.903 225.690 -0.47 -0.00    +0.001 A  
DOCKED: ATOM     10  C   UNL     1     140.533  70.831 226.706 -0.58 -0.01    +0.056 A  
DOCKED: ATOM     11  C   UNL     1     139.966  69.548 226.818 -0.54 -0.00    +0.013 A  
DOCKED: BRANCH  10  12
DOCKED: ATOM     12  C   UNL     1     141.033  71.558 227.929 -0.40 -0.09    +0.416 C  
DOCKED: ATOM     13  F   UNL     1     141.824  72.634 227.562 -0.35 +0.03    -0.166 F  
DOCKED: ATOM     14  F   UNL     1     139.953  72.019 228.659 -0.29 +0.05    -0.166 F  
DOCKED: ATOM     15  F   UNL     1     141.791  70.718 228.728 -0.12 +0.03    -0.166 F  
DOCKED: ENDBRANCH  10  12
DOCKED: ENDBRANCH   5   6
DOCKED: ENDBRANCH   4   5
DOCKED: ENDBRANCH   3   4
DOCKED: ENDBRANCH   1   3
DOCKED: BRANCH   1  16
DOCKED: ATOM     16  C   UNL     1     138.182  74.572 221.018 -0.13 -0.01    +0.060 C  
DOCKED: BRANCH  16  17
DOCKED: ATOM     17  C   UNL     1     137.990  75.922 220.312 -0.07 -0.01    +0.048 C  
DOCKED: BRANCH  17  18
DOCKED: ATOM     18  C   UNL     1     137.569  77.053 221.268 -0.08 -0.05    +0.230 C  
DOCKED: BRANCH  18  19
DOCKED: ATOM     19  O   UNL     1     138.278  78.270 221.024 +0.00 +0.10    -0.492 OA 
DOCKED: BRANCH  19  20
DOCKED: ATOM     20  C   UNL     1     139.440  78.745 221.664 -0.16 -0.03    +0.137 A  
DOCKED: ATOM     21  C   UNL     1     139.235  79.619 222.741 -0.29 -0.01    +0.049 A  
DOCKED: ATOM     22  C   UNL     1     140.773  78.396 221.311 -0.25 -0.03    +0.084 A  
DOCKED: ATOM     23  C   UNL     1     140.312  80.190 223.420 -0.44 -0.00    +0.024 A  
DOCKED: ATOM     24  C   UNL     1     141.845  78.980 222.001 -0.44 -0.02    +0.045 A  
DOCKED: ATOM     25  C   UNL     1     141.618  79.880 223.044 -0.53 -0.01    +0.042 A  
DOCKED: ATOM     26  Cl  UNL     1     141.193  77.181 220.111 -0.30 +0.04    -0.080 Cl 
DOCKED: ATOM     27  Cl  UNL     1     142.973  80.597 223.897 -0.74 +0.02    -0.084 Cl 
DOCKED: ENDBRANCH  19  20
DOCKED: ENDBRANCH  18  19
DOCKED: ENDBRANCH  17  18
DOCKED: ENDBRANCH  16  17
DOCKED: ENDBRANCH   1  16
DOCKED: TORSDOF 10
DOCKED: TER
DOCKED: ENDMDL
________________________________________________________________________________


    FINAL DOCKED STATE:
    ________________________


Run:   7 / 20
Time taken for this run:   0.091s

DOCKED: MODEL        7
DOCKED: USER    Run = 7
DOCKED: USER
DOCKED: USER    Estimated Free Energy of Binding    =  -6.10 kcal/mol  [=(1)+(2)+(3)-(4)]
DOCKED: USER
DOCKED: USER    (1) Final Intermolecular Energy     =  -9.09 kcal/mol
DOCKED: USER        vdW + Hbond + desolv Energy     =  -9.06 kcal/mol
DOCKED: USER        Electrostatic Energy            =  -0.03 kcal/mol
DOCKED: USER        Moving Ligand-Fixed Receptor    =  -9.09 kcal/mol
DOCKED: USER        Moving Ligand-Moving Receptor   =  +0.00 kcal/mol
DOCKED: USER    (2) Final Total Internal Energy     =  -1.27 kcal/mol
DOCKED: USER    (3) Torsional Free Energy           =  +2.98 kcal/mol
DOCKED: USER    (4) Unbound System's Energy         =  -1.27 kcal/mol
DOCKED: USER
DOCKED: USER
DOCKED: REMARK SMILES O=C(CCCOc1ccc(Cl)cc1Cl)[N-]/N=C\c1cccc(C(F)(F)F)c1
DOCKED: REMARK SMILES IDX 2 1 1 2 15 3 16 4 17 5 18 6 19 7 27 8 20 9 22 10 21 11 23 12
DOCKED: REMARK SMILES IDX 24 13 25 14 26 15 3 16 4 17 5 18 6 19 7 20 8 21 13 22 9 23
DOCKED: REMARK SMILES IDX 12 24 10 25 14 26 11 27
DOCKED: REMARK H PARENT
DOCKED: USER                              x       y       z     vdW  Elec       q    Type
DOCKED: USER                           _______ _______ _______ _____ _____    ______ ____
DOCKED: ROOT
DOCKED: ATOM      1  C   UNL     1     134.035  69.146 225.422 -0.25 -0.00    +0.068 C  
DOCKED: ATOM      2  O   UNL     1     134.018  68.580 226.548 -0.72 -0.01    -0.319 OA 
DOCKED: ENDROOT
DOCKED: BRANCH   1   3
DOCKED: ATOM      3  N   UNL     1     135.095  68.887 224.504 -0.39 +0.01    -0.545 NA 
DOCKED: BRANCH   3   4
DOCKED: ATOM      4  N   UNL     1     136.217  69.724 224.434 -0.09 +0.03    -0.372 NA 
DOCKED: BRANCH   4   5
DOCKED: ATOM      5  C   UNL     1     137.429  69.268 224.317 -0.24 -0.01    +0.094 C  
DOCKED: BRANCH   5   6
DOCKED: ATOM      6  C   UNL     1     138.593  69.857 225.018 -0.35 +0.00    -0.009 A  
DOCKED: ATOM      7  C   UNL     1     139.267  70.981 224.513 -0.39 -0.00    +0.009 A  
DOCKED: ATOM      8  C   UNL     1     139.068  69.239 226.185 -0.44 -0.00    +0.022 A  
DOCKED: ATOM      9  C   UNL     1     140.379  71.496 225.185 -0.53 -0.00    +0.001 A  
DOCKED: ATOM     10  C   UNL     1     140.168  69.768 226.883 -0.52 -0.01    +0.056 A  
DOCKED: ATOM     11  C   UNL     1     140.831  70.894 226.361 -0.62 -0.00    +0.013 A  
DOCKED: BRANCH  10  12
DOCKED: ATOM     12  C   UNL     1     140.686  69.078 228.120 -0.28 -0.09    +0.416 C  
DOCKED: ATOM     13  F   UNL     1     139.674  68.943 229.057 -0.17 +0.02    -0.166 F  
DOCKED: ATOM     14  F   UNL     1     141.155  67.823 227.779 -0.23 +0.05    -0.166 F  
DOCKED: ATOM     15  F   UNL     1     141.714  69.803 228.698 -0.12 +0.04    -0.166 F  
DOCKED: ENDBRANCH  10  12
DOCKED: ENDBRANCH   5   6
DOCKED: ENDBRANCH   4   5
DOCKED: ENDBRANCH   3   4
DOCKED: ENDBRANCH   1   3
DOCKED: BRANCH   1  16
DOCKED: ATOM     16  C   UNL     1     132.959  70.121 225.059 -0.15 -0.01    +0.060 C  
DOCKED: BRANCH  16  17
DOCKED: ATOM     17  C   UNL     1     132.445  70.896 226.281 -0.25 -0.00    +0.048 C  
DOCKED: BRANCH  17  18
DOCKED: ATOM     18  C   UNL     1     133.564  71.604 227.067 -0.32 -0.02    +0.230 C  
DOCKED: BRANCH  18  19
DOCKED: ATOM     19  O   UNL     1     133.585  73.015 226.842 -0.62 -0.03    -0.492 OA 
DOCKED: BRANCH  19  20
DOCKED: ATOM     20  C   UNL     1     134.284  73.728 225.848 -0.24 +0.01    +0.137 A  
DOCKED: ATOM     21  C   UNL     1     134.899  72.954 224.853 -0.22 -0.00    +0.049 A  
DOCKED: ATOM     22  C   UNL     1     134.394  75.145 225.777 -0.36 -0.00    +0.084 A  
DOCKED: ATOM     23  C   UNL     1     135.658  73.548 223.844 -0.20 -0.01    +0.024 A  
DOCKED: ATOM     24  C   UNL     1     135.162  75.728 224.759 -0.31 -0.01    +0.045 A  
DOCKED: ATOM     25  C   UNL     1     135.800  74.934 223.803 -0.26 -0.01    +0.042 A  
DOCKED: ATOM     26  Cl  UNL     1     133.538  76.258 226.835 -0.50 +0.00    -0.080 Cl 
DOCKED: ATOM     27  Cl  UNL     1     136.754  75.683 222.535 -0.28 +0.02    -0.084 Cl 
DOCKED: ENDBRANCH  19  20
DOCKED: ENDBRANCH  18  19
DOCKED: ENDBRANCH  17  18
DOCKED: ENDBRANCH  16  17
DOCKED: ENDBRANCH   1  16
DOCKED: TORSDOF 10
DOCKED: TER
DOCKED: ENDMDL
________________________________________________________________________________


    FINAL DOCKED STATE:
    ________________________


Run:   8 / 20
Time taken for this run:   0.091s

DOCKED: MODEL        8
DOCKED: USER    Run = 8
DOCKED: USER
DOCKED: USER    Estimated Free Energy of Binding    =  -6.66 kcal/mol  [=(1)+(2)+(3)-(4)]
DOCKED: USER
DOCKED: USER    (1) Final Intermolecular Energy     =  -9.64 kcal/mol
DOCKED: USER        vdW + Hbond + desolv Energy     =  -9.77 kcal/mol
DOCKED: USER        Electrostatic Energy            =  +0.14 kcal/mol
DOCKED: USER        Moving Ligand-Fixed Receptor    =  -9.64 kcal/mol
DOCKED: USER        Moving Ligand-Moving Receptor   =  +0.00 kcal/mol
DOCKED: USER    (2) Final Total Internal Energy     =  -0.73 kcal/mol
DOCKED: USER    (3) Torsional Free Energy           =  +2.98 kcal/mol
DOCKED: USER    (4) Unbound System's Energy         =  -0.73 kcal/mol
DOCKED: USER
DOCKED: USER
DOCKED: REMARK SMILES O=C(CCCOc1ccc(Cl)cc1Cl)[N-]/N=C\c1cccc(C(F)(F)F)c1
DOCKED: REMARK SMILES IDX 2 1 1 2 15 3 16 4 17 5 18 6 19 7 27 8 20 9 22 10 21 11 23 12
DOCKED: REMARK SMILES IDX 24 13 25 14 26 15 3 16 4 17 5 18 6 19 7 20 8 21 13 22 9 23
DOCKED: REMARK SMILES IDX 12 24 10 25 14 26 11 27
DOCKED: REMARK H PARENT
DOCKED: USER                              x       y       z     vdW  Elec       q    Type
DOCKED: USER                           _______ _______ _______ _____ _____    ______ ____
DOCKED: ROOT
DOCKED: ATOM      1  C   UNL     1     139.679  73.495 221.741 -0.24 -0.01    +0.068 C  
DOCKED: ATOM      2  O   UNL     1     140.699  73.957 222.317 -0.71 -0.03    -0.319 OA 
DOCKED: ENDROOT
DOCKED: BRANCH   1   3
DOCKED: ATOM      3  N   UNL     1     139.244  72.164 222.009 -0.05 +0.11    -0.545 NA 
DOCKED: BRANCH   3   4
DOCKED: ATOM      4  N   UNL     1     139.116  71.691 223.323 -0.12 +0.10    -0.372 NA 
DOCKED: BRANCH   4   5
DOCKED: ATOM      5  C   UNL     1     139.413  70.473 223.665 -0.29 -0.02    +0.094 C  
DOCKED: BRANCH   5   6
DOCKED: ATOM      6  C   UNL     1     139.868  70.095 225.022 -0.42 +0.00    -0.009 A  
DOCKED: ATOM      7  C   UNL     1     139.914  68.753 225.438 -0.45 -0.00    +0.009 A  
DOCKED: ATOM      8  C   UNL     1     140.207  71.107 225.933 -0.54 -0.00    +0.022 A  
DOCKED: ATOM      9  C   UNL     1     140.323  68.433 226.735 -0.64 -0.00    +0.001 A  
DOCKED: ATOM     10  C   UNL     1     140.648  70.791 227.230 -0.62 -0.01    +0.056 A  
DOCKED: ATOM     11  C   UNL     1     140.686  69.443 227.629 -0.61 -0.00    +0.013 A  
DOCKED: BRANCH  10  12
DOCKED: ATOM     12  C   UNL     1     140.982  71.890 228.208 -0.33 -0.10    +0.416 C  
DOCKED: ATOM     13  F   UNL     1     141.952  71.464 229.100 -0.16 +0.04    -0.166 F  
DOCKED: ATOM     14  F   UNL     1     141.458  72.987 227.514 -0.31 +0.05    -0.166 F  
DOCKED: ATOM     15  F   UNL     1     139.863  72.264 228.932 -0.24 +0.06    -0.166 F  
DOCKED: ENDBRANCH  10  12
DOCKED: ENDBRANCH   5   6
DOCKED: ENDBRANCH   4   5
DOCKED: ENDBRANCH   3   4
DOCKED: ENDBRANCH   1   3
DOCKED: BRANCH   1  16
DOCKED: ATOM     16  C   UNL     1     138.939  74.331 220.744 -0.13 -0.01    +0.060 C  
DOCKED: BRANCH  16  17
DOCKED: ATOM     17  C   UNL     1     137.801  75.132 221.394 -0.16 -0.01    +0.048 C  
DOCKED: BRANCH  17  18
DOCKED: ATOM     18  C   UNL     1     138.023  76.655 221.344 -0.11 -0.05    +0.230 C  
DOCKED: BRANCH  18  19
DOCKED: ATOM     19  O   UNL     1     138.384  77.199 222.615 -0.12 +0.09    -0.492 OA 
DOCKED: BRANCH  19  20
DOCKED: ATOM     20  C   UNL     1     139.389  78.143 222.905 -0.22 -0.02    +0.137 A  
DOCKED: ATOM     21  C   UNL     1     140.708  77.729 222.670 -0.42 -0.02    +0.049 A  
DOCKED: ATOM     22  C   UNL     1     139.163  79.460 223.394 -0.34 -0.01    +0.084 A  
DOCKED: ATOM     23  C   UNL     1     141.789  78.561 222.965 -0.50 -0.01    +0.024 A  
DOCKED: ATOM     24  C   UNL     1     140.259  80.284 223.688 -0.41 -0.01    +0.045 A  
DOCKED: ATOM     25  C   UNL     1     141.566  79.835 223.486 -0.55 -0.01    +0.042 A  
DOCKED: ATOM     26  Cl  UNL     1     137.574  80.191 223.569 -0.35 +0.01    -0.080 Cl 
DOCKED: ATOM     27  Cl  UNL     1     142.923  80.883 223.857 -0.75 +0.02    -0.084 Cl 
DOCKED: ENDBRANCH  19  20
DOCKED: ENDBRANCH  18  19
DOCKED: ENDBRANCH  17  18
DOCKED: ENDBRANCH  16  17
DOCKED: ENDBRANCH   1  16
DOCKED: TORSDOF 10
DOCKED: TER
DOCKED: ENDMDL
________________________________________________________________________________


    FINAL DOCKED STATE:
    ________________________


Run:   9 / 20
Time taken for this run:   0.091s

DOCKED: MODEL        9
DOCKED: USER    Run = 9
DOCKED: USER
DOCKED: USER    Estimated Free Energy of Binding    =  -6.13 kcal/mol  [=(1)+(2)+(3)-(4)]
DOCKED: USER
DOCKED: USER    (1) Final Intermolecular Energy     =  -9.12 kcal/mol
DOCKED: USER        vdW + Hbond + desolv Energy     =  -9.20 kcal/mol
DOCKED: USER        Electrostatic Energy            =  +0.08 kcal/mol
DOCKED: USER        Moving Ligand-Fixed Receptor    =  -9.12 kcal/mol
DOCKED: USER        Moving Ligand-Moving Receptor   =  +0.00 kcal/mol
DOCKED: USER    (2) Final Total Internal Energy     =  -1.37 kcal/mol
DOCKED: USER    (3) Torsional Free Energy           =  +2.98 kcal/mol
DOCKED: USER    (4) Unbound System's Energy         =  -1.37 kcal/mol
DOCKED: USER
DOCKED: USER
DOCKED: REMARK SMILES O=C(CCCOc1ccc(Cl)cc1Cl)[N-]/N=C\c1cccc(C(F)(F)F)c1
DOCKED: REMARK SMILES IDX 2 1 1 2 15 3 16 4 17 5 18 6 19 7 27 8 20 9 22 10 21 11 23 12
DOCKED: REMARK SMILES IDX 24 13 25 14 26 15 3 16 4 17 5 18 6 19 7 20 8 21 13 22 9 23
DOCKED: REMARK SMILES IDX 12 24 10 25 14 26 11 27
DOCKED: REMARK H PARENT
DOCKED: USER                              x       y       z     vdW  Elec       q    Type
DOCKED: USER                           _______ _______ _______ _____ _____    ______ ____
DOCKED: ROOT
DOCKED: ATOM      1  C   UNL     1     140.065  73.745 222.016 -0.18 -0.01    +0.068 C  
DOCKED: ATOM      2  O   UNL     1     140.642  74.863 221.948 -0.66 +0.03    -0.319 OA 
DOCKED: ENDROOT
DOCKED: BRANCH   1   3
DOCKED: ATOM      3  N   UNL     1     140.699  72.648 222.669 -0.34 +0.01    -0.545 NA 
DOCKED: BRANCH   3   4
DOCKED: ATOM      4  N   UNL     1     140.235  71.336 222.502 -0.12 +0.05    -0.372 NA 
DOCKED: BRANCH   4   5
DOCKED: ATOM      5  C   UNL     1     139.386  70.780 223.314 -0.27 -0.02    +0.094 C  
DOCKED: BRANCH   5   6
DOCKED: ATOM      6  C   UNL     1     139.744  70.304 224.669 -0.41 +0.00    -0.009 A  
DOCKED: ATOM      7  C   UNL     1     139.634  68.950 225.029 -0.39 -0.00    +0.009 A  
DOCKED: ATOM      8  C   UNL     1     140.149  71.239 225.634 -0.51 -0.00    +0.022 A  
DOCKED: ATOM      9  C   UNL     1     139.955  68.538 226.324 -0.58 -0.00    +0.001 A  
DOCKED: ATOM     10  C   UNL     1     140.502  70.827 226.932 -0.59 -0.01    +0.056 A  
DOCKED: ATOM     11  C   UNL     1     140.384  69.468 227.273 -0.59 -0.00    +0.013 A  
DOCKED: BRANCH  10  12
DOCKED: ATOM     12  C   UNL     1     140.908  71.846 227.967 -0.41 -0.10    +0.416 C  
DOCKED: ATOM     13  F   UNL     1     141.860  71.313 228.822 -0.16 +0.03    -0.166 F  
DOCKED: ATOM     14  F   UNL     1     141.442  72.952 227.332 -0.32 +0.04    -0.166 F  
DOCKED: ATOM     15  F   UNL     1     139.819  72.242 228.725 -0.28 +0.06    -0.166 F  
DOCKED: ENDBRANCH  10  12
DOCKED: ENDBRANCH   5   6
DOCKED: ENDBRANCH   4   5
DOCKED: ENDBRANCH   3   4
DOCKED: ENDBRANCH   1   3
DOCKED: BRANCH   1  16
DOCKED: ATOM     16  C   UNL     1     138.724  73.557 221.379 -0.17 -0.01    +0.060 C  
DOCKED: BRANCH  16  17
DOCKED: ATOM     17  C   UNL     1     138.799  73.611 219.846 -0.06 -0.01    +0.048 C  
DOCKED: BRANCH  17  18
DOCKED: ATOM     18  C   UNL     1     139.965  72.790 219.266 -0.02 -0.04    +0.230 C  
DOCKED: BRANCH  18  19
DOCKED: ATOM     19  O   UNL     1     141.086  73.603 218.913 +0.02 +0.11    -0.492 OA 
DOCKED: BRANCH  19  20
DOCKED: ATOM     20  C   UNL     1     142.358  73.643 219.519 -0.13 -0.03    +0.137 A  
DOCKED: ATOM     21  C   UNL     1     142.882  72.410 219.933 -0.19 -0.01    +0.049 A  
DOCKED: ATOM     22  C   UNL     1     143.135  74.818 219.721 -0.29 -0.03    +0.084 A  
DOCKED: ATOM     23  C   UNL     1     144.111  72.332 220.587 -0.35 -0.00    +0.024 A  
DOCKED: ATOM     24  C   UNL     1     144.369  74.724 220.382 -0.40 -0.02    +0.045 A  
DOCKED: ATOM     25  C   UNL     1     144.851  73.490 220.823 -0.52 -0.01    +0.042 A  
DOCKED: ATOM     26  Cl  UNL     1     142.707  76.407 219.102 -0.42 +0.05    -0.080 Cl 
DOCKED: ATOM     27  Cl  UNL     1     146.397  73.394 221.646 -0.86 +0.01    -0.084 Cl 
DOCKED: ENDBRANCH  19  20
DOCKED: ENDBRANCH  18  19
DOCKED: ENDBRANCH  17  18
DOCKED: ENDBRANCH  16  17
DOCKED: ENDBRANCH   1  16
DOCKED: TORSDOF 10
DOCKED: TER
DOCKED: ENDMDL
________________________________________________________________________________


    FINAL DOCKED STATE:
    ________________________


Run:   10 / 20
Time taken for this run:   0.091s

DOCKED: MODEL        10
DOCKED: USER    Run = 10
DOCKED: USER
DOCKED: USER    Estimated Free Energy of Binding    =  -6.12 kcal/mol  [=(1)+(2)+(3)-(4)]
DOCKED: USER
DOCKED: USER    (1) Final Intermolecular Energy     =  -9.10 kcal/mol
DOCKED: USER        vdW + Hbond + desolv Energy     =  -9.24 kcal/mol
DOCKED: USER        Electrostatic Energy            =  +0.13 kcal/mol
DOCKED: USER        Moving Ligand-Fixed Receptor    =  -9.10 kcal/mol
DOCKED: USER        Moving Ligand-Moving Receptor   =  +0.00 kcal/mol
DOCKED: USER    (2) Final Total Internal Energy     =  -0.88 kcal/mol
DOCKED: USER    (3) Torsional Free Energy           =  +2.98 kcal/mol
DOCKED: USER    (4) Unbound System's Energy         =  -0.88 kcal/mol
DOCKED: USER
DOCKED: USER
DOCKED: REMARK SMILES O=C(CCCOc1ccc(Cl)cc1Cl)[N-]/N=C\c1cccc(C(F)(F)F)c1
DOCKED: REMARK SMILES IDX 2 1 1 2 15 3 16 4 17 5 18 6 19 7 27 8 20 9 22 10 21 11 23 12
DOCKED: REMARK SMILES IDX 24 13 25 14 26 15 3 16 4 17 5 18 6 19 7 20 8 21 13 22 9 23
DOCKED: REMARK SMILES IDX 12 24 10 25 14 26 11 27
DOCKED: REMARK H PARENT
DOCKED: USER                              x       y       z     vdW  Elec       q    Type
DOCKED: USER                           _______ _______ _______ _____ _____    ______ ____
DOCKED: ROOT
DOCKED: ATOM      1  C   UNL     1     141.481  74.039 221.194 -0.24 -0.01    +0.068 C  
DOCKED: ATOM      2  O   UNL     1     142.698  74.008 220.871 -0.19 +0.08    -0.319 OA 
DOCKED: ENDROOT
DOCKED: BRANCH   1   3
DOCKED: ATOM      3  N   UNL     1     140.805  72.839 221.563 -0.11 +0.06    -0.545 NA 
DOCKED: BRANCH   3   4
DOCKED: ATOM      4  N   UNL     1     140.176  72.712 222.809 -0.46 +0.04    -0.372 NA 
DOCKED: BRANCH   4   5
DOCKED: ATOM      5  C   UNL     1     139.525  71.644 223.164 -0.28 -0.02    +0.094 C  
DOCKED: BRANCH   5   6
DOCKED: ATOM      6  C   UNL     1     139.836  70.867 224.385 -0.43 +0.00    -0.009 A  
DOCKED: ATOM      7  C   UNL     1     139.638  69.477 224.446 -0.32 -0.00    +0.009 A  
DOCKED: ATOM      8  C   UNL     1     140.286  71.547 225.528 -0.49 -0.00    +0.022 A  
DOCKED: ATOM      9  C   UNL     1     139.917  68.778 225.622 -0.48 -0.00    +0.001 A  
DOCKED: ATOM     10  C   UNL     1     140.596  70.845 226.707 -0.59 -0.01    +0.056 A  
DOCKED: ATOM     11  C   UNL     1     140.390  69.455 226.749 -0.55 -0.00    +0.013 A  
DOCKED: BRANCH  10  12
DOCKED: ATOM     12  C   UNL     1     141.051  71.591 227.936 -0.40 -0.09    +0.416 C  
DOCKED: ATOM     13  F   UNL     1     139.960  72.062 228.647 -0.29 +0.05    -0.166 F  
DOCKED: ATOM     14  F   UNL     1     141.780  70.737 228.743 -0.12 +0.03    -0.166 F  
DOCKED: ATOM     15  F   UNL     1     141.844  72.673 227.592 -0.34 +0.03    -0.166 F  
DOCKED: ENDBRANCH  10  12
DOCKED: ENDBRANCH   5   6
DOCKED: ENDBRANCH   4   5
DOCKED: ENDBRANCH   3   4
DOCKED: ENDBRANCH   1   3
DOCKED: BRANCH   1  16
DOCKED: ATOM     16  C   UNL     1     140.731  75.334 221.158 -0.29 -0.02    +0.060 C  
DOCKED: BRANCH  16  17
DOCKED: ATOM     17  C   UNL     1     139.215  75.120 221.029 -0.19 -0.01    +0.048 C  
DOCKED: BRANCH  17  18
DOCKED: ATOM     18  C   UNL     1     138.390  76.351 221.449 -0.14 -0.05    +0.230 C  
DOCKED: BRANCH  18  19
DOCKED: ATOM     19  O   UNL     1     138.982  77.580 221.021 -0.00 +0.12    -0.492 OA 
DOCKED: BRANCH  19  20
DOCKED: ATOM     20  C   UNL     1     139.986  78.332 221.662 -0.20 -0.04    +0.137 A  
DOCKED: ATOM     21  C   UNL     1     139.722  78.709 222.986 -0.34 -0.01    +0.049 A  
DOCKED: ATOM     22  C   UNL     1     141.226  78.713 221.077 -0.28 -0.04    +0.084 A  
DOCKED: ATOM     23  C   UNL     1     140.623  79.496 223.705 -0.49 -0.00    +0.024 A  
DOCKED: ATOM     24  C   UNL     1     142.121  79.506 221.811 -0.43 -0.02    +0.045 A  
DOCKED: ATOM     25  C   UNL     1     141.818  79.905 223.114 -0.56 -0.01    +0.042 A  
DOCKED: ATOM     26  Cl  UNL     1     141.785  78.171 219.501 -0.34 +0.05    -0.080 Cl 
DOCKED: ATOM     27  Cl  UNL     1     142.951  80.894 224.016 -0.69 +0.01    -0.084 Cl 
DOCKED: ENDBRANCH  19  20
DOCKED: ENDBRANCH  18  19
DOCKED: ENDBRANCH  17  18
DOCKED: ENDBRANCH  16  17
DOCKED: ENDBRANCH   1  16
DOCKED: TORSDOF 10
DOCKED: TER
DOCKED: ENDMDL
________________________________________________________________________________


    FINAL DOCKED STATE:
    ________________________


Run:   11 / 20
Time taken for this run:   0.091s

DOCKED: MODEL        11
DOCKED: USER    Run = 11
DOCKED: USER
DOCKED: USER    Estimated Free Energy of Binding    =  -6.68 kcal/mol  [=(1)+(2)+(3)-(4)]
DOCKED: USER
DOCKED: USER    (1) Final Intermolecular Energy     =  -9.66 kcal/mol
DOCKED: USER        vdW + Hbond + desolv Energy     =  -9.69 kcal/mol
DOCKED: USER        Electrostatic Energy            =  +0.03 kcal/mol
DOCKED: USER        Moving Ligand-Fixed Receptor    =  -9.66 kcal/mol
DOCKED: USER        Moving Ligand-Moving Receptor   =  +0.00 kcal/mol
DOCKED: USER    (2) Final Total Internal Energy     =  -0.85 kcal/mol
DOCKED: USER    (3) Torsional Free Energy           =  +2.98 kcal/mol
DOCKED: USER    (4) Unbound System's Energy         =  -0.85 kcal/mol
DOCKED: USER
DOCKED: USER
DOCKED: REMARK SMILES O=C(CCCOc1ccc(Cl)cc1Cl)[N-]/N=C\c1cccc(C(F)(F)F)c1
DOCKED: REMARK SMILES IDX 2 1 1 2 15 3 16 4 17 5 18 6 19 7 27 8 20 9 22 10 21 11 23 12
DOCKED: REMARK SMILES IDX 24 13 25 14 26 15 3 16 4 17 5 18 6 19 7 20 8 21 13 22 9 23
DOCKED: REMARK SMILES IDX 12 24 10 25 14 26 11 27
DOCKED: REMARK H PARENT
DOCKED: USER                              x       y       z     vdW  Elec       q    Type
DOCKED: USER                           _______ _______ _______ _____ _____    ______ ____
DOCKED: ROOT
DOCKED: ATOM      1  C   UNL     1     140.922  73.730 220.659 -0.20 -0.01    +0.068 C  
DOCKED: ATOM      2  O   UNL     1     140.246  73.332 219.672 -0.02 +0.06    -0.319 OA 
DOCKED: ENDROOT
DOCKED: BRANCH   1   3
DOCKED: ATOM      3  N   UNL     1     140.367  73.689 221.971 -0.62 +0.04    -0.545 NA 
DOCKED: BRANCH   3   4
DOCKED: ATOM      4  N   UNL     1     140.688  72.657 222.865 -0.38 +0.00    -0.372 NA 
DOCKED: BRANCH   4   5
DOCKED: ATOM      5  C   UNL     1     139.893  71.655 223.099 -0.31 -0.02    +0.094 C  
DOCKED: BRANCH   5   6
DOCKED: ATOM      6  C   UNL     1     139.905  70.882 224.361 -0.43 +0.00    -0.009 A  
DOCKED: ATOM      7  C   UNL     1     139.361  69.588 224.439 -0.34 -0.00    +0.009 A  
DOCKED: ATOM      8  C   UNL     1     140.422  71.480 225.520 -0.54 -0.00    +0.022 A  
DOCKED: ATOM      9  C   UNL     1     139.365  68.896 225.652 -0.47 -0.00    +0.001 A  
DOCKED: ATOM     10  C   UNL     1     140.455  70.777 226.739 -0.57 -0.01    +0.056 A  
DOCKED: ATOM     11  C   UNL     1     139.905  69.485 226.797 -0.54 -0.00    +0.013 A  
DOCKED: BRANCH  10  12
DOCKED: ATOM     12  C   UNL     1     140.987  71.442 227.983 -0.38 -0.09    +0.416 C  
DOCKED: ATOM     13  F   UNL     1     141.787  72.523 227.650 -0.34 +0.03    -0.166 F  
DOCKED: ATOM     14  F   UNL     1     139.926  71.887 228.751 -0.28 +0.05    -0.166 F  
DOCKED: ATOM     15  F   UNL     1     141.746  70.558 228.731 -0.11 +0.03    -0.166 F  
DOCKED: ENDBRANCH  10  12
DOCKED: ENDBRANCH   5   6
DOCKED: ENDBRANCH   4   5
DOCKED: ENDBRANCH   3   4
DOCKED: ENDBRANCH   1   3
DOCKED: BRANCH   1  16
DOCKED: ATOM     16  C   UNL     1     142.298  74.279 220.450 -0.26 -0.02    +0.060 C  
DOCKED: BRANCH  16  17
DOCKED: ATOM     17  C   UNL     1     142.272  75.749 220.004 -0.29 -0.02    +0.048 C  
DOCKED: BRANCH  17  18
DOCKED: ATOM     18  C   UNL     1     140.901  76.195 219.462 -0.08 -0.08    +0.230 C  
DOCKED: BRANCH  18  19
DOCKED: ATOM     19  O   UNL     1     140.340  77.275 220.211 -0.00 +0.17    -0.492 OA 
DOCKED: BRANCH  19  20
DOCKED: ATOM     20  C   UNL     1     141.000  78.167 221.081 -0.23 -0.06    +0.137 A  
DOCKED: ATOM     21  C   UNL     1     141.026  77.800 222.434 -0.43 -0.02    +0.049 A  
DOCKED: ATOM     22  C   UNL     1     141.638  79.376 220.688 -0.28 -0.04    +0.084 A  
DOCKED: ATOM     23  C   UNL     1     141.608  78.628 223.394 -0.58 -0.01    +0.024 A  
DOCKED: ATOM     24  C   UNL     1     142.217  80.200 221.665 -0.43 -0.02    +0.045 A  
DOCKED: ATOM     25  C   UNL     1     142.194  79.834 223.012 -0.58 -0.01    +0.042 A  
DOCKED: ATOM     26  Cl  UNL     1     141.851  79.886 219.019 -0.37 +0.05    -0.080 Cl 
DOCKED: ATOM     27  Cl  UNL     1     142.928  80.876 224.218 -0.62 +0.01    -0.084 Cl 
DOCKED: ENDBRANCH  19  20
DOCKED: ENDBRANCH  18  19
DOCKED: ENDBRANCH  17  18
DOCKED: ENDBRANCH  16  17
DOCKED: ENDBRANCH   1  16
DOCKED: TORSDOF 10
DOCKED: TER
DOCKED: ENDMDL
________________________________________________________________________________


    FINAL DOCKED STATE:
    ________________________


Run:   12 / 20
Time taken for this run:   0.091s

DOCKED: MODEL        12
DOCKED: USER    Run = 12
DOCKED: USER
DOCKED: USER    Estimated Free Energy of Binding    =  -6.06 kcal/mol  [=(1)+(2)+(3)-(4)]
DOCKED: USER
DOCKED: USER    (1) Final Intermolecular Energy     =  -9.04 kcal/mol
DOCKED: USER        vdW + Hbond + desolv Energy     =  -9.36 kcal/mol
DOCKED: USER        Electrostatic Energy            =  +0.32 kcal/mol
DOCKED: USER        Moving Ligand-Fixed Receptor    =  -9.04 kcal/mol
DOCKED: USER        Moving Ligand-Moving Receptor   =  +0.00 kcal/mol
DOCKED: USER    (2) Final Total Internal Energy     =  -0.74 kcal/mol
DOCKED: USER    (3) Torsional Free Energy           =  +2.98 kcal/mol
DOCKED: USER    (4) Unbound System's Energy         =  -0.74 kcal/mol
DOCKED: USER
DOCKED: USER
DOCKED: REMARK SMILES O=C(CCCOc1ccc(Cl)cc1Cl)[N-]/N=C\c1cccc(C(F)(F)F)c1
DOCKED: REMARK SMILES IDX 2 1 1 2 15 3 16 4 17 5 18 6 19 7 27 8 20 9 22 10 21 11 23 12
DOCKED: REMARK SMILES IDX 24 13 25 14 26 15 3 16 4 17 5 18 6 19 7 20 8 21 13 22 9 23
DOCKED: REMARK SMILES IDX 12 24 10 25 14 26 11 27
DOCKED: REMARK H PARENT
DOCKED: USER                              x       y       z     vdW  Elec       q    Type
DOCKED: USER                           _______ _______ _______ _____ _____    ______ ____
DOCKED: ROOT
DOCKED: ATOM      1  C   UNL     1     142.251  74.019 220.631 -0.25 -0.02    +0.068 C  
DOCKED: ATOM      2  O   UNL     1     143.510  74.050 220.671 -0.23 +0.10    -0.319 OA 
DOCKED: ENDROOT
DOCKED: BRANCH   1   3
DOCKED: ATOM      3  N   UNL     1     141.496  75.207 220.858 -0.06 +0.18    -0.545 NA 
DOCKED: BRANCH   3   4
DOCKED: ATOM      4  N   UNL     1     140.719  75.366 222.015 -0.44 +0.06    -0.372 NA 
DOCKED: BRANCH   4   5
DOCKED: ATOM      5  C   UNL     1     139.697  76.166 222.072 -0.31 -0.02    +0.094 C  
DOCKED: BRANCH   5   6
DOCKED: ATOM      6  C   UNL     1     139.776  77.556 222.577 -0.33 +0.00    -0.009 A  
DOCKED: ATOM      7  C   UNL     1     138.633  78.251 223.008 -0.27 -0.00    +0.009 A  
DOCKED: ATOM      8  C   UNL     1     141.016  78.212 222.571 -0.46 -0.01    +0.022 A  
DOCKED: ATOM      9  C   UNL     1     138.739  79.570 223.454 -0.36 -0.00    +0.001 A  
DOCKED: ATOM     10  C   UNL     1     141.135  79.531 223.046 -0.47 -0.01    +0.056 A  
DOCKED: ATOM     11  C   UNL     1     139.980  80.210 223.471 -0.44 -0.00    +0.013 A  
DOCKED: BRANCH  10  12
DOCKED: ATOM     12  C   UNL     1     142.469  80.234 223.007 -0.32 -0.12    +0.416 C  
DOCKED: ATOM     13  F   UNL     1     142.471  81.211 222.025 -0.16 +0.04    -0.166 F  
DOCKED: ATOM     14  F   UNL     1     142.707  80.827 224.233 -0.23 +0.03    -0.166 F  
DOCKED: ATOM     15  F   UNL     1     143.491  79.341 222.731 -0.17 +0.10    -0.166 F  
DOCKED: ENDBRANCH  10  12
DOCKED: ENDBRANCH   5   6
DOCKED: ENDBRANCH   4   5
DOCKED: ENDBRANCH   3   4
DOCKED: ENDBRANCH   1   3
DOCKED: BRANCH   1  16
DOCKED: ATOM     16  C   UNL     1     141.542  72.725 220.380 -0.17 -0.01    +0.060 C  
DOCKED: BRANCH  16  17
DOCKED: ATOM     17  C   UNL     1     141.433  71.870 221.652 -0.20 -0.00    +0.048 C  
DOCKED: BRANCH  17  18
DOCKED: ATOM     18  C   UNL     1     140.028  71.894 222.282 -0.21 -0.04    +0.230 C  
DOCKED: BRANCH  18  19
DOCKED: ATOM     19  O   UNL     1     140.060  72.177 223.682 -0.23 +0.09    -0.492 OA 
DOCKED: BRANCH  19  20
DOCKED: ATOM     20  C   UNL     1     140.124  71.264 224.753 -0.39 -0.02    +0.137 A  
DOCKED: ATOM     21  C   UNL     1     140.895  71.661 225.855 -0.56 -0.01    +0.049 A  
DOCKED: ATOM     22  C   UNL     1     139.464  70.004 224.800 -0.34 -0.01    +0.084 A  
DOCKED: ATOM     23  C   UNL     1     141.070  70.819 226.954 -0.63 -0.00    +0.024 A  
DOCKED: ATOM     24  C   UNL     1     139.651  69.167 225.910 -0.45 -0.01    +0.045 A  
DOCKED: ATOM     25  C   UNL     1     140.458  69.567 226.977 -0.54 -0.01    +0.042 A  
DOCKED: ATOM     26  Cl  UNL     1     138.321  69.440 223.588 -0.34 +0.01    -0.080 Cl 
DOCKED: ATOM     27  Cl  UNL     1     140.677  68.507 228.358 -0.81 +0.02    -0.084 Cl 
DOCKED: ENDBRANCH  19  20
DOCKED: ENDBRANCH  18  19
DOCKED: ENDBRANCH  17  18
DOCKED: ENDBRANCH  16  17
DOCKED: ENDBRANCH   1  16
DOCKED: TORSDOF 10
DOCKED: TER
DOCKED: ENDMDL
________________________________________________________________________________


    FINAL DOCKED STATE:
    ________________________


Run:   13 / 20
Time taken for this run:   0.091s

DOCKED: MODEL        13
DOCKED: USER    Run = 13
DOCKED: USER
DOCKED: USER    Estimated Free Energy of Binding    =  -5.66 kcal/mol  [=(1)+(2)+(3)-(4)]
DOCKED: USER
DOCKED: USER    (1) Final Intermolecular Energy     =  -8.64 kcal/mol
DOCKED: USER        vdW + Hbond + desolv Energy     =  -8.67 kcal/mol
DOCKED: USER        Electrostatic Energy            =  +0.03 kcal/mol
DOCKED: USER        Moving Ligand-Fixed Receptor    =  -8.64 kcal/mol
DOCKED: USER        Moving Ligand-Moving Receptor   =  +0.00 kcal/mol
DOCKED: USER    (2) Final Total Internal Energy     =  -1.58 kcal/mol
DOCKED: USER    (3) Torsional Free Energy           =  +2.98 kcal/mol
DOCKED: USER    (4) Unbound System's Energy         =  -1.58 kcal/mol
DOCKED: USER
DOCKED: USER
DOCKED: REMARK SMILES O=C(CCCOc1ccc(Cl)cc1Cl)[N-]/N=C\c1cccc(C(F)(F)F)c1
DOCKED: REMARK SMILES IDX 2 1 1 2 15 3 16 4 17 5 18 6 19 7 27 8 20 9 22 10 21 11 23 12
DOCKED: REMARK SMILES IDX 24 13 25 14 26 15 3 16 4 17 5 18 6 19 7 20 8 21 13 22 9 23
DOCKED: REMARK SMILES IDX 12 24 10 25 14 26 11 27
DOCKED: REMARK H PARENT
DOCKED: USER                              x       y       z     vdW  Elec       q    Type
DOCKED: USER                           _______ _______ _______ _____ _____    ______ ____
DOCKED: ROOT
DOCKED: ATOM      1  C   UNL     1     140.067  72.702 222.221 -0.28 -0.01    +0.068 C  
DOCKED: ATOM      2  O   UNL     1     140.315  71.941 223.194 -0.31 +0.04    -0.319 OA 
DOCKED: ENDROOT
DOCKED: BRANCH   1   3
DOCKED: ATOM      3  N   UNL     1     140.780  73.927 222.068 -0.51 -0.01    -0.545 NA 
DOCKED: BRANCH   3   4
DOCKED: ATOM      4  N   UNL     1     140.110  75.157 222.012 -0.55 +0.05    -0.372 NA 
DOCKED: BRANCH   4   5
DOCKED: ATOM      5  C   UNL     1     140.700  76.265 221.674 -0.33 -0.03    +0.094 C  
DOCKED: BRANCH   5   6
DOCKED: ATOM      6  C   UNL     1     140.423  77.567 222.322 -0.41 +0.00    -0.009 A  
DOCKED: ATOM      7  C   UNL     1     139.133  77.915 222.759 -0.30 -0.00    +0.009 A  
DOCKED: ATOM      8  C   UNL     1     141.464  78.500 222.448 -0.46 -0.01    +0.022 A  
DOCKED: ATOM      9  C   UNL     1     138.900  79.163 223.342 -0.34 -0.00    +0.001 A  
DOCKED: ATOM     10  C   UNL     1     141.243  79.747 223.061 -0.48 -0.01    +0.056 A  
DOCKED: ATOM     11  C   UNL     1     139.946  80.076 223.491 -0.44 -0.00    +0.013 A  
DOCKED: BRANCH  10  12
DOCKED: ATOM     12  C   UNL     1     142.365  80.750 223.165 -0.30 -0.09    +0.416 C  
DOCKED: ATOM     13  F   UNL     1     143.591  80.120 223.028 -0.25 +0.06    -0.166 F  
DOCKED: ATOM     14  F   UNL     1     142.227  81.692 222.162 -0.14 +0.03    -0.166 F  
DOCKED: ATOM     15  F   UNL     1     142.343  81.390 224.392 -0.22 +0.02    -0.166 F  
DOCKED: ENDBRANCH  10  12
DOCKED: ENDBRANCH   5   6
DOCKED: ENDBRANCH   4   5
DOCKED: ENDBRANCH   3   4
DOCKED: ENDBRANCH   1   3
DOCKED: BRANCH   1  16
DOCKED: ATOM     16  C   UNL     1     138.995  72.339 221.242 -0.13 -0.01    +0.060 C  
DOCKED: BRANCH  16  17
DOCKED: ATOM     17  C   UNL     1     139.523  72.285 219.801 -0.06 -0.01    +0.048 C  
DOCKED: BRANCH  17  18
DOCKED: ATOM     18  C   UNL     1     139.944  73.662 219.255 -0.02 -0.05    +0.230 C  
DOCKED: BRANCH  18  19
DOCKED: ATOM     19  O   UNL     1     141.261  73.652 218.700 +0.02 +0.11    -0.492 OA 
DOCKED: BRANCH  19  20
DOCKED: ATOM     20  C   UNL     1     142.494  73.680 219.381 -0.12 -0.03    +0.137 A  
DOCKED: ATOM     21  C   UNL     1     142.989  72.440 219.809 -0.19 -0.01    +0.049 A  
DOCKED: ATOM     22  C   UNL     1     143.260  74.850 219.645 -0.30 -0.03    +0.084 A  
DOCKED: ATOM     23  C   UNL     1     144.177  72.349 220.535 -0.36 -0.00    +0.024 A  
DOCKED: ATOM     24  C   UNL     1     144.451  74.743 220.379 -0.40 -0.02    +0.045 A  
DOCKED: ATOM     25  C   UNL     1     144.903  73.502 220.831 -0.53 -0.01    +0.042 A  
DOCKED: ATOM     26  Cl  UNL     1     142.873  76.448 219.024 -0.43 +0.05    -0.080 Cl 
DOCKED: ATOM     27  Cl  UNL     1     146.397  73.390 221.744 -0.84 +0.01    -0.084 Cl 
DOCKED: ENDBRANCH  19  20
DOCKED: ENDBRANCH  18  19
DOCKED: ENDBRANCH  17  18
DOCKED: ENDBRANCH  16  17
DOCKED: ENDBRANCH   1  16
DOCKED: TORSDOF 10
DOCKED: TER
DOCKED: ENDMDL
________________________________________________________________________________


    FINAL DOCKED STATE:
    ________________________


Run:   14 / 20
Time taken for this run:   0.091s

DOCKED: MODEL        14
DOCKED: USER    Run = 14
DOCKED: USER
DOCKED: USER    Estimated Free Energy of Binding    =  -6.74 kcal/mol  [=(1)+(2)+(3)-(4)]
DOCKED: USER
DOCKED: USER    (1) Final Intermolecular Energy     =  -9.72 kcal/mol
DOCKED: USER        vdW + Hbond + desolv Energy     =  -9.97 kcal/mol
DOCKED: USER        Electrostatic Energy            =  +0.25 kcal/mol
DOCKED: USER        Moving Ligand-Fixed Receptor    =  -9.72 kcal/mol
DOCKED: USER        Moving Ligand-Moving Receptor   =  +0.00 kcal/mol
DOCKED: USER    (2) Final Total Internal Energy     =  -0.84 kcal/mol
DOCKED: USER    (3) Torsional Free Energy           =  +2.98 kcal/mol
DOCKED: USER    (4) Unbound System's Energy         =  -0.84 kcal/mol
DOCKED: USER
DOCKED: USER
DOCKED: REMARK SMILES O=C(CCCOc1ccc(Cl)cc1Cl)[N-]/N=C\c1cccc(C(F)(F)F)c1
DOCKED: REMARK SMILES IDX 2 1 1 2 15 3 16 4 17 5 18 6 19 7 27 8 20 9 22 10 21 11 23 12
DOCKED: REMARK SMILES IDX 24 13 25 14 26 15 3 16 4 17 5 18 6 19 7 20 8 21 13 22 9 23
DOCKED: REMARK SMILES IDX 12 24 10 25 14 26 11 27
DOCKED: REMARK H PARENT
DOCKED: USER                              x       y       z     vdW  Elec       q    Type
DOCKED: USER                           _______ _______ _______ _____ _____    ______ ____
DOCKED: ROOT
DOCKED: ATOM      1  C   UNL     1     140.073  74.164 221.898 -0.20 -0.01    +0.068 C  
DOCKED: ATOM      2  O   UNL     1     139.262  75.018 222.346 -0.56 +0.06    -0.319 OA 
DOCKED: ENDROOT
DOCKED: BRANCH   1   3
DOCKED: ATOM      3  N   UNL     1     140.426  73.029 222.685 -0.44 +0.00    -0.545 NA 
DOCKED: BRANCH   3   4
DOCKED: ATOM      4  N   UNL     1     139.522  71.977 222.891 -0.17 +0.08    -0.372 NA 
DOCKED: BRANCH   4   5
DOCKED: ATOM      5  C   UNL     1     139.901  70.776 223.213 -0.26 -0.02    +0.094 C  
DOCKED: BRANCH   5   6
DOCKED: ATOM      6  C   UNL     1     139.998  70.299 224.611 -0.41 +0.00    -0.009 A  
DOCKED: ATOM      7  C   UNL     1     139.655  68.983 224.967 -0.38 -0.00    +0.009 A  
DOCKED: ATOM      8  C   UNL     1     140.387  71.201 225.613 -0.55 -0.00    +0.022 A  
DOCKED: ATOM      9  C   UNL     1     139.732  68.573 226.300 -0.57 -0.00    +0.001 A  
DOCKED: ATOM     10  C   UNL     1     140.495  70.787 226.952 -0.59 -0.01    +0.056 A  
DOCKED: ATOM     11  C   UNL     1     140.146  69.467 227.290 -0.58 -0.00    +0.013 A  
DOCKED: BRANCH  10  12
DOCKED: ATOM     12  C   UNL     1     140.887  71.775 228.023 -0.39 -0.10    +0.416 C  
DOCKED: ATOM     13  F   UNL     1     141.807  71.208 228.889 -0.14 +0.03    -0.166 F  
DOCKED: ATOM     14  F   UNL     1     141.453  72.888 227.429 -0.32 +0.04    -0.166 F  
DOCKED: ATOM     15  F   UNL     1     139.783  72.168 228.761 -0.27 +0.05    -0.166 F  
DOCKED: ENDBRANCH  10  12
DOCKED: ENDBRANCH   5   6
DOCKED: ENDBRANCH   4   5
DOCKED: ENDBRANCH   3   4
DOCKED: ENDBRANCH   1   3
DOCKED: BRANCH   1  16
DOCKED: ATOM     16  C   UNL     1     140.696  74.358 220.551 -0.19 -0.01    +0.060 C  
DOCKED: BRANCH  16  17
DOCKED: ATOM     17  C   UNL     1     141.858  75.361 220.591 -0.27 -0.02    +0.048 C  
DOCKED: BRANCH  17  18
DOCKED: ATOM     18  C   UNL     1     141.419  76.811 220.316 -0.18 -0.11    +0.230 C  
DOCKED: BRANCH  18  19
DOCKED: ATOM     19  O   UNL     1     141.781  77.703 221.373 -0.07 +0.32    -0.492 OA 
DOCKED: BRANCH  19  20
DOCKED: ATOM     20  C   UNL     1     140.932  78.477 222.188 -0.33 -0.05    +0.137 A  
DOCKED: ATOM     21  C   UNL     1     139.594  78.061 222.253 -0.29 -0.01    +0.049 A  
DOCKED: ATOM     22  C   UNL     1     141.331  79.614 222.944 -0.46 -0.02    +0.084 A  
DOCKED: ATOM     23  C   UNL     1     138.651  78.777 222.991 -0.29 -0.00    +0.024 A  
DOCKED: ATOM     24  C   UNL     1     140.371  80.326 223.680 -0.41 -0.01    +0.045 A  
DOCKED: ATOM     25  C   UNL     1     139.036  79.917 223.695 -0.39 -0.01    +0.042 A  
DOCKED: ATOM     26  Cl  UNL     1     142.995  80.155 223.115 -0.78 +0.03    -0.080 Cl 
DOCKED: ATOM     27  Cl  UNL     1     137.852  80.819 224.624 -0.45 +0.01    -0.084 Cl 
DOCKED: ENDBRANCH  19  20
DOCKED: ENDBRANCH  18  19
DOCKED: ENDBRANCH  17  18
DOCKED: ENDBRANCH  16  17
DOCKED: ENDBRANCH   1  16
DOCKED: TORSDOF 10
DOCKED: TER
DOCKED: ENDMDL
________________________________________________________________________________


    FINAL DOCKED STATE:
    ________________________


Run:   15 / 20
Time taken for this run:   0.091s

DOCKED: MODEL        15
DOCKED: USER    Run = 15
DOCKED: USER
DOCKED: USER    Estimated Free Energy of Binding    =  -6.51 kcal/mol  [=(1)+(2)+(3)-(4)]
DOCKED: USER
DOCKED: USER    (1) Final Intermolecular Energy     =  -9.49 kcal/mol
DOCKED: USER        vdW + Hbond + desolv Energy     =  -9.64 kcal/mol
DOCKED: USER        Electrostatic Energy            =  +0.15 kcal/mol
DOCKED: USER        Moving Ligand-Fixed Receptor    =  -9.49 kcal/mol
DOCKED: USER        Moving Ligand-Moving Receptor   =  +0.00 kcal/mol
DOCKED: USER    (2) Final Total Internal Energy     =  -0.70 kcal/mol
DOCKED: USER    (3) Torsional Free Energy           =  +2.98 kcal/mol
DOCKED: USER    (4) Unbound System's Energy         =  -0.70 kcal/mol
DOCKED: USER
DOCKED: USER
DOCKED: REMARK SMILES O=C(CCCOc1ccc(Cl)cc1Cl)[N-]/N=C\c1cccc(C(F)(F)F)c1
DOCKED: REMARK SMILES IDX 2 1 1 2 15 3 16 4 17 5 18 6 19 7 27 8 20 9 22 10 21 11 23 12
DOCKED: REMARK SMILES IDX 24 13 25 14 26 15 3 16 4 17 5 18 6 19 7 20 8 21 13 22 9 23
DOCKED: REMARK SMILES IDX 12 24 10 25 14 26 11 27
DOCKED: REMARK H PARENT
DOCKED: USER                              x       y       z     vdW  Elec       q    Type
DOCKED: USER                           _______ _______ _______ _____ _____    ______ ____
DOCKED: ROOT
DOCKED: ATOM      1  C   UNL     1     139.243  73.124 221.812 -0.21 -0.01    +0.068 C  
DOCKED: ATOM      2  O   UNL     1     139.954  73.713 222.669 -0.72 -0.00    -0.319 OA 
DOCKED: ENDROOT
DOCKED: BRANCH   1   3
DOCKED: ATOM      3  N   UNL     1     138.983  71.727 221.933 -0.02 +0.11    -0.545 NA 
DOCKED: BRANCH   3   4
DOCKED: ATOM      4  N   UNL     1     138.786  71.129 223.186 -0.10 +0.08    -0.372 NA 
DOCKED: BRANCH   4   5
DOCKED: ATOM      5  C   UNL     1     139.446  70.080 223.577 -0.25 -0.02    +0.094 C  
DOCKED: BRANCH   5   6
DOCKED: ATOM      6  C   UNL     1     139.802  69.819 224.990 -0.40 +0.00    -0.009 A  
DOCKED: ATOM      7  C   UNL     1     139.745  68.527 225.539 -0.48 -0.00    +0.009 A  
DOCKED: ATOM      8  C   UNL     1     140.148  70.900 225.815 -0.53 -0.00    +0.022 A  
DOCKED: ATOM      9  C   UNL     1     140.062  68.320 226.884 -0.65 -0.00    +0.001 A  
DOCKED: ATOM     10  C   UNL     1     140.496  70.696 227.162 -0.59 -0.01    +0.056 A  
DOCKED: ATOM     11  C   UNL     1     140.433  69.395 227.694 -0.61 -0.00    +0.013 A  
DOCKED: BRANCH  10  12
DOCKED: ATOM     12  C   UNL     1     140.839  71.870 228.044 -0.39 -0.10    +0.416 C  
DOCKED: ATOM     13  F   UNL     1     141.821  71.518 228.957 -0.21 +0.04    -0.166 F  
DOCKED: ATOM     14  F   UNL     1     141.305  72.908 227.259 -0.31 +0.04    -0.166 F  
DOCKED: ATOM     15  F   UNL     1     139.728  72.300 228.749 -0.25 +0.06    -0.166 F  
DOCKED: ENDBRANCH  10  12
DOCKED: ENDBRANCH   5   6
DOCKED: ENDBRANCH   4   5
DOCKED: ENDBRANCH   3   4
DOCKED: ENDBRANCH   1   3
DOCKED: BRANCH   1  16
DOCKED: ATOM     16  C   UNL     1     138.697  73.883 220.643 -0.11 -0.01    +0.060 C  
DOCKED: BRANCH  16  17
DOCKED: ATOM     17  C   UNL     1     139.141  75.353 220.651 -0.14 -0.01    +0.048 C  
DOCKED: BRANCH  17  18
DOCKED: ATOM     18  C   UNL     1     138.065  76.309 221.198 -0.10 -0.05    +0.230 C  
DOCKED: BRANCH  18  19
DOCKED: ATOM     19  O   UNL     1     138.403  76.838 222.482 -0.13 +0.10    -0.492 OA 
DOCKED: BRANCH  19  20
DOCKED: ATOM     20  C   UNL     1     139.319  77.864 222.788 -0.22 -0.02    +0.137 A  
DOCKED: ATOM     21  C   UNL     1     140.677  77.522 222.703 -0.40 -0.01    +0.049 A  
DOCKED: ATOM     22  C   UNL     1     138.972  79.194 223.153 -0.30 -0.01    +0.084 A  
DOCKED: ATOM     23  C   UNL     1     141.674  78.442 223.029 -0.49 -0.01    +0.024 A  
DOCKED: ATOM     24  C   UNL     1     139.985  80.107 223.481 -0.42 -0.01    +0.045 A  
DOCKED: ATOM     25  C   UNL     1     141.329  79.732 223.430 -0.53 -0.01    +0.042 A  
DOCKED: ATOM     26  Cl  UNL     1     137.333  79.830 223.130 -0.28 +0.01    -0.080 Cl 
DOCKED: ATOM     27  Cl  UNL     1     142.581  80.890 223.840 -0.80 +0.01    -0.084 Cl 
DOCKED: ENDBRANCH  19  20
DOCKED: ENDBRANCH  18  19
DOCKED: ENDBRANCH  17  18
DOCKED: ENDBRANCH  16  17
DOCKED: ENDBRANCH   1  16
DOCKED: TORSDOF 10
DOCKED: TER
DOCKED: ENDMDL
________________________________________________________________________________


    FINAL DOCKED STATE:
    ________________________


Run:   16 / 20
Time taken for this run:   0.091s

DOCKED: MODEL        16
DOCKED: USER    Run = 16
DOCKED: USER
DOCKED: USER    Estimated Free Energy of Binding    =  -5.86 kcal/mol  [=(1)+(2)+(3)-(4)]
DOCKED: USER
DOCKED: USER    (1) Final Intermolecular Energy     =  -8.84 kcal/mol
DOCKED: USER        vdW + Hbond + desolv Energy     =  -8.94 kcal/mol
DOCKED: USER        Electrostatic Energy            =  +0.09 kcal/mol
DOCKED: USER        Moving Ligand-Fixed Receptor    =  -8.84 kcal/mol
DOCKED: USER        Moving Ligand-Moving Receptor   =  +0.00 kcal/mol
DOCKED: USER    (2) Final Total Internal Energy     =  -1.51 kcal/mol
DOCKED: USER    (3) Torsional Free Energy           =  +2.98 kcal/mol
DOCKED: USER    (4) Unbound System's Energy         =  -1.51 kcal/mol
DOCKED: USER
DOCKED: USER
DOCKED: REMARK SMILES O=C(CCCOc1ccc(Cl)cc1Cl)[N-]/N=C\c1cccc(C(F)(F)F)c1
DOCKED: REMARK SMILES IDX 2 1 1 2 15 3 16 4 17 5 18 6 19 7 27 8 20 9 22 10 21 11 23 12
DOCKED: REMARK SMILES IDX 24 13 25 14 26 15 3 16 4 17 5 18 6 19 7 20 8 21 13 22 9 23
DOCKED: REMARK SMILES IDX 12 24 10 25 14 26 11 27
DOCKED: REMARK H PARENT
DOCKED: USER                              x       y       z     vdW  Elec       q    Type
DOCKED: USER                           _______ _______ _______ _____ _____    ______ ____
DOCKED: ROOT
DOCKED: ATOM      1  C   UNL     1     139.860  75.015 221.956 -0.25 -0.01    +0.068 C  
DOCKED: ATOM      2  O   UNL     1     140.980  75.550 222.174 -0.43 +0.06    -0.319 OA 
DOCKED: ENDROOT
DOCKED: BRANCH   1   3
DOCKED: ATOM      3  N   UNL     1     139.625  73.661 222.333 -0.60 +0.08    -0.545 NA 
DOCKED: BRANCH   3   4
DOCKED: ATOM      4  N   UNL     1     140.675  72.829 222.748 -0.43 -0.00    -0.372 NA 
DOCKED: BRANCH   4   5
DOCKED: ATOM      5  C   UNL     1     140.526  71.553 222.944 -0.27 -0.01    +0.094 C  
DOCKED: BRANCH   5   6
DOCKED: ATOM      6  C   UNL     1     140.228  70.960 224.267 -0.43 +0.00    -0.009 A  
DOCKED: ATOM      7  C   UNL     1     139.413  69.822 224.400 -0.35 -0.00    +0.009 A  
DOCKED: ATOM      8  C   UNL     1     140.724  71.586 225.421 -0.54 -0.00    +0.022 A  
DOCKED: ATOM      9  C   UNL     1     139.130  69.304 225.666 -0.44 -0.00    +0.001 A  
DOCKED: ATOM     10  C   UNL     1     140.467  71.053 226.697 -0.59 -0.01    +0.056 A  
DOCKED: ATOM     11  C   UNL     1     139.649  69.915 226.810 -0.49 -0.00    +0.013 A  
DOCKED: BRANCH  10  12
DOCKED: ATOM     12  C   UNL     1     140.983  71.752 227.930 -0.41 -0.09    +0.416 C  
DOCKED: ATOM     13  F   UNL     1     141.819  72.800 227.577 -0.32 +0.04    -0.166 F  
DOCKED: ATOM     14  F   UNL     1     139.915  72.251 228.652 -0.29 +0.06    -0.166 F  
DOCKED: ATOM     15  F   UNL     1     141.700  70.879 228.730 -0.15 +0.03    -0.166 F  
DOCKED: ENDBRANCH  10  12
DOCKED: ENDBRANCH   5   6
DOCKED: ENDBRANCH   4   5
DOCKED: ENDBRANCH   3   4
DOCKED: ENDBRANCH   1   3
DOCKED: BRANCH   1  16
DOCKED: ATOM     16  C   UNL     1     138.782  75.793 221.267 -0.19 -0.01    +0.060 C  
DOCKED: BRANCH  16  17
DOCKED: ATOM     17  C   UNL     1     138.740  75.511 219.758 -0.05 -0.01    +0.048 C  
DOCKED: BRANCH  17  18
DOCKED: ATOM     18  C   UNL     1     139.974  76.042 219.006 -0.03 -0.07    +0.230 C  
DOCKED: BRANCH  18  19
DOCKED: ATOM     19  O   UNL     1     140.863  74.998 218.604 +0.02 +0.14    -0.492 OA 
DOCKED: BRANCH  19  20
DOCKED: ATOM     20  C   UNL     1     142.028  74.548 219.256 -0.12 -0.04    +0.137 A  
DOCKED: ATOM     21  C   UNL     1     143.008  75.519 219.507 -0.32 -0.02    +0.049 A  
DOCKED: ATOM     22  C   UNL     1     142.267  73.211 219.681 -0.14 -0.02    +0.084 A  
DOCKED: ATOM     23  C   UNL     1     144.223  75.180 220.104 -0.37 -0.01    +0.024 A  
DOCKED: ATOM     24  C   UNL     1     143.494  72.885 220.277 -0.29 -0.01    +0.045 A  
DOCKED: ATOM     25  C   UNL     1     144.472  73.861 220.479 -0.47 -0.01    +0.042 A  
DOCKED: ATOM     26  Cl  UNL     1     141.075  71.921 219.606 -0.11 +0.01    -0.080 Cl 
DOCKED: ATOM     27  Cl  UNL     1     145.999  73.433 221.230 -0.89 +0.01    -0.084 Cl 
DOCKED: ENDBRANCH  19  20
DOCKED: ENDBRANCH  18  19
DOCKED: ENDBRANCH  17  18
DOCKED: ENDBRANCH  16  17
DOCKED: ENDBRANCH   1  16
DOCKED: TORSDOF 10
DOCKED: TER
DOCKED: ENDMDL
________________________________________________________________________________


    FINAL DOCKED STATE:
    ________________________


Run:   17 / 20
Time taken for this run:   0.091s

DOCKED: MODEL        17
DOCKED: USER    Run = 17
DOCKED: USER
DOCKED: USER    Estimated Free Energy of Binding    =  -6.48 kcal/mol  [=(1)+(2)+(3)-(4)]
DOCKED: USER
DOCKED: USER    (1) Final Intermolecular Energy     =  -9.46 kcal/mol
DOCKED: USER        vdW + Hbond + desolv Energy     =  -9.54 kcal/mol
DOCKED: USER        Electrostatic Energy            =  +0.08 kcal/mol
DOCKED: USER        Moving Ligand-Fixed Receptor    =  -9.46 kcal/mol
DOCKED: USER        Moving Ligand-Moving Receptor   =  +0.00 kcal/mol
DOCKED: USER    (2) Final Total Internal Energy     =  -0.75 kcal/mol
DOCKED: USER    (3) Torsional Free Energy           =  +2.98 kcal/mol
DOCKED: USER    (4) Unbound System's Energy         =  -0.75 kcal/mol
DOCKED: USER
DOCKED: USER
DOCKED: REMARK SMILES O=C(CCCOc1ccc(Cl)cc1Cl)[N-]/N=C\c1cccc(C(F)(F)F)c1
DOCKED: REMARK SMILES IDX 2 1 1 2 15 3 16 4 17 5 18 6 19 7 27 8 20 9 22 10 21 11 23 12
DOCKED: REMARK SMILES IDX 24 13 25 14 26 15 3 16 4 17 5 18 6 19 7 20 8 21 13 22 9 23
DOCKED: REMARK SMILES IDX 12 24 10 25 14 26 11 27
DOCKED: REMARK H PARENT
DOCKED: USER                              x       y       z     vdW  Elec       q    Type
DOCKED: USER                           _______ _______ _______ _____ _____    ______ ____
DOCKED: ROOT
DOCKED: ATOM      1  C   UNL     1     140.531  75.199 221.699 -0.29 -0.01    +0.068 C  
DOCKED: ATOM      2  O   UNL     1     141.639  74.985 221.138 -0.24 +0.10    -0.319 OA 
DOCKED: ENDROOT
DOCKED: BRANCH   1   3
DOCKED: ATOM      3  N   UNL     1     139.795  74.120 222.270 -0.63 +0.05    -0.545 NA 
DOCKED: BRANCH   3   4
DOCKED: ATOM      4  N   UNL     1     140.445  72.997 222.800 -0.46 -0.00    -0.372 NA 
DOCKED: BRANCH   4   5
DOCKED: ATOM      5  C   UNL     1     139.847  71.857 222.979 -0.30 -0.02    +0.094 C  
DOCKED: BRANCH   5   6
DOCKED: ATOM      6  C   UNL     1     139.978  71.051 224.214 -0.43 +0.00    -0.009 A  
DOCKED: ATOM      7  C   UNL     1     139.589  69.701 224.259 -0.33 -0.00    +0.009 A  
DOCKED: ATOM      8  C   UNL     1     140.449  71.669 225.382 -0.45 -0.00    +0.022 A  
DOCKED: ATOM      9  C   UNL     1     139.702  68.976 225.448 -0.45 -0.00    +0.001 A  
DOCKED: ATOM     10  C   UNL     1     140.593  70.938 226.575 -0.59 -0.01    +0.056 A  
DOCKED: ATOM     11  C   UNL     1     140.197  69.588 226.602 -0.53 -0.00    +0.013 A  
DOCKED: BRANCH  10  12
DOCKED: ATOM     12  C   UNL     1     141.073  71.621 227.831 -0.40 -0.09    +0.416 C  
DOCKED: ATOM     13  F   UNL     1     140.005  72.165 228.525 -0.29 +0.05    -0.166 F  
DOCKED: ATOM     14  F   UNL     1     141.711  70.696 228.637 -0.12 +0.03    -0.166 F  
DOCKED: ATOM     15  F   UNL     1     141.958  72.643 227.530 -0.32 +0.03    -0.166 F  
DOCKED: ENDBRANCH  10  12
DOCKED: ENDBRANCH   5   6
DOCKED: ENDBRANCH   4   5
DOCKED: ENDBRANCH   3   4
DOCKED: ENDBRANCH   1   3
DOCKED: BRANCH   1  16
DOCKED: ATOM     16  C   UNL     1     139.968  76.586 221.737 -0.31 -0.02    +0.060 C  
DOCKED: BRANCH  16  17
DOCKED: ATOM     17  C   UNL     1     141.058  77.647 221.944 -0.38 -0.02    +0.048 C  
DOCKED: BRANCH  17  18
DOCKED: ATOM     18  C   UNL     1     141.455  77.830 223.421 -0.10 -0.08    +0.230 C  
DOCKED: BRANCH  18  19
DOCKED: ATOM     19  O   UNL     1     141.444  79.200 223.827 -0.21 +0.12    -0.492 OA 
DOCKED: BRANCH  19  20
DOCKED: ATOM     20  C   UNL     1     141.042  80.326 223.081 -0.40 -0.03    +0.137 A  
DOCKED: ATOM     21  C   UNL     1     142.029  80.919 222.281 -0.48 -0.01    +0.049 A  
DOCKED: ATOM     22  C   UNL     1     139.732  80.880 223.073 -0.32 -0.01    +0.084 A  
DOCKED: ATOM     23  C   UNL     1     141.760  82.067 221.536 -0.31 -0.00    +0.024 A  
DOCKED: ATOM     24  C   UNL     1     139.476  82.037 222.321 -0.18 -0.01    +0.045 A  
DOCKED: ATOM     25  C   UNL     1     140.486  82.634 221.564 -0.29 -0.01    +0.042 A  
DOCKED: ATOM     26  Cl  UNL     1     138.345  80.155 223.873 -0.44 +0.01    -0.080 Cl 
DOCKED: ATOM     27  Cl  UNL     1     140.146  84.078 220.627 -0.28 +0.02    -0.084 Cl 
DOCKED: ENDBRANCH  19  20
DOCKED: ENDBRANCH  18  19
DOCKED: ENDBRANCH  17  18
DOCKED: ENDBRANCH  16  17
DOCKED: ENDBRANCH   1  16
DOCKED: TORSDOF 10
DOCKED: TER
DOCKED: ENDMDL
________________________________________________________________________________


    FINAL DOCKED STATE:
    ________________________


Run:   18 / 20
Time taken for this run:   0.091s

DOCKED: MODEL        18
DOCKED: USER    Run = 18
DOCKED: USER
DOCKED: USER    Estimated Free Energy of Binding    =  -5.74 kcal/mol  [=(1)+(2)+(3)-(4)]
DOCKED: USER
DOCKED: USER    (1) Final Intermolecular Energy     =  -8.73 kcal/mol
DOCKED: USER        vdW + Hbond + desolv Energy     =  -8.77 kcal/mol
DOCKED: USER        Electrostatic Energy            =  +0.05 kcal/mol
DOCKED: USER        Moving Ligand-Fixed Receptor    =  -8.73 kcal/mol
DOCKED: USER        Moving Ligand-Moving Receptor   =  +0.00 kcal/mol
DOCKED: USER    (2) Final Total Internal Energy     =  -1.56 kcal/mol
DOCKED: USER    (3) Torsional Free Energy           =  +2.98 kcal/mol
DOCKED: USER    (4) Unbound System's Energy         =  -1.56 kcal/mol
DOCKED: USER
DOCKED: USER
DOCKED: REMARK SMILES O=C(CCCOc1ccc(Cl)cc1Cl)[N-]/N=C\c1cccc(C(F)(F)F)c1
DOCKED: REMARK SMILES IDX 2 1 1 2 15 3 16 4 17 5 18 6 19 7 27 8 20 9 22 10 21 11 23 12
DOCKED: REMARK SMILES IDX 24 13 25 14 26 15 3 16 4 17 5 18 6 19 7 20 8 21 13 22 9 23
DOCKED: REMARK SMILES IDX 12 24 10 25 14 26 11 27
DOCKED: REMARK H PARENT
DOCKED: USER                              x       y       z     vdW  Elec       q    Type
DOCKED: USER                           _______ _______ _______ _____ _____    ______ ____
DOCKED: ROOT
DOCKED: ATOM      1  C   UNL     1     140.318  72.747 222.375 -0.27 -0.01    +0.068 C  
DOCKED: ATOM      2  O   UNL     1     140.722  72.266 223.468 -0.34 +0.01    -0.319 OA 
DOCKED: ENDROOT
DOCKED: BRANCH   1   3
DOCKED: ATOM      3  N   UNL     1     139.958  74.124 222.286 -0.65 +0.02    -0.545 NA 
DOCKED: BRANCH   3   4
DOCKED: ATOM      4  N   UNL     1     140.904  75.102 221.946 -0.47 +0.05    -0.372 NA 
DOCKED: BRANCH   4   5
DOCKED: ATOM      5  C   UNL     1     140.579  76.237 221.403 -0.30 -0.03    +0.094 C  
DOCKED: BRANCH   5   6
DOCKED: ATOM      6  C   UNL     1     140.341  77.475 222.180 -0.38 +0.00    -0.009 A  
DOCKED: ATOM      7  C   UNL     1     139.065  77.808 222.666 -0.31 -0.00    +0.009 A  
DOCKED: ATOM      8  C   UNL     1     141.407  78.364 222.385 -0.45 -0.01    +0.022 A  
DOCKED: ATOM      9  C   UNL     1     138.870  78.997 223.373 -0.32 -0.00    +0.001 A  
DOCKED: ATOM     10  C   UNL     1     141.224  79.549 223.121 -0.48 -0.01    +0.056 A  
DOCKED: ATOM     11  C   UNL     1     139.940  79.866 223.599 -0.44 -0.00    +0.013 A  
DOCKED: BRANCH  10  12
DOCKED: ATOM     12  C   UNL     1     142.371  80.510 223.310 -0.33 -0.10    +0.416 C  
DOCKED: ATOM     13  F   UNL     1     143.348  80.289 222.353 -0.20 +0.07    -0.166 F  
DOCKED: ATOM     14  F   UNL     1     141.905  81.806 223.187 -0.18 +0.02    -0.166 F  
DOCKED: ATOM     15  F   UNL     1     142.947  80.353 224.559 -0.16 +0.03    -0.166 F  
DOCKED: ENDBRANCH  10  12
DOCKED: ENDBRANCH   5   6
DOCKED: ENDBRANCH   4   5
DOCKED: ENDBRANCH   3   4
DOCKED: ENDBRANCH   1   3
DOCKED: BRANCH   1  16
DOCKED: ATOM     16  C   UNL     1     140.180  71.864 221.175 -0.17 -0.01    +0.060 C  
DOCKED: BRANCH  16  17
DOCKED: ATOM     17  C   UNL     1     139.643  72.627 219.955 -0.07 -0.01    +0.048 C  
DOCKED: BRANCH  17  18
DOCKED: ATOM     18  C   UNL     1     140.588  72.572 218.740 -0.01 -0.04    +0.230 C  
DOCKED: BRANCH  18  19
DOCKED: ATOM     19  O   UNL     1     141.566  73.615 218.758 +0.02 +0.11    -0.492 OA 
DOCKED: BRANCH  19  20
DOCKED: ATOM     20  C   UNL     1     142.787  73.651 219.460 -0.15 -0.03    +0.137 A  
DOCKED: ATOM     21  C   UNL     1     143.266  72.418 219.926 -0.22 -0.01    +0.049 A  
DOCKED: ATOM     22  C   UNL     1     143.556  74.822 219.710 -0.33 -0.04    +0.084 A  
DOCKED: ATOM     23  C   UNL     1     144.441  72.337 220.675 -0.38 -0.00    +0.024 A  
DOCKED: ATOM     24  C   UNL     1     144.734  74.725 220.467 -0.40 -0.02    +0.045 A  
DOCKED: ATOM     25  C   UNL     1     145.169  73.492 220.956 -0.56 -0.01    +0.042 A  
DOCKED: ATOM     26  Cl  UNL     1     143.191  76.407 219.044 -0.46 +0.05    -0.080 Cl 
DOCKED: ATOM     27  Cl  UNL     1     146.646  73.392 221.897 -0.77 +0.01    -0.084 Cl 
DOCKED: ENDBRANCH  19  20
DOCKED: ENDBRANCH  18  19
DOCKED: ENDBRANCH  17  18
DOCKED: ENDBRANCH  16  17
DOCKED: ENDBRANCH   1  16
DOCKED: TORSDOF 10
DOCKED: TER
DOCKED: ENDMDL
________________________________________________________________________________


    FINAL DOCKED STATE:
    ________________________


Run:   19 / 20
Time taken for this run:   0.091s

DOCKED: MODEL        19
DOCKED: USER    Run = 19
DOCKED: USER
DOCKED: USER    Estimated Free Energy of Binding    =  -6.24 kcal/mol  [=(1)+(2)+(3)-(4)]
DOCKED: USER
DOCKED: USER    (1) Final Intermolecular Energy     =  -9.22 kcal/mol
DOCKED: USER        vdW + Hbond + desolv Energy     =  -9.34 kcal/mol
DOCKED: USER        Electrostatic Energy            =  +0.12 kcal/mol
DOCKED: USER        Moving Ligand-Fixed Receptor    =  -9.22 kcal/mol
DOCKED: USER        Moving Ligand-Moving Receptor   =  +0.00 kcal/mol
DOCKED: USER    (2) Final Total Internal Energy     =  -1.20 kcal/mol
DOCKED: USER    (3) Torsional Free Energy           =  +2.98 kcal/mol
DOCKED: USER    (4) Unbound System's Energy         =  -1.20 kcal/mol
DOCKED: USER
DOCKED: USER
DOCKED: REMARK SMILES O=C(CCCOc1ccc(Cl)cc1Cl)[N-]/N=C\c1cccc(C(F)(F)F)c1
DOCKED: REMARK SMILES IDX 2 1 1 2 15 3 16 4 17 5 18 6 19 7 27 8 20 9 22 10 21 11 23 12
DOCKED: REMARK SMILES IDX 24 13 25 14 26 15 3 16 4 17 5 18 6 19 7 20 8 21 13 22 9 23
DOCKED: REMARK SMILES IDX 12 24 10 25 14 26 11 27
DOCKED: REMARK H PARENT
DOCKED: USER                              x       y       z     vdW  Elec       q    Type
DOCKED: USER                           _______ _______ _______ _____ _____    ______ ____
DOCKED: ROOT
DOCKED: ATOM      1  C   UNL     1     140.182  75.030 221.745 -0.27 -0.01    +0.068 C  
DOCKED: ATOM      2  O   UNL     1     141.384  75.350 221.945 -0.40 +0.08    -0.319 OA 
DOCKED: ENDROOT
DOCKED: BRANCH   1   3
DOCKED: ATOM      3  N   UNL     1     139.686  73.776 222.208 -0.58 +0.08    -0.545 NA 
DOCKED: BRANCH   3   4
DOCKED: ATOM      4  N   UNL     1     140.510  72.881 222.906 -0.37 -0.00    -0.372 NA 
DOCKED: BRANCH   4   5
DOCKED: ATOM      5  C   UNL     1     140.250  71.611 222.998 -0.31 -0.01    +0.094 C  
DOCKED: BRANCH   5   6
DOCKED: ATOM      6  C   UNL     1     140.167  70.886 224.286 -0.43 +0.00    -0.009 A  
DOCKED: ATOM      7  C   UNL     1     139.577  69.614 224.381 -0.34 -0.00    +0.009 A  
DOCKED: ATOM      8  C   UNL     1     140.637  71.513 225.450 -0.56 -0.00    +0.022 A  
DOCKED: ATOM      9  C   UNL     1     139.491  68.970 225.617 -0.47 -0.00    +0.001 A  
DOCKED: ATOM     10  C   UNL     1     140.580  70.858 226.694 -0.59 -0.01    +0.056 A  
DOCKED: ATOM     11  C   UNL     1     139.985  69.586 226.769 -0.54 -0.00    +0.013 A  
DOCKED: BRANCH  10  12
DOCKED: ATOM     12  C   UNL     1     141.063  71.554 227.941 -0.40 -0.09    +0.416 C  
DOCKED: ATOM     13  F   UNL     1     141.818  70.688 228.716 -0.12 +0.03    -0.166 F  
DOCKED: ATOM     14  F   UNL     1     141.845  72.637 227.584 -0.34 +0.03    -0.166 F  
DOCKED: ATOM     15  F   UNL     1     139.997  71.999 228.704 -0.29 +0.05    -0.166 F  
DOCKED: ENDBRANCH  10  12
DOCKED: ENDBRANCH   5   6
DOCKED: ENDBRANCH   4   5
DOCKED: ENDBRANCH   3   4
DOCKED: ENDBRANCH   1   3
DOCKED: BRANCH   1  16
DOCKED: ATOM     16  C   UNL     1     139.279  75.952 220.987 -0.18 -0.01    +0.060 C  
DOCKED: BRANCH  16  17
DOCKED: ATOM     17  C   UNL     1     138.966  75.426 219.578 -0.05 -0.01    +0.048 C  
DOCKED: BRANCH  17  18
DOCKED: ATOM     18  C   UNL     1     140.194  75.408 218.650 -0.02 -0.06    +0.230 C  
DOCKED: BRANCH  18  19
DOCKED: ATOM     19  O   UNL     1     140.989  74.232 218.813 +0.02 +0.12    -0.492 OA 
DOCKED: BRANCH  19  20
DOCKED: ATOM     20  C   UNL     1     142.269  74.118 219.389 -0.13 -0.04    +0.137 A  
DOCKED: ATOM     21  C   UNL     1     142.604  72.857 219.903 -0.18 -0.01    +0.049 A  
DOCKED: ATOM     22  C   UNL     1     143.229  75.166 219.471 -0.30 -0.04    +0.084 A  
DOCKED: ATOM     23  C   UNL     1     143.826  72.639 220.539 -0.34 -0.00    +0.024 A  
DOCKED: ATOM     24  C   UNL     1     144.452  74.933 220.117 -0.38 -0.02    +0.045 A  
DOCKED: ATOM     25  C   UNL     1     144.746  73.679 220.658 -0.50 -0.01    +0.042 A  
DOCKED: ATOM     26  Cl  UNL     1     143.038  76.744 218.721 -0.42 +0.05    -0.080 Cl 
DOCKED: ATOM     27  Cl  UNL     1     146.284  73.407 221.458 -0.88 +0.01    -0.084 Cl 
DOCKED: ENDBRANCH  19  20
DOCKED: ENDBRANCH  18  19
DOCKED: ENDBRANCH  17  18
DOCKED: ENDBRANCH  16  17
DOCKED: ENDBRANCH   1  16
DOCKED: TORSDOF 10
DOCKED: TER
DOCKED: ENDMDL
________________________________________________________________________________


    FINAL DOCKED STATE:
    ________________________


Run:   20 / 20
Time taken for this run:   0.091s

DOCKED: MODEL        20
DOCKED: USER    Run = 20
DOCKED: USER
DOCKED: USER    Estimated Free Energy of Binding    =  -6.06 kcal/mol  [=(1)+(2)+(3)-(4)]
DOCKED: USER
DOCKED: USER    (1) Final Intermolecular Energy     =  -9.05 kcal/mol
DOCKED: USER        vdW + Hbond + desolv Energy     =  -8.14 kcal/mol
DOCKED: USER        Electrostatic Energy            =  -0.91 kcal/mol
DOCKED: USER        Moving Ligand-Fixed Receptor    =  -9.05 kcal/mol
DOCKED: USER        Moving Ligand-Moving Receptor   =  +0.00 kcal/mol
DOCKED: USER    (2) Final Total Internal Energy     =  -1.07 kcal/mol
DOCKED: USER    (3) Torsional Free Energy           =  +2.98 kcal/mol
DOCKED: USER    (4) Unbound System's Energy         =  -1.07 kcal/mol
DOCKED: USER
DOCKED: USER
DOCKED: REMARK SMILES O=C(CCCOc1ccc(Cl)cc1Cl)[N-]/N=C\c1cccc(C(F)(F)F)c1
DOCKED: REMARK SMILES IDX 2 1 1 2 15 3 16 4 17 5 18 6 19 7 27 8 20 9 22 10 21 11 23 12
DOCKED: REMARK SMILES IDX 24 13 25 14 26 15 3 16 4 17 5 18 6 19 7 20 8 21 13 22 9 23
DOCKED: REMARK SMILES IDX 12 24 10 25 14 26 11 27
DOCKED: REMARK H PARENT
DOCKED: USER                              x       y       z     vdW  Elec       q    Type
DOCKED: USER                           _______ _______ _______ _____ _____    ______ ____
DOCKED: ROOT
DOCKED: ATOM      1  C   UNL     1     145.871  73.130 220.485 -0.57 +0.00    +0.068 C  
DOCKED: ATOM      2  O   UNL     1     146.683  73.811 221.166 -0.50 +0.00    -0.319 OA 
DOCKED: ENDROOT
DOCKED: BRANCH   1   3
DOCKED: ATOM      3  N   UNL     1     146.323  72.405 219.343 -0.35 -0.64    -0.545 NA 
DOCKED: BRANCH   3   4
DOCKED: ATOM      4  N   UNL     1     145.795  72.653 218.068 -0.57 -0.32    -0.372 NA 
DOCKED: BRANCH   4   5
DOCKED: ATOM      5  C   UNL     1     144.916  71.877 217.508 -0.11 +0.03    +0.094 C  
DOCKED: BRANCH   5   6
DOCKED: ATOM      6  C   UNL     1     144.419  70.626 218.125 -0.14 -0.00    -0.009 A  
DOCKED: ATOM      7  C   UNL     1     143.107  70.516 218.617 -0.10 -0.00    +0.009 A  
DOCKED: ATOM      8  C   UNL     1     145.301  69.545 218.276 -0.25 +0.01    +0.022 A  
DOCKED: ATOM      9  C   UNL     1     142.679  69.330 219.218 -0.16 -0.00    +0.001 A  
DOCKED: ATOM     10  C   UNL     1     144.869  68.338 218.854 -0.31 -0.00    +0.056 A  
DOCKED: ATOM     11  C   UNL     1     143.552  68.247 219.341 -0.26 -0.00    +0.013 A  
DOCKED: BRANCH  10  12
DOCKED: ATOM     12  C   UNL     1     145.835  67.194 219.035 -0.27 -0.08    +0.416 C  
DOCKED: ATOM     13  F   UNL     1     145.149  66.019 219.296 -0.20 +0.09    -0.166 F  
DOCKED: ATOM     14  F   UNL     1     146.575  67.037 217.878 -0.17 +0.04    -0.166 F  
DOCKED: ATOM     15  F   UNL     1     146.695  67.436 220.092 -0.15 +0.00    -0.166 F  
DOCKED: ENDBRANCH  10  12
DOCKED: ENDBRANCH   5   6
DOCKED: ENDBRANCH   4   5
DOCKED: ENDBRANCH   3   4
DOCKED: ENDBRANCH   1   3
DOCKED: BRANCH   1  16
DOCKED: ATOM     16  C   UNL     1     144.420  73.107 220.852 -0.40 -0.01    +0.060 C  
DOCKED: BRANCH  16  17
DOCKED: ATOM     17  C   UNL     1     143.629  74.221 220.151 -0.36 -0.02    +0.048 C  
DOCKED: BRANCH  17  18
DOCKED: ATOM     18  C   UNL     1     142.105  74.002 220.191 -0.16 -0.06    +0.230 C  
DOCKED: BRANCH  18  19
DOCKED: ATOM     19  O   UNL     1     141.371  75.202 219.938 -0.03 +0.16    -0.492 OA 
DOCKED: BRANCH  19  20
DOCKED: ATOM     20  C   UNL     1     141.434  76.425 220.636 -0.23 -0.06    +0.137 A  
DOCKED: ATOM     21  C   UNL     1     141.048  76.386 221.983 -0.35 -0.02    +0.049 A  
DOCKED: ATOM     22  C   UNL     1     141.867  77.663 220.085 -0.27 -0.05    +0.084 A  
DOCKED: ATOM     23  C   UNL     1     141.024  77.544 222.760 -0.43 -0.01    +0.024 A  
DOCKED: ATOM     24  C   UNL     1     141.835  78.820 220.877 -0.31 -0.03    +0.045 A  
DOCKED: ATOM     25  C   UNL     1     141.406  78.764 222.205 -0.43 -0.02    +0.042 A  
DOCKED: ATOM     26  Cl  UNL     1     142.550  77.846 218.475 -0.40 +0.06    -0.080 Cl 
DOCKED: ATOM     27  Cl  UNL     1     141.377  80.222 223.181 -0.68 +0.02    -0.084 Cl 
DOCKED: ENDBRANCH  19  20
DOCKED: ENDBRANCH  18  19
DOCKED: ENDBRANCH  17  18
DOCKED: ENDBRANCH  16  17
DOCKED: ENDBRANCH   1  16
DOCKED: TORSDOF 10
DOCKED: TER
DOCKED: ENDMDL
________________________________________________________________________________


    CLUSTERING HISTOGRAM
    ____________________


________________________________________________________________________________
     |           |     |           |     |
Clus | Lowest    | Run | Mean      | Num | Histogram
-ter | Binding   |     | Binding   | in  |
Rank | Energy    |     | Energy    | Clus|    5    10   15   20   25   30   35
_____|___________|_____|___________|_____|____:____|____:____|____:____|____:___
   1 |     -6.88 |   3 |     -6.88 |   1 |#
   2 |     -6.74 |  14 |     -6.44 |   8 |########
   3 |     -6.33 |   5 |     -6.14 |   4 |####
   4 |     -6.10 |   7 |     -6.10 |   1 |#
   5 |     -6.06 |  20 |     -6.06 |   1 |#
   6 |     -6.06 |  12 |     -6.04 |   2 |##
   7 |     -5.74 |  18 |     -5.64 |   3 |###
_____|___________|_____|___________|_____|______________________________________


    RMSD TABLE
    __________


_______________________________________________________________________
     |      |      |           |         |                 |
Rank | Sub- | Run  | Binding   | Cluster | Reference       | Grep
     | Rank |      | Energy    | RMSD    | RMSD            | Pattern
_____|______|______|___________|_________|_________________|___________
   1      1      3       -6.88      0.00    271.70           RANKING
   2      1     14       -6.74      0.00    272.32           RANKING
   2      2     11       -6.68      1.41    272.02           RANKING
   2      3      8       -6.66      1.20    272.31           RANKING
   2      4     15       -6.51      1.19    272.11           RANKING
   2      5     17       -6.48      1.93    272.58           RANKING
   2      6      6       -6.27      1.65    271.94           RANKING
   2      7     10       -6.12      1.57    272.10           RANKING
   2      8      4       -6.09      1.83    272.03           RANKING
   3      1      5       -6.33      0.00    271.35           RANKING
   3      2     19       -6.24      0.54    271.39           RANKING
   3      3      9       -6.13      0.69    271.37           RANKING
   3      4     16       -5.86      1.18    271.29           RANKING
   4      1      7       -6.10      0.00    271.03           RANKING
   5      1     20       -6.06      0.00    270.24           RANKING
   6      1     12       -6.06      0.00    272.04           RANKING
   6      2      1       -6.01      1.63    271.67           RANKING
   7      1     18       -5.74      0.00    271.41           RANKING
   7      2     13       -5.66      0.60    271.31           RANKING
   7      3      2       -5.52      0.75    271.27           RANKING

Run time 1.802 sec
Idle time 0.000 sec
