AutoDock-GPU version: v1.6

**********************************************************
**    AutoDock-GPU AUTODOCKTOOLS-COMPATIBLE DLG FILE    **
**********************************************************


    DOCKING PARAMETERS
    ________________________


Ligand file:                               /home/a/REINVENT4/ReinventStudies/scoringData/graph-dock-h4r84i/graph-DockGPU/node-autodockgpu/inputs/XUFANRSCLZKORJ-OUKQBFOZNA-N.pdbqt
Grid fld file:                             /home/a/REINVENT4/ReinventStudies/mols/Rad51/maps/rad51_receptor.maps.fld

Random seed:                               42
Number of runs:                            20
Number of energy evaluations:              1132076
Number of generations:                     42000
Size of population:                        150
Rate of crossover:                         80.000000%
Tournament selection probability limit:    60.000000%
Rate of mutation:                          2.000000%
Maximal allowed delta movement:            +/- 6.000000A
Maximal allowed delta angle:               +/- 90.000000

Rate of local search:                      100.000000%
Maximal number of local search iterations: 300
Rho lower bound:                           0.010000
Spread of local search delta movement:     2.000000A
Spread of local search delta angle:        74.999999
Limit of consecutive successes/failures:   4

Handle symmetry during clustering:         YES
RMSD tolerance:                            2.000000A

Program call in command line was:          /home/a/REINVENT4/ReinventStudies/adgpu-v1.6_linux_x64_cuda12_128wi --filelist batch.txt --heuristics 1 --nrun 20 --psize 150 --lsit 300 --seed 42 --heurmax 12000000 


    GRID PARAMETERS
    ________________________


Receptor name:                             rad51_receptor
Number of grid points (x, y, z):           53, 53, 53
Grid center (x, y, z):                     139.950000, 75.640000, 221.970000A
Grid size (x, y, z):                       19.500000, 19.500000, 19.500000A
Grid spacing:                              0.375000A


    LIGAND PARAMETERS
    ________________________


Ligand name:                               /home/a/REINVENT4/ReinventStudies/scoringData/graph-dock-h4r84i/graph-DockGPU/node-autodockgpu/inputs/XUFANRSCLZKORJ-OUKQBFOZNA-N
Number of atoms:                           26
Number of rotatable bonds:                 5
Number of atom types:                      5


    DUMMY DATA (only for ADT-compatibility)
    ________________________


DPF> outlev 1
DPF> ga_run 20
DPF> fld /home/a/REINVENT4/ReinventStudies/mols/Rad51/maps/rad51_receptor.maps.fld
DPF> move /home/a/REINVENT4/ReinventStudies/scoringData/graph-dock-h4r84i/graph-DockGPU/node-autodockgpu/inputs/XUFANRSCLZKORJ-OUKQBFOZNA-N.pdbqt


    COUNTER STATES
    ________________________


Number of energy evaluations performed:    978826
Number of generations used:                40


    INPUT LIGAND PDBQT FILE:
    ________________________


INPUT-LIGAND-PDBQT: REMARK SMILES O=c1c2ccccc2nc(/C=C/c2cccnc2)n1CC1CCCCC1
INPUT-LIGAND-PDBQT: REMARK SMILES IDX 10 1 9 2 8 3 7 4 6 5 5 6 4 7 3 8 2 9 1 10 19 11 11 12 12 13
INPUT-LIGAND-PDBQT: REMARK SMILES IDX 13 14 18 15 14 16 17 17 15 18 16 19 20 20 21 21 22 22 26 23
INPUT-LIGAND-PDBQT: REMARK SMILES IDX 23 24 25 25 24 26
INPUT-LIGAND-PDBQT: REMARK H PARENT
INPUT-LIGAND-PDBQT: ROOT
INPUT-LIGAND-PDBQT: ATOM      1  C   UNL     1      -0.014  -0.310   1.339  1.00  0.00     0.136 A 
INPUT-LIGAND-PDBQT: ATOM      2  N   UNL     1       0.545  -1.009   2.364  1.00  0.00    -0.230 NA
INPUT-LIGAND-PDBQT: ATOM      3  C   UNL     1       0.611  -2.358   2.366  1.00  0.00     0.078 A 
INPUT-LIGAND-PDBQT: ATOM      4  C   UNL     1       1.197  -3.029   3.446  1.00  0.00     0.029 A 
INPUT-LIGAND-PDBQT: ATOM      5  C   UNL     1       1.259  -4.425   3.453  1.00  0.00     0.002 A 
INPUT-LIGAND-PDBQT: ATOM      6  C   UNL     1       0.736  -5.153   2.380  1.00  0.00     0.001 A 
INPUT-LIGAND-PDBQT: ATOM      7  C   UNL     1       0.148  -4.488   1.300  1.00  0.00     0.016 A 
INPUT-LIGAND-PDBQT: ATOM      8  C   UNL     1       0.081  -3.081   1.287  1.00  0.00     0.066 A 
INPUT-LIGAND-PDBQT: ATOM      9  C   UNL     1      -0.497  -2.364   0.226  1.00  0.00     0.261 A 
INPUT-LIGAND-PDBQT: ATOM     10  O   UNL     1      -0.986  -3.000  -0.748  1.00  0.00    -0.269 OA
INPUT-LIGAND-PDBQT: ATOM     11  N   UNL     1      -0.528  -0.985   0.246  1.00  0.00    -0.292 N 
INPUT-LIGAND-PDBQT: ENDROOT
INPUT-LIGAND-PDBQT: BRANCH   1  12
INPUT-LIGAND-PDBQT: ATOM     12  C   UNL     1      -0.054   1.172   1.459  1.00  0.00     0.048 C 
INPUT-LIGAND-PDBQT: BRANCH  12  13
INPUT-LIGAND-PDBQT: ATOM     13  C   UNL     1       0.827   1.840   2.216  1.00  0.00     0.013 C 
INPUT-LIGAND-PDBQT: BRANCH  13  14
INPUT-LIGAND-PDBQT: ATOM     14  C   UNL     1       0.823   3.314   2.344  1.00  0.00    -0.007 A 
INPUT-LIGAND-PDBQT: ATOM     15  C   UNL     1       2.034   3.987   2.567  1.00  0.00     0.119 A 
INPUT-LIGAND-PDBQT: ATOM     16  C   UNL     1      -0.365   4.066   2.306  1.00  0.00     0.011 A 
INPUT-LIGAND-PDBQT: ATOM     17  N   UNL     1       2.052   5.339   2.717  1.00  0.00    -0.264 NA
INPUT-LIGAND-PDBQT: ATOM     18  C   UNL     1      -0.321   5.451   2.474  1.00  0.00     0.021 A 
INPUT-LIGAND-PDBQT: ATOM     19  C   UNL     1       0.911   6.077   2.675  1.00  0.00     0.111 A 
INPUT-LIGAND-PDBQT: ENDBRANCH  13  14
INPUT-LIGAND-PDBQT: ENDBRANCH  12  13
INPUT-LIGAND-PDBQT: ENDBRANCH   1  12
INPUT-LIGAND-PDBQT: BRANCH  11  20
INPUT-LIGAND-PDBQT: ATOM     20  C   UNL     1      -1.075  -0.250  -0.923  1.00  0.00     0.131 C 
INPUT-LIGAND-PDBQT: BRANCH  20  21
INPUT-LIGAND-PDBQT: ATOM     21  C   UNL     1       0.046   0.409  -1.771  1.00  0.00     0.009 C 
INPUT-LIGAND-PDBQT: ATOM     22  C   UNL     1       0.986  -0.638  -2.411  1.00  0.00     0.005 C 
INPUT-LIGAND-PDBQT: ATOM     23  C   UNL     1      -0.542   1.390  -2.829  1.00  0.00     0.005 C 
INPUT-LIGAND-PDBQT: ATOM     24  C   UNL     1       0.329  -1.420  -3.565  1.00  0.00     0.000 C 
INPUT-LIGAND-PDBQT: ATOM     25  C   UNL     1      -0.370   0.922  -4.284  1.00  0.00     0.000 C 
INPUT-LIGAND-PDBQT: ATOM     26  C   UNL     1      -0.646  -0.577  -4.411  1.00  0.00     0.000 C 
INPUT-LIGAND-PDBQT: ENDBRANCH  20  21
INPUT-LIGAND-PDBQT: ENDBRANCH  11  20
INPUT-LIGAND-PDBQT: TORSDOF 5


    FINAL DOCKED STATE:
    ________________________


Run:   1 / 20
Time taken for this run:   0.033s

DOCKED: MODEL        1
DOCKED: USER    Run = 1
DOCKED: USER
DOCKED: USER    Estimated Free Energy of Binding    =  -7.03 kcal/mol  [=(1)+(2)+(3)-(4)]
DOCKED: USER
DOCKED: USER    (1) Final Intermolecular Energy     =  -8.52 kcal/mol
DOCKED: USER        vdW + Hbond + desolv Energy     =  -8.45 kcal/mol
DOCKED: USER        Electrostatic Energy            =  -0.06 kcal/mol
DOCKED: USER        Moving Ligand-Fixed Receptor    =  -8.52 kcal/mol
DOCKED: USER        Moving Ligand-Moving Receptor   =  +0.00 kcal/mol
DOCKED: USER    (2) Final Total Internal Energy     =  -1.52 kcal/mol
DOCKED: USER    (3) Torsional Free Energy           =  +1.49 kcal/mol
DOCKED: USER    (4) Unbound System's Energy         =  -1.52 kcal/mol
DOCKED: USER
DOCKED: USER
DOCKED: REMARK SMILES O=c1c2ccccc2nc(/C=C/c2cccnc2)n1CC1CCCCC1
DOCKED: REMARK SMILES IDX 10 1 9 2 8 3 7 4 6 5 5 6 4 7 3 8 2 9 1 10 19 11 11 12 12 13
DOCKED: REMARK SMILES IDX 13 14 18 15 14 16 17 17 15 18 16 19 20 20 21 21 22 22 26 23
DOCKED: REMARK SMILES IDX 23 24 25 25 24 26
DOCKED: REMARK H PARENT
DOCKED: USER                              x       y       z     vdW  Elec       q    Type
DOCKED: USER                           _______ _______ _______ _____ _____    ______ ____
DOCKED: ROOT
DOCKED: ATOM      1  C   UNL     1     139.861  70.393 223.384 -0.20 -0.02    +0.136 A  
DOCKED: ATOM      2  N   UNL     1     140.417  71.244 224.289 -0.29 +0.03    -0.230 NA 
DOCKED: ATOM      3  C   UNL     1     140.460  70.965 225.610 -0.51 -0.01    +0.078 A  
DOCKED: ATOM      4  C   UNL     1     141.044  71.876 226.499 -0.70 -0.00    +0.029 A  
DOCKED: ATOM      5  C   UNL     1     141.082  71.592 227.867 -0.81 -0.00    +0.002 A  
DOCKED: ATOM      6  C   UNL     1     140.538  70.397 228.348 -0.57 -0.00    +0.001 A  
DOCKED: ATOM      7  C   UNL     1     139.953  69.486 227.465 -0.59 -0.00    +0.016 A  
DOCKED: ATOM      8  C   UNL     1     139.909  69.766 226.085 -0.44 -0.01    +0.066 A  
DOCKED: ATOM      9  C   UNL     1     139.334  68.884 225.155 -0.26 -0.03    +0.261 A  
DOCKED: ATOM     10  O   UNL     1     138.827  67.805 225.567 -0.78 -0.01    -0.269 OA 
DOCKED: ATOM     11  N   UNL     1     139.327  69.190 223.810 -0.11 +0.05    -0.292 N  
DOCKED: ENDROOT
DOCKED: BRANCH   1  12
DOCKED: ATOM     12  C   UNL     1     139.847  70.819 221.959 -0.18 -0.01    +0.048 C  
DOCKED: BRANCH  12  13
DOCKED: ATOM     13  C   UNL     1     140.782  71.640 221.461 -0.21 -0.00    +0.013 C  
DOCKED: BRANCH  13  14
DOCKED: ATOM     14  C   UNL     1     140.712  73.112 221.591 -0.29 +0.00    -0.007 A  
DOCKED: ATOM     15  C   UNL     1     139.612  73.692 222.240 -0.15 -0.02    +0.119 A  
DOCKED: ATOM     16  C   UNL     1     141.686  73.960 221.034 -0.27 -0.00    +0.011 A  
DOCKED: ATOM     17  N   UNL     1     139.510  75.045 222.346 -0.59 +0.04    -0.264 NA 
DOCKED: ATOM     18  C   UNL     1     141.554  75.345 221.147 -0.30 -0.01    +0.021 A  
DOCKED: ATOM     19  C   UNL     1     140.449  75.874 221.819 -0.32 -0.03    +0.111 A  
DOCKED: ENDBRANCH  13  14
DOCKED: ENDBRANCH  12  13
DOCKED: ENDBRANCH   1  12
DOCKED: BRANCH  11  20
DOCKED: ATOM     20  C   UNL     1     138.782  68.206 222.840 -0.20 -0.02    +0.131 C  
DOCKED: BRANCH  20  21
DOCKED: ATOM     21  C   UNL     1     137.231  68.163 222.865 -0.10 -0.00    +0.009 C  
DOCKED: ATOM     22  C   UNL     1     136.631  69.259 223.775 -0.21 -0.00    +0.005 C  
DOCKED: ATOM     23  C   UNL     1     136.636  68.209 221.426 -0.10 -0.00    +0.005 C  
DOCKED: ATOM     24  C   UNL     1     136.758  70.677 223.184 -0.17 -0.00    +0.000 C  
DOCKED: ATOM     25  C   UNL     1     135.874  69.505 221.101 -0.04 -0.00    +0.000 C  
DOCKED: ATOM     26  C   UNL     1     136.616  70.725 221.649 -0.06 -0.00    +0.000 C  
DOCKED: ENDBRANCH  20  21
DOCKED: ENDBRANCH  11  20
DOCKED: TORSDOF 5
DOCKED: TER
DOCKED: ENDMDL
________________________________________________________________________________


    FINAL DOCKED STATE:
    ________________________


Run:   2 / 20
Time taken for this run:   0.033s

DOCKED: MODEL        2
DOCKED: USER    Run = 2
DOCKED: USER
DOCKED: USER    Estimated Free Energy of Binding    =  -7.08 kcal/mol  [=(1)+(2)+(3)-(4)]
DOCKED: USER
DOCKED: USER    (1) Final Intermolecular Energy     =  -8.58 kcal/mol
DOCKED: USER        vdW + Hbond + desolv Energy     =  -8.50 kcal/mol
DOCKED: USER        Electrostatic Energy            =  -0.07 kcal/mol
DOCKED: USER        Moving Ligand-Fixed Receptor    =  -8.58 kcal/mol
DOCKED: USER        Moving Ligand-Moving Receptor   =  +0.00 kcal/mol
DOCKED: USER    (2) Final Total Internal Energy     =  -1.47 kcal/mol
DOCKED: USER    (3) Torsional Free Energy           =  +1.49 kcal/mol
DOCKED: USER    (4) Unbound System's Energy         =  -1.47 kcal/mol
DOCKED: USER
DOCKED: USER
DOCKED: REMARK SMILES O=c1c2ccccc2nc(/C=C/c2cccnc2)n1CC1CCCCC1
DOCKED: REMARK SMILES IDX 10 1 9 2 8 3 7 4 6 5 5 6 4 7 3 8 2 9 1 10 19 11 11 12 12 13
DOCKED: REMARK SMILES IDX 13 14 18 15 14 16 17 17 15 18 16 19 20 20 21 21 22 22 26 23
DOCKED: REMARK SMILES IDX 23 24 25 25 24 26
DOCKED: REMARK H PARENT
DOCKED: USER                              x       y       z     vdW  Elec       q    Type
DOCKED: USER                           _______ _______ _______ _____ _____    ______ ____
DOCKED: ROOT
DOCKED: ATOM      1  C   UNL     1     139.880  70.376 223.371 -0.19 -0.02    +0.136 A  
DOCKED: ATOM      2  N   UNL     1     140.437  71.229 224.273 -0.29 +0.03    -0.230 NA 
DOCKED: ATOM      3  C   UNL     1     140.474  70.958 225.595 -0.51 -0.01    +0.078 A  
DOCKED: ATOM      4  C   UNL     1     141.060  71.870 226.481 -0.70 -0.00    +0.029 A  
DOCKED: ATOM      5  C   UNL     1     141.092  71.595 227.851 -0.81 -0.00    +0.002 A  
DOCKED: ATOM      6  C   UNL     1     140.539  70.407 228.338 -0.58 -0.00    +0.001 A  
DOCKED: ATOM      7  C   UNL     1     139.950  69.493 227.458 -0.59 -0.00    +0.016 A  
DOCKED: ATOM      8  C   UNL     1     139.914  69.765 226.076 -0.44 -0.01    +0.066 A  
DOCKED: ATOM      9  C   UNL     1     139.337  68.881 225.149 -0.26 -0.04    +0.261 A  
DOCKED: ATOM     10  O   UNL     1     138.821  67.808 225.566 -0.78 -0.01    -0.269 OA 
DOCKED: ATOM     11  N   UNL     1     139.336  69.179 223.802 -0.11 +0.05    -0.292 N  
DOCKED: ENDROOT
DOCKED: BRANCH   1  12
DOCKED: ATOM     12  C   UNL     1     139.874  70.793 221.943 -0.18 -0.01    +0.048 C  
DOCKED: BRANCH  12  13
DOCKED: ATOM     13  C   UNL     1     140.895  71.474 221.405 -0.19 -0.00    +0.013 C  
DOCKED: BRANCH  13  14
DOCKED: ATOM     14  C   UNL     1     140.976  72.951 221.426 -0.28 +0.00    -0.007 A  
DOCKED: ATOM     15  C   UNL     1     139.928  73.688 221.999 -0.23 -0.01    +0.119 A  
DOCKED: ATOM     16  C   UNL     1     142.046  73.651 220.839 -0.28 -0.00    +0.011 A  
DOCKED: ATOM     17  N   UNL     1     139.966  75.048 222.003 -0.63 +0.03    -0.264 NA 
DOCKED: ATOM     18  C   UNL     1     142.056  75.046 220.847 -0.29 -0.01    +0.021 A  
DOCKED: ATOM     19  C   UNL     1     140.999  75.735 221.446 -0.30 -0.03    +0.111 A  
DOCKED: ENDBRANCH  13  14
DOCKED: ENDBRANCH  12  13
DOCKED: ENDBRANCH   1  12
DOCKED: BRANCH  11  20
DOCKED: ATOM     20  C   UNL     1     138.789  68.192 222.836 -0.20 -0.02    +0.131 C  
DOCKED: BRANCH  20  21
DOCKED: ATOM     21  C   UNL     1     137.237  68.158 222.857 -0.10 -0.00    +0.009 C  
DOCKED: ATOM     22  C   UNL     1     136.641  69.259 223.763 -0.21 -0.00    +0.005 C  
DOCKED: ATOM     23  C   UNL     1     136.648  68.205 221.415 -0.10 -0.00    +0.005 C  
DOCKED: ATOM     24  C   UNL     1     136.779  70.675 223.170 -0.17 -0.00    +0.000 C  
DOCKED: ATOM     25  C   UNL     1     135.895  69.506 221.087 -0.04 -0.00    +0.000 C  
DOCKED: ATOM     26  C   UNL     1     136.642  70.722 221.635 -0.06 -0.00    +0.000 C  
DOCKED: ENDBRANCH  20  21
DOCKED: ENDBRANCH  11  20
DOCKED: TORSDOF 5
DOCKED: TER
DOCKED: ENDMDL
________________________________________________________________________________


    FINAL DOCKED STATE:
    ________________________


Run:   3 / 20
Time taken for this run:   0.033s

DOCKED: MODEL        3
DOCKED: USER    Run = 3
DOCKED: USER
DOCKED: USER    Estimated Free Energy of Binding    =  -7.10 kcal/mol  [=(1)+(2)+(3)-(4)]
DOCKED: USER
DOCKED: USER    (1) Final Intermolecular Energy     =  -8.59 kcal/mol
DOCKED: USER        vdW + Hbond + desolv Energy     =  -8.52 kcal/mol
DOCKED: USER        Electrostatic Energy            =  -0.07 kcal/mol
DOCKED: USER        Moving Ligand-Fixed Receptor    =  -8.59 kcal/mol
DOCKED: USER        Moving Ligand-Moving Receptor   =  +0.00 kcal/mol
DOCKED: USER    (2) Final Total Internal Energy     =  -1.42 kcal/mol
DOCKED: USER    (3) Torsional Free Energy           =  +1.49 kcal/mol
DOCKED: USER    (4) Unbound System's Energy         =  -1.42 kcal/mol
DOCKED: USER
DOCKED: USER
DOCKED: REMARK SMILES O=c1c2ccccc2nc(/C=C/c2cccnc2)n1CC1CCCCC1
DOCKED: REMARK SMILES IDX 10 1 9 2 8 3 7 4 6 5 5 6 4 7 3 8 2 9 1 10 19 11 11 12 12 13
DOCKED: REMARK SMILES IDX 13 14 18 15 14 16 17 17 15 18 16 19 20 20 21 21 22 22 26 23
DOCKED: REMARK SMILES IDX 23 24 25 25 24 26
DOCKED: REMARK H PARENT
DOCKED: USER                              x       y       z     vdW  Elec       q    Type
DOCKED: USER                           _______ _______ _______ _____ _____    ______ ____
DOCKED: ROOT
DOCKED: ATOM      1  C   UNL     1     139.781  70.567 223.403 -0.23 -0.02    +0.136 A  
DOCKED: ATOM      2  N   UNL     1     140.316  71.385 224.350 -0.30 +0.04    -0.230 NA 
DOCKED: ATOM      3  C   UNL     1     140.433  71.013 225.643 -0.51 -0.01    +0.078 A  
DOCKED: ATOM      4  C   UNL     1     140.991  71.893 226.577 -0.70 -0.00    +0.029 A  
DOCKED: ATOM      5  C   UNL     1     141.105  71.512 227.917 -0.80 -0.00    +0.002 A  
DOCKED: ATOM      6  C   UNL     1     140.662  70.250 228.325 -0.57 -0.00    +0.001 A  
DOCKED: ATOM      7  C   UNL     1     140.102  69.368 227.396 -0.59 -0.00    +0.016 A  
DOCKED: ATOM      8  C   UNL     1     139.983  69.746 226.044 -0.44 -0.01    +0.066 A  
DOCKED: ATOM      9  C   UNL     1     139.430  68.898 225.071 -0.25 -0.04    +0.261 A  
DOCKED: ATOM     10  O   UNL     1     139.012  67.758 225.418 -0.82 -0.01    -0.269 OA 
DOCKED: ATOM     11  N   UNL     1     139.346  69.301 223.754 -0.11 +0.05    -0.292 N  
DOCKED: ENDROOT
DOCKED: BRANCH   1  12
DOCKED: ATOM     12  C   UNL     1     139.680  71.094 222.016 -0.20 -0.01    +0.048 C  
DOCKED: BRANCH  12  13
DOCKED: ATOM     13  C   UNL     1     140.710  71.713 221.422 -0.22 -0.00    +0.013 C  
DOCKED: BRANCH  13  14
DOCKED: ATOM     14  C   UNL     1     140.875  73.183 221.424 -0.28 +0.00    -0.007 A  
DOCKED: ATOM     15  C   UNL     1     139.870  73.986 221.985 -0.22 -0.01    +0.119 A  
DOCKED: ATOM     16  C   UNL     1     141.984  73.813 220.831 -0.28 -0.00    +0.011 A  
DOCKED: ATOM     17  N   UNL     1     139.986  75.341 221.973 -0.52 +0.04    -0.264 NA 
DOCKED: ATOM     18  C   UNL     1     142.074  75.206 220.821 -0.28 -0.01    +0.021 A  
DOCKED: ATOM     19  C   UNL     1     141.056  75.961 221.409 -0.30 -0.04    +0.111 A  
DOCKED: ENDBRANCH  13  14
DOCKED: ENDBRANCH  12  13
DOCKED: ENDBRANCH   1  12
DOCKED: BRANCH  11  20
DOCKED: ATOM     20  C   UNL     1     138.829  68.356 222.732 -0.19 -0.02    +0.131 C  
DOCKED: BRANCH  20  21
DOCKED: ATOM     21  C   UNL     1     137.287  68.197 222.816 -0.13 -0.00    +0.009 C  
DOCKED: ATOM     22  C   UNL     1     136.645  69.225 223.776 -0.21 -0.00    +0.005 C  
DOCKED: ATOM     23  C   UNL     1     136.632  68.231 221.403 -0.10 -0.00    +0.005 C  
DOCKED: ATOM     24  C   UNL     1     136.644  70.661 223.217 -0.17 -0.00    +0.000 C  
DOCKED: ATOM     25  C   UNL     1     135.765  69.474 221.141 -0.04 -0.00    +0.000 C  
DOCKED: ATOM     26  C   UNL     1     136.437  70.733 221.691 -0.06 -0.00    +0.000 C  
DOCKED: ENDBRANCH  20  21
DOCKED: ENDBRANCH  11  20
DOCKED: TORSDOF 5
DOCKED: TER
DOCKED: ENDMDL
________________________________________________________________________________


    FINAL DOCKED STATE:
    ________________________


Run:   4 / 20
Time taken for this run:   0.033s

DOCKED: MODEL        4
DOCKED: USER    Run = 4
DOCKED: USER
DOCKED: USER    Estimated Free Energy of Binding    =  -6.66 kcal/mol  [=(1)+(2)+(3)-(4)]
DOCKED: USER
DOCKED: USER    (1) Final Intermolecular Energy     =  -8.15 kcal/mol
DOCKED: USER        vdW + Hbond + desolv Energy     =  -8.03 kcal/mol
DOCKED: USER        Electrostatic Energy            =  -0.12 kcal/mol
DOCKED: USER        Moving Ligand-Fixed Receptor    =  -8.15 kcal/mol
DOCKED: USER        Moving Ligand-Moving Receptor   =  +0.00 kcal/mol
DOCKED: USER    (2) Final Total Internal Energy     =  -1.67 kcal/mol
DOCKED: USER    (3) Torsional Free Energy           =  +1.49 kcal/mol
DOCKED: USER    (4) Unbound System's Energy         =  -1.67 kcal/mol
DOCKED: USER
DOCKED: USER
DOCKED: REMARK SMILES O=c1c2ccccc2nc(/C=C/c2cccnc2)n1CC1CCCCC1
DOCKED: REMARK SMILES IDX 10 1 9 2 8 3 7 4 6 5 5 6 4 7 3 8 2 9 1 10 19 11 11 12 12 13
DOCKED: REMARK SMILES IDX 13 14 18 15 14 16 17 17 15 18 16 19 20 20 21 21 22 22 26 23
DOCKED: REMARK SMILES IDX 23 24 25 25 24 26
DOCKED: REMARK H PARENT
DOCKED: USER                              x       y       z     vdW  Elec       q    Type
DOCKED: USER                           _______ _______ _______ _____ _____    ______ ____
DOCKED: ROOT
DOCKED: ATOM      1  C   UNL     1     141.642  76.348 220.226 -0.22 -0.06    +0.136 A  
DOCKED: ATOM      2  N   UNL     1     142.112  77.603 220.465 -0.19 +0.16    -0.230 NA 
DOCKED: ATOM      3  C   UNL     1     141.661  78.359 221.489 -0.32 -0.04    +0.078 A  
DOCKED: ATOM      4  C   UNL     1     142.178  79.645 221.691 -0.42 -0.01    +0.029 A  
DOCKED: ATOM      5  C   UNL     1     141.707  80.431 222.746 -0.54 -0.00    +0.002 A  
DOCKED: ATOM      6  C   UNL     1     140.718  79.934 223.601 -0.49 -0.00    +0.001 A  
DOCKED: ATOM      7  C   UNL     1     140.197  78.652 223.402 -0.33 -0.00    +0.016 A  
DOCKED: ATOM      8  C   UNL     1     140.667  77.854 222.341 -0.39 -0.02    +0.066 A  
DOCKED: ATOM      9  C   UNL     1     140.179  76.559 222.098 -0.26 -0.07    +0.261 A  
DOCKED: ATOM     10  O   UNL     1     139.278  76.094 222.850 -0.28 +0.05    -0.269 OA 
DOCKED: ATOM     11  N   UNL     1     140.677  75.805 221.057 -0.15 +0.09    -0.292 N  
DOCKED: ENDROOT
DOCKED: BRANCH   1  12
DOCKED: ATOM     12  C   UNL     1     142.194  75.619 219.053 -0.21 -0.02    +0.048 C  
DOCKED: BRANCH  12  13
DOCKED: ATOM     13  C   UNL     1     143.512  75.567 218.815 -0.28 -0.01    +0.013 C  
DOCKED: BRANCH  13  14
DOCKED: ATOM     14  C   UNL     1     144.382  74.491 219.338 -0.23 +0.00    -0.007 A  
DOCKED: ATOM     15  C   UNL     1     144.825  73.483 218.468 -0.18 -0.01    +0.119 A  
DOCKED: ATOM     16  C   UNL     1     144.739  74.410 220.696 -0.42 -0.00    +0.011 A  
DOCKED: ATOM     17  N   UNL     1     145.602  72.467 218.932 -0.67 -0.16    -0.264 NA 
DOCKED: ATOM     18  C   UNL     1     145.528  73.351 221.149 -0.65 -0.00    +0.021 A  
DOCKED: ATOM     19  C   UNL     1     145.959  72.382 220.241 -0.36 +0.03    +0.111 A  
DOCKED: ENDBRANCH  13  14
DOCKED: ENDBRANCH  12  13
DOCKED: ENDBRANCH   1  12
DOCKED: BRANCH  11  20
DOCKED: ATOM     20  C   UNL     1     140.200  74.411 220.870 -0.19 -0.03    +0.131 C  
DOCKED: BRANCH  20  21
DOCKED: ATOM     21  C   UNL     1     141.118  73.382 221.583 -0.28 -0.00    +0.009 C  
DOCKED: ATOM     22  C   UNL     1     140.331  72.471 222.552 -0.32 -0.00    +0.005 C  
DOCKED: ATOM     23  C   UNL     1     141.955  72.560 220.558 -0.22 -0.00    +0.005 C  
DOCKED: ATOM     24  C   UNL     1     139.440  71.442 221.831 -0.20 -0.00    +0.000 C  
DOCKED: ATOM     25  C   UNL     1     141.568  71.073 220.479 -0.14 -0.00    +0.000 C  
DOCKED: ATOM     26  C   UNL     1     140.048  70.903 220.521 -0.11 -0.00    +0.000 C  
DOCKED: ENDBRANCH  20  21
DOCKED: ENDBRANCH  11  20
DOCKED: TORSDOF 5
DOCKED: TER
DOCKED: ENDMDL
________________________________________________________________________________


    FINAL DOCKED STATE:
    ________________________


Run:   5 / 20
Time taken for this run:   0.033s

DOCKED: MODEL        5
DOCKED: USER    Run = 5
DOCKED: USER
DOCKED: USER    Estimated Free Energy of Binding    =  -7.23 kcal/mol  [=(1)+(2)+(3)-(4)]
DOCKED: USER
DOCKED: USER    (1) Final Intermolecular Energy     =  -8.72 kcal/mol
DOCKED: USER        vdW + Hbond + desolv Energy     =  -8.68 kcal/mol
DOCKED: USER        Electrostatic Energy            =  -0.04 kcal/mol
DOCKED: USER        Moving Ligand-Fixed Receptor    =  -8.72 kcal/mol
DOCKED: USER        Moving Ligand-Moving Receptor   =  +0.00 kcal/mol
DOCKED: USER    (2) Final Total Internal Energy     =  -1.23 kcal/mol
DOCKED: USER    (3) Torsional Free Energy           =  +1.49 kcal/mol
DOCKED: USER    (4) Unbound System's Energy         =  -1.23 kcal/mol
DOCKED: USER
DOCKED: USER
DOCKED: REMARK SMILES O=c1c2ccccc2nc(/C=C/c2cccnc2)n1CC1CCCCC1
DOCKED: REMARK SMILES IDX 10 1 9 2 8 3 7 4 6 5 5 6 4 7 3 8 2 9 1 10 19 11 11 12 12 13
DOCKED: REMARK SMILES IDX 13 14 18 15 14 16 17 17 15 18 16 19 20 20 21 21 22 22 26 23
DOCKED: REMARK SMILES IDX 23 24 25 25 24 26
DOCKED: REMARK H PARENT
DOCKED: USER                              x       y       z     vdW  Elec       q    Type
DOCKED: USER                           _______ _______ _______ _____ _____    ______ ____
DOCKED: ROOT
DOCKED: ATOM      1  C   UNL     1     140.911  73.253 221.774 -0.23 -0.01    +0.136 A  
DOCKED: ATOM      2  N   UNL     1     140.343  74.351 222.343 -0.69 -0.02    -0.230 NA 
DOCKED: ATOM      3  C   UNL     1     140.612  75.604 221.919 -0.32 -0.02    +0.078 A  
DOCKED: ATOM      4  C   UNL     1     140.000  76.700 222.540 -0.31 -0.01    +0.029 A  
DOCKED: ATOM      5  C   UNL     1     140.284  77.998 222.107 -0.35 -0.00    +0.002 A  
DOCKED: ATOM      6  C   UNL     1     141.179  78.204 221.053 -0.31 -0.00    +0.001 A  
DOCKED: ATOM      7  C   UNL     1     141.794  77.113 220.431 -0.30 -0.01    +0.016 A  
DOCKED: ATOM      8  C   UNL     1     141.514  75.802 220.863 -0.27 -0.03    +0.066 A  
DOCKED: ATOM      9  C   UNL     1     142.103  74.672 220.271 -0.17 -0.08    +0.261 A  
DOCKED: ATOM     10  O   UNL     1     142.923  74.833 219.326 -0.16 +0.10    -0.269 OA 
DOCKED: ATOM     11  N   UNL     1     141.789  73.404 220.715 -0.12 +0.05    -0.292 N  
DOCKED: ENDROOT
DOCKED: BRANCH   1  12
DOCKED: ATOM     12  C   UNL     1     140.559  71.924 222.342 -0.29 -0.01    +0.048 C  
DOCKED: BRANCH  12  13
DOCKED: ATOM     13  C   UNL     1     139.746  71.805 223.400 -0.32 -0.00    +0.013 C  
DOCKED: BRANCH  13  14
DOCKED: ATOM     14  C   UNL     1     140.158  71.155 224.663 -0.48 +0.00    -0.007 A  
DOCKED: ATOM     15  C   UNL     1     139.916  69.784 224.841 -0.32 -0.02    +0.119 A  
DOCKED: ATOM     16  C   UNL     1     140.738  71.877 225.722 -0.50 -0.00    +0.011 A  
DOCKED: ATOM     17  N   UNL     1     140.260  69.171 226.006 -0.25 +0.05    -0.264 NA 
DOCKED: ATOM     18  C   UNL     1     141.071  71.226 226.911 -0.69 -0.00    +0.021 A  
DOCKED: ATOM     19  C   UNL     1     140.827  69.856 227.033 -0.48 -0.02    +0.111 A  
DOCKED: ENDBRANCH  13  14
DOCKED: ENDBRANCH  12  13
DOCKED: ENDBRANCH   1  12
DOCKED: BRANCH  11  20
DOCKED: ATOM     20  C   UNL     1     142.366  72.224 220.022 -0.15 -0.02    +0.131 C  
DOCKED: BRANCH  20  21
DOCKED: ATOM     21  C   UNL     1     143.716  71.785 220.649 -0.29 -0.00    +0.009 C  
DOCKED: ATOM     22  C   UNL     1     144.527  70.867 219.707 -0.23 +0.00    +0.005 C  
DOCKED: ATOM     23  C   UNL     1     144.549  73.013 221.127 -0.31 -0.00    +0.005 C  
DOCKED: ATOM     24  C   UNL     1     145.129  71.613 218.500 -0.23 +0.00    +0.000 C  
DOCKED: ATOM     25  C   UNL     1     145.833  73.255 220.316 -0.61 +0.00    +0.000 C  
DOCKED: ATOM     26  C   UNL     1     145.580  73.051 218.821 -0.30 +0.00    +0.000 C  
DOCKED: ENDBRANCH  20  21
DOCKED: ENDBRANCH  11  20
DOCKED: TORSDOF 5
DOCKED: TER
DOCKED: ENDMDL
________________________________________________________________________________


    FINAL DOCKED STATE:
    ________________________


Run:   6 / 20
Time taken for this run:   0.033s

DOCKED: MODEL        6
DOCKED: USER    Run = 6
DOCKED: USER
DOCKED: USER    Estimated Free Energy of Binding    =  -6.37 kcal/mol  [=(1)+(2)+(3)-(4)]
DOCKED: USER
DOCKED: USER    (1) Final Intermolecular Energy     =  -7.86 kcal/mol
DOCKED: USER        vdW + Hbond + desolv Energy     =  -7.89 kcal/mol
DOCKED: USER        Electrostatic Energy            =  +0.03 kcal/mol
DOCKED: USER        Moving Ligand-Fixed Receptor    =  -7.86 kcal/mol
DOCKED: USER        Moving Ligand-Moving Receptor   =  +0.00 kcal/mol
DOCKED: USER    (2) Final Total Internal Energy     =  -1.84 kcal/mol
DOCKED: USER    (3) Torsional Free Energy           =  +1.49 kcal/mol
DOCKED: USER    (4) Unbound System's Energy         =  -1.84 kcal/mol
DOCKED: USER
DOCKED: USER
DOCKED: REMARK SMILES O=c1c2ccccc2nc(/C=C/c2cccnc2)n1CC1CCCCC1
DOCKED: REMARK SMILES IDX 10 1 9 2 8 3 7 4 6 5 5 6 4 7 3 8 2 9 1 10 19 11 11 12 12 13
DOCKED: REMARK SMILES IDX 13 14 18 15 14 16 17 17 15 18 16 19 20 20 21 21 22 22 26 23
DOCKED: REMARK SMILES IDX 23 24 25 25 24 26
DOCKED: REMARK H PARENT
DOCKED: USER                              x       y       z     vdW  Elec       q    Type
DOCKED: USER                           _______ _______ _______ _____ _____    ______ ____
DOCKED: ROOT
DOCKED: ATOM      1  C   UNL     1     140.303  76.520 221.557 -0.27 -0.04    +0.136 A  
DOCKED: ATOM      2  N   UNL     1     140.050  75.232 221.915 -0.55 +0.04    -0.230 NA 
DOCKED: ATOM      3  C   UNL     1     140.874  74.215 221.581 -0.28 -0.01    +0.078 A  
DOCKED: ATOM      4  C   UNL     1     140.567  72.907 221.975 -0.30 -0.00    +0.029 A  
DOCKED: ATOM      5  C   UNL     1     141.414  71.853 221.624 -0.23 -0.00    +0.002 A  
DOCKED: ATOM      6  C   UNL     1     142.571  72.104 220.880 -0.26 -0.00    +0.001 A  
DOCKED: ATOM      7  C   UNL     1     142.881  73.408 220.482 -0.29 -0.00    +0.016 A  
DOCKED: ATOM      8  C   UNL     1     142.030  74.475 220.832 -0.27 -0.02    +0.066 A  
DOCKED: ATOM      9  C   UNL     1     142.297  75.804 220.459 -0.12 -0.14    +0.261 A  
DOCKED: ATOM     10  O   UNL     1     143.328  76.053 219.777 -0.31 +0.17    -0.269 OA 
DOCKED: ATOM     11  N   UNL     1     141.445  76.822 220.836 -0.15 +0.15    -0.292 N  
DOCKED: ENDROOT
DOCKED: BRANCH   1  12
DOCKED: ATOM     12  C   UNL     1     139.311  77.553 221.957 -0.27 -0.01    +0.048 C  
DOCKED: BRANCH  12  13
DOCKED: ATOM     13  C   UNL     1     139.440  78.248 223.095 -0.24 -0.00    +0.013 C  
DOCKED: BRANCH  13  14
DOCKED: ATOM     14  C   UNL     1     140.438  79.327 223.270 -0.46 +0.00    -0.007 A  
DOCKED: ATOM     15  C   UNL     1     140.097  80.641 222.916 -0.32 -0.02    +0.119 A  
DOCKED: ATOM     16  C   UNL     1     141.743  79.073 223.729 -0.61 -0.00    +0.011 A  
DOCKED: ATOM     17  N   UNL     1     141.007  81.645 223.040 -0.22 +0.03    -0.264 NA 
DOCKED: ATOM     18  C   UNL     1     142.662  80.118 223.837 -0.61 -0.01    +0.021 A  
DOCKED: ATOM     19  C   UNL     1     142.269  81.413 223.489 -0.46 -0.02    +0.111 A  
DOCKED: ENDBRANCH  13  14
DOCKED: ENDBRANCH  12  13
DOCKED: ENDBRANCH   1  12
DOCKED: BRANCH  11  20
DOCKED: ATOM     20  C   UNL     1     141.790  78.226 220.495 -0.25 -0.08    +0.131 C  
DOCKED: BRANCH  20  21
DOCKED: ATOM     21  C   UNL     1     141.362  78.595 219.050 -0.22 -0.00    +0.009 C  
DOCKED: ATOM     22  C   UNL     1     140.118  79.512 219.025 -0.10 -0.00    +0.005 C  
DOCKED: ATOM     23  C   UNL     1     142.549  79.199 218.241 -0.32 -0.00    +0.005 C  
DOCKED: ATOM     24  C   UNL     1     140.413  80.950 219.494 -0.16 -0.00    +0.000 C  
DOCKED: ATOM     25  C   UNL     1     142.381  80.689 217.897 -0.33 -0.00    +0.000 C  
DOCKED: ATOM     26  C   UNL     1     141.809  81.462 219.087 -0.26 -0.00    +0.000 C  
DOCKED: ENDBRANCH  20  21
DOCKED: ENDBRANCH  11  20
DOCKED: TORSDOF 5
DOCKED: TER
DOCKED: ENDMDL
________________________________________________________________________________


    FINAL DOCKED STATE:
    ________________________


Run:   7 / 20
Time taken for this run:   0.033s

DOCKED: MODEL        7
DOCKED: USER    Run = 7
DOCKED: USER
DOCKED: USER    Estimated Free Energy of Binding    =  -6.92 kcal/mol  [=(1)+(2)+(3)-(4)]
DOCKED: USER
DOCKED: USER    (1) Final Intermolecular Energy     =  -8.41 kcal/mol
DOCKED: USER        vdW + Hbond + desolv Energy     =  -8.37 kcal/mol
DOCKED: USER        Electrostatic Energy            =  -0.05 kcal/mol
DOCKED: USER        Moving Ligand-Fixed Receptor    =  -8.41 kcal/mol
DOCKED: USER        Moving Ligand-Moving Receptor   =  +0.00 kcal/mol
DOCKED: USER    (2) Final Total Internal Energy     =  -1.39 kcal/mol
DOCKED: USER    (3) Torsional Free Energy           =  +1.49 kcal/mol
DOCKED: USER    (4) Unbound System's Energy         =  -1.39 kcal/mol
DOCKED: USER
DOCKED: USER
DOCKED: REMARK SMILES O=c1c2ccccc2nc(/C=C/c2cccnc2)n1CC1CCCCC1
DOCKED: REMARK SMILES IDX 10 1 9 2 8 3 7 4 6 5 5 6 4 7 3 8 2 9 1 10 19 11 11 12 12 13
DOCKED: REMARK SMILES IDX 13 14 18 15 14 16 17 17 15 18 16 19 20 20 21 21 22 22 26 23
DOCKED: REMARK SMILES IDX 23 24 25 25 24 26
DOCKED: REMARK H PARENT
DOCKED: USER                              x       y       z     vdW  Elec       q    Type
DOCKED: USER                           _______ _______ _______ _____ _____    ______ ____
DOCKED: ROOT
DOCKED: ATOM      1  C   UNL     1     139.798  70.815 223.502 -0.27 -0.02    +0.136 A  
DOCKED: ATOM      2  N   UNL     1     140.336  71.561 224.505 -0.31 +0.04    -0.230 NA 
DOCKED: ATOM      3  C   UNL     1     140.511  71.074 225.752 -0.53 -0.01    +0.078 A  
DOCKED: ATOM      4  C   UNL     1     141.069  71.884 226.749 -0.74 -0.00    +0.029 A  
DOCKED: ATOM      5  C   UNL     1     141.243  71.383 228.042 -0.71 -0.00    +0.002 A  
DOCKED: ATOM      6  C   UNL     1     140.861  70.072 228.341 -0.57 -0.00    +0.001 A  
DOCKED: ATOM      7  C   UNL     1     140.301  69.260 227.350 -0.60 -0.00    +0.016 A  
DOCKED: ATOM      8  C   UNL     1     140.121  69.759 226.045 -0.45 -0.01    +0.066 A  
DOCKED: ATOM      9  C   UNL     1     139.566  68.984 225.013 -0.24 -0.04    +0.261 A  
DOCKED: ATOM     10  O   UNL     1     139.202  67.802 225.262 -0.83 +0.01    -0.269 OA 
DOCKED: ATOM     11  N   UNL     1     139.422  69.506 223.744 -0.11 +0.05    -0.292 N  
DOCKED: ENDROOT
DOCKED: BRANCH   1  12
DOCKED: ATOM     12  C   UNL     1     139.630  71.467 222.175 -0.23 -0.01    +0.048 C  
DOCKED: BRANCH  12  13
DOCKED: ATOM     13  C   UNL     1     140.042  72.722 221.951 -0.29 -0.00    +0.013 C  
DOCKED: BRANCH  13  14
DOCKED: ATOM     14  C   UNL     1     141.355  73.043 221.349 -0.27 +0.00    -0.007 A  
DOCKED: ATOM     15  C   UNL     1     142.300  72.020 221.178 -0.17 -0.01    +0.119 A  
DOCKED: ATOM     16  C   UNL     1     141.714  74.355 220.991 -0.28 -0.00    +0.011 A  
DOCKED: ATOM     17  N   UNL     1     143.524  72.295 220.654 -0.15 +0.04    -0.264 NA 
DOCKED: ATOM     18  C   UNL     1     142.981  74.613 220.466 -0.34 -0.01    +0.021 A  
DOCKED: ATOM     19  C   UNL     1     143.880  73.558 220.298 -0.32 -0.03    +0.111 A  
DOCKED: ENDBRANCH  13  14
DOCKED: ENDBRANCH  12  13
DOCKED: ENDBRANCH   1  12
DOCKED: BRANCH  11  20
DOCKED: ATOM     20  C   UNL     1     138.903  68.642 222.653 -0.17 -0.02    +0.131 C  
DOCKED: BRANCH  20  21
DOCKED: ATOM     21  C   UNL     1     137.384  68.361 222.807 -0.17 -0.00    +0.009 C  
DOCKED: ATOM     22  C   UNL     1     136.733  69.250 223.890 -0.22 -0.00    +0.005 C  
DOCKED: ATOM     23  C   UNL     1     136.644  68.467 221.440 -0.09 -0.00    +0.005 C  
DOCKED: ATOM     24  C   UNL     1     136.597  70.725 223.464 -0.19 -0.00    +0.000 C  
DOCKED: ATOM     25  C   UNL     1     135.677  69.659 221.341 -0.04 -0.00    +0.000 C  
DOCKED: ATOM     26  C   UNL     1     136.291  70.913 221.965 -0.07 -0.00    +0.000 C  
DOCKED: ENDBRANCH  20  21
DOCKED: ENDBRANCH  11  20
DOCKED: TORSDOF 5
DOCKED: TER
DOCKED: ENDMDL
________________________________________________________________________________


    FINAL DOCKED STATE:
    ________________________


Run:   8 / 20
Time taken for this run:   0.033s

DOCKED: MODEL        8
DOCKED: USER    Run = 8
DOCKED: USER
DOCKED: USER    Estimated Free Energy of Binding    =  -7.05 kcal/mol  [=(1)+(2)+(3)-(4)]
DOCKED: USER
DOCKED: USER    (1) Final Intermolecular Energy     =  -8.54 kcal/mol
DOCKED: USER        vdW + Hbond + desolv Energy     =  -8.48 kcal/mol
DOCKED: USER        Electrostatic Energy            =  -0.06 kcal/mol
DOCKED: USER        Moving Ligand-Fixed Receptor    =  -8.54 kcal/mol
DOCKED: USER        Moving Ligand-Moving Receptor   =  +0.00 kcal/mol
DOCKED: USER    (2) Final Total Internal Energy     =  -1.39 kcal/mol
DOCKED: USER    (3) Torsional Free Energy           =  +1.49 kcal/mol
DOCKED: USER    (4) Unbound System's Energy         =  -1.39 kcal/mol
DOCKED: USER
DOCKED: USER
DOCKED: REMARK SMILES O=c1c2ccccc2nc(/C=C/c2cccnc2)n1CC1CCCCC1
DOCKED: REMARK SMILES IDX 10 1 9 2 8 3 7 4 6 5 5 6 4 7 3 8 2 9 1 10 19 11 11 12 12 13
DOCKED: REMARK SMILES IDX 13 14 18 15 14 16 17 17 15 18 16 19 20 20 21 21 22 22 26 23
DOCKED: REMARK SMILES IDX 23 24 25 25 24 26
DOCKED: REMARK H PARENT
DOCKED: USER                              x       y       z     vdW  Elec       q    Type
DOCKED: USER                           _______ _______ _______ _____ _____    ______ ____
DOCKED: ROOT
DOCKED: ATOM      1  C   UNL     1     139.678  70.780 223.529 -0.27 -0.02    +0.136 A  
DOCKED: ATOM      2  N   UNL     1     140.226  71.544 224.513 -0.30 +0.04    -0.230 NA 
DOCKED: ATOM      3  C   UNL     1     140.444  71.069 225.758 -0.52 -0.01    +0.078 A  
DOCKED: ATOM      4  C   UNL     1     141.011  71.897 226.734 -0.72 -0.00    +0.029 A  
DOCKED: ATOM      5  C   UNL     1     141.230  71.409 228.025 -0.72 -0.00    +0.002 A  
DOCKED: ATOM      6  C   UNL     1     140.884  70.092 228.342 -0.57 -0.00    +0.001 A  
DOCKED: ATOM      7  C   UNL     1     140.316  69.261 227.372 -0.60 -0.00    +0.016 A  
DOCKED: ATOM      8  C   UNL     1     140.091  69.747 226.069 -0.45 -0.01    +0.066 A  
DOCKED: ATOM      9  C   UNL     1     139.525  68.954 225.056 -0.25 -0.04    +0.261 A  
DOCKED: ATOM     10  O   UNL     1     139.194  67.766 225.323 -0.86 +0.00    -0.269 OA 
DOCKED: ATOM     11  N   UNL     1     139.336  69.465 223.789 -0.12 +0.05    -0.292 N  
DOCKED: ENDROOT
DOCKED: BRANCH   1  12
DOCKED: ATOM     12  C   UNL     1     139.460  71.419 222.203 -0.22 -0.01    +0.048 C  
DOCKED: BRANCH  12  13
DOCKED: ATOM     13  C   UNL     1     140.474  71.938 221.498 -0.23 -0.00    +0.013 C  
DOCKED: BRANCH  13  14
DOCKED: ATOM     14  C   UNL     1     140.754  73.390 221.442 -0.28 +0.00    -0.007 A  
DOCKED: ATOM     15  C   UNL     1     139.812  74.292 221.961 -0.23 -0.02    +0.119 A  
DOCKED: ATOM     16  C   UNL     1     141.912  73.907 220.833 -0.28 -0.00    +0.011 A  
DOCKED: ATOM     17  N   UNL     1     140.034  75.632 221.895 -0.38 +0.05    -0.264 NA 
DOCKED: ATOM     18  C   UNL     1     142.111  75.287 220.768 -0.27 -0.01    +0.021 A  
DOCKED: ATOM     19  C   UNL     1     141.153  76.143 221.315 -0.28 -0.04    +0.111 A  
DOCKED: ENDBRANCH  13  14
DOCKED: ENDBRANCH  12  13
DOCKED: ENDBRANCH   1  12
DOCKED: BRANCH  11  20
DOCKED: ATOM     20  C   UNL     1     138.808  68.582 222.718 -0.19 -0.02    +0.131 C  
DOCKED: BRANCH  20  21
DOCKED: ATOM     21  C   UNL     1     137.288  68.313 222.884 -0.13 -0.00    +0.009 C  
DOCKED: ATOM     22  C   UNL     1     136.637  69.261 223.916 -0.22 -0.00    +0.005 C  
DOCKED: ATOM     23  C   UNL     1     136.550  68.348 221.512 -0.10 -0.00    +0.005 C  
DOCKED: ATOM     24  C   UNL     1     136.505  70.711 223.412 -0.18 -0.00    +0.000 C  
DOCKED: ATOM     25  C   UNL     1     135.586  69.535 221.347 -0.04 -0.00    +0.000 C  
DOCKED: ATOM     26  C   UNL     1     136.203  70.819 221.904 -0.06 -0.00    +0.000 C  
DOCKED: ENDBRANCH  20  21
DOCKED: ENDBRANCH  11  20
DOCKED: TORSDOF 5
DOCKED: TER
DOCKED: ENDMDL
________________________________________________________________________________


    FINAL DOCKED STATE:
    ________________________


Run:   9 / 20
Time taken for this run:   0.033s

DOCKED: MODEL        9
DOCKED: USER    Run = 9
DOCKED: USER
DOCKED: USER    Estimated Free Energy of Binding    =  -6.96 kcal/mol  [=(1)+(2)+(3)-(4)]
DOCKED: USER
DOCKED: USER    (1) Final Intermolecular Energy     =  -8.45 kcal/mol
DOCKED: USER        vdW + Hbond + desolv Energy     =  -8.50 kcal/mol
DOCKED: USER        Electrostatic Energy            =  +0.04 kcal/mol
DOCKED: USER        Moving Ligand-Fixed Receptor    =  -8.45 kcal/mol
DOCKED: USER        Moving Ligand-Moving Receptor   =  +0.00 kcal/mol
DOCKED: USER    (2) Final Total Internal Energy     =  -1.16 kcal/mol
DOCKED: USER    (3) Torsional Free Energy           =  +1.49 kcal/mol
DOCKED: USER    (4) Unbound System's Energy         =  -1.16 kcal/mol
DOCKED: USER
DOCKED: USER
DOCKED: REMARK SMILES O=c1c2ccccc2nc(/C=C/c2cccnc2)n1CC1CCCCC1
DOCKED: REMARK SMILES IDX 10 1 9 2 8 3 7 4 6 5 5 6 4 7 3 8 2 9 1 10 19 11 11 12 12 13
DOCKED: REMARK SMILES IDX 13 14 18 15 14 16 17 17 15 18 16 19 20 20 21 21 22 22 26 23
DOCKED: REMARK SMILES IDX 23 24 25 25 24 26
DOCKED: REMARK H PARENT
DOCKED: USER                              x       y       z     vdW  Elec       q    Type
DOCKED: USER                           _______ _______ _______ _____ _____    ______ ____
DOCKED: ROOT
DOCKED: ATOM      1  C   UNL     1     139.077  76.029 222.400 -0.27 -0.03    +0.136 A  
DOCKED: ATOM      2  N   UNL     1     139.421  74.716 222.306 -0.62 +0.04    -0.230 NA 
DOCKED: ATOM      3  C   UNL     1     140.560  74.310 221.703 -0.25 -0.01    +0.078 A  
DOCKED: ATOM      4  C   UNL     1     140.867  72.946 221.633 -0.28 -0.00    +0.029 A  
DOCKED: ATOM      5  C   UNL     1     142.041  72.524 221.003 -0.25 -0.00    +0.002 A  
DOCKED: ATOM      6  C   UNL     1     142.910  73.465 220.442 -0.30 -0.00    +0.001 A  
DOCKED: ATOM      7  C   UNL     1     142.607  74.828 220.508 -0.31 -0.01    +0.016 A  
DOCKED: ATOM      8  C   UNL     1     141.425  75.260 221.140 -0.30 -0.02    +0.066 A  
DOCKED: ATOM      9  C   UNL     1     141.074  76.617 221.235 -0.21 -0.11    +0.261 A  
DOCKED: ATOM     10  O   UNL     1     141.837  77.484 220.726 -0.21 +0.17    -0.269 OA 
DOCKED: ATOM     11  N   UNL     1     139.914  76.999 221.877 -0.17 +0.08    -0.292 N  
DOCKED: ENDROOT
DOCKED: BRANCH   1  12
DOCKED: ATOM     12  C   UNL     1     137.786  76.355 223.063 -0.20 -0.01    +0.048 C  
DOCKED: BRANCH  12  13
DOCKED: ATOM     13  C   UNL     1     136.653  75.711 222.751 -0.24 -0.00    +0.013 C  
DOCKED: BRANCH  13  14
DOCKED: ATOM     14  C   UNL     1     135.833  74.995 223.752 -0.27 +0.00    -0.007 A  
DOCKED: ATOM     15  C   UNL     1     135.430  75.667 224.917 -0.26 -0.02    +0.119 A  
DOCKED: ATOM     16  C   UNL     1     135.485  73.640 223.606 -0.21 -0.00    +0.011 A  
DOCKED: ATOM     17  N   UNL     1     134.700  75.021 225.866 -0.41 -0.00    -0.264 NA 
DOCKED: ATOM     18  C   UNL     1     134.745  72.997 224.600 -0.24 -0.00    +0.021 A  
DOCKED: ATOM     19  C   UNL     1     134.352  73.714 225.732 -0.26 +0.00    +0.111 A  
DOCKED: ENDBRANCH  13  14
DOCKED: ENDBRANCH  12  13
DOCKED: ENDBRANCH   1  12
DOCKED: BRANCH  11  20
DOCKED: ATOM     20  C   UNL     1     139.606  78.443 222.031 -0.23 -0.03    +0.131 C  
DOCKED: BRANCH  20  21
DOCKED: ATOM     21  C   UNL     1     140.117  79.005 223.385 -0.42 -0.00    +0.009 C  
DOCKED: ATOM     22  C   UNL     1     141.591  78.626 223.655 -0.57 -0.00    +0.005 C  
DOCKED: ATOM     23  C   UNL     1     139.881  80.542 223.490 -0.44 -0.00    +0.005 C  
DOCKED: ATOM     24  C   UNL     1     142.589  79.387 222.761 -0.59 -0.00    +0.000 C  
DOCKED: ATOM     25  C   UNL     1     141.172  81.378 223.481 -0.41 -0.00    +0.000 C  
DOCKED: ATOM     26  C   UNL     1     142.166  80.837 222.452 -0.56 -0.00    +0.000 C  
DOCKED: ENDBRANCH  20  21
DOCKED: ENDBRANCH  11  20
DOCKED: TORSDOF 5
DOCKED: TER
DOCKED: ENDMDL
________________________________________________________________________________


    FINAL DOCKED STATE:
    ________________________


Run:   10 / 20
Time taken for this run:   0.033s

DOCKED: MODEL        10
DOCKED: USER    Run = 10
DOCKED: USER
DOCKED: USER    Estimated Free Energy of Binding    =  -7.09 kcal/mol  [=(1)+(2)+(3)-(4)]
DOCKED: USER
DOCKED: USER    (1) Final Intermolecular Energy     =  -8.58 kcal/mol
DOCKED: USER        vdW + Hbond + desolv Energy     =  -8.52 kcal/mol
DOCKED: USER        Electrostatic Energy            =  -0.07 kcal/mol
DOCKED: USER        Moving Ligand-Fixed Receptor    =  -8.58 kcal/mol
DOCKED: USER        Moving Ligand-Moving Receptor   =  +0.00 kcal/mol
DOCKED: USER    (2) Final Total Internal Energy     =  -1.42 kcal/mol
DOCKED: USER    (3) Torsional Free Energy           =  +1.49 kcal/mol
DOCKED: USER    (4) Unbound System's Energy         =  -1.42 kcal/mol
DOCKED: USER
DOCKED: USER
DOCKED: REMARK SMILES O=c1c2ccccc2nc(/C=C/c2cccnc2)n1CC1CCCCC1
DOCKED: REMARK SMILES IDX 10 1 9 2 8 3 7 4 6 5 5 6 4 7 3 8 2 9 1 10 19 11 11 12 12 13
DOCKED: REMARK SMILES IDX 13 14 18 15 14 16 17 17 15 18 16 19 20 20 21 21 22 22 26 23
DOCKED: REMARK SMILES IDX 23 24 25 25 24 26
DOCKED: REMARK H PARENT
DOCKED: USER                              x       y       z     vdW  Elec       q    Type
DOCKED: USER                           _______ _______ _______ _____ _____    ______ ____
DOCKED: ROOT
DOCKED: ATOM      1  C   UNL     1     139.756  70.594 223.447 -0.24 -0.02    +0.136 A  
DOCKED: ATOM      2  N   UNL     1     140.291  71.402 224.402 -0.30 +0.04    -0.230 NA 
DOCKED: ATOM      3  C   UNL     1     140.430  71.008 225.686 -0.52 -0.01    +0.078 A  
DOCKED: ATOM      4  C   UNL     1     140.987  71.879 226.630 -0.71 -0.00    +0.029 A  
DOCKED: ATOM      5  C   UNL     1     141.125  71.474 227.961 -0.79 -0.00    +0.002 A  
DOCKED: ATOM      6  C   UNL     1     140.707  70.198 228.350 -0.56 -0.00    +0.001 A  
DOCKED: ATOM      7  C   UNL     1     140.149  69.325 227.411 -0.59 -0.00    +0.016 A  
DOCKED: ATOM      8  C   UNL     1     140.006  69.726 226.069 -0.45 -0.01    +0.066 A  
DOCKED: ATOM      9  C   UNL     1     139.453  68.888 225.086 -0.25 -0.04    +0.261 A  
DOCKED: ATOM     10  O   UNL     1     139.059  67.736 225.416 -0.84 -0.01    -0.269 OA 
DOCKED: ATOM     11  N   UNL     1     139.346  69.315 223.779 -0.12 +0.05    -0.292 N  
DOCKED: ENDROOT
DOCKED: BRANCH   1  12
DOCKED: ATOM     12  C   UNL     1     139.628  71.147 222.072 -0.21 -0.01    +0.048 C  
DOCKED: BRANCH  12  13
DOCKED: ATOM     13  C   UNL     1     140.657  71.744 221.455 -0.22 -0.00    +0.013 C  
DOCKED: BRANCH  13  14
DOCKED: ATOM     14  C   UNL     1     140.846  73.211 221.444 -0.28 +0.00    -0.007 A  
DOCKED: ATOM     15  C   UNL     1     139.851  74.036 221.991 -0.21 -0.01    +0.119 A  
DOCKED: ATOM     16  C   UNL     1     141.967  73.817 220.850 -0.28 -0.00    +0.011 A  
DOCKED: ATOM     17  N   UNL     1     139.988  75.389 221.965 -0.50 +0.04    -0.264 NA 
DOCKED: ATOM     18  C   UNL     1     142.080  75.209 220.827 -0.28 -0.01    +0.021 A  
DOCKED: ATOM     19  C   UNL     1     141.071  75.986 221.401 -0.30 -0.04    +0.111 A  
DOCKED: ENDBRANCH  13  14
DOCKED: ENDBRANCH  12  13
DOCKED: ENDBRANCH   1  12
DOCKED: BRANCH  11  20
DOCKED: ATOM     20  C   UNL     1     138.830  68.381 222.746 -0.19 -0.02    +0.131 C  
DOCKED: BRANCH  20  21
DOCKED: ATOM     21  C   UNL     1     137.293  68.190 222.851 -0.12 -0.00    +0.009 C  
DOCKED: ATOM     22  C   UNL     1     136.644  69.201 223.825 -0.21 -0.00    +0.005 C  
DOCKED: ATOM     23  C   UNL     1     136.618  68.216 221.447 -0.10 -0.00    +0.005 C  
DOCKED: ATOM     24  C   UNL     1     136.605  70.639 223.272 -0.17 -0.00    +0.000 C  
DOCKED: ATOM     25  C   UNL     1     135.721  69.442 221.204 -0.04 -0.00    +0.000 C  
DOCKED: ATOM     26  C   UNL     1     136.375  70.713 221.749 -0.06 -0.00    +0.000 C  
DOCKED: ENDBRANCH  20  21
DOCKED: ENDBRANCH  11  20
DOCKED: TORSDOF 5
DOCKED: TER
DOCKED: ENDMDL
________________________________________________________________________________


    FINAL DOCKED STATE:
    ________________________


Run:   11 / 20
Time taken for this run:   0.033s

DOCKED: MODEL        11
DOCKED: USER    Run = 11
DOCKED: USER
DOCKED: USER    Estimated Free Energy of Binding    =  -6.36 kcal/mol  [=(1)+(2)+(3)-(4)]
DOCKED: USER
DOCKED: USER    (1) Final Intermolecular Energy     =  -7.85 kcal/mol
DOCKED: USER        vdW + Hbond + desolv Energy     =  -7.88 kcal/mol
DOCKED: USER        Electrostatic Energy            =  +0.03 kcal/mol
DOCKED: USER        Moving Ligand-Fixed Receptor    =  -7.85 kcal/mol
DOCKED: USER        Moving Ligand-Moving Receptor   =  +0.00 kcal/mol
DOCKED: USER    (2) Final Total Internal Energy     =  -1.84 kcal/mol
DOCKED: USER    (3) Torsional Free Energy           =  +1.49 kcal/mol
DOCKED: USER    (4) Unbound System's Energy         =  -1.84 kcal/mol
DOCKED: USER
DOCKED: USER
DOCKED: REMARK SMILES O=c1c2ccccc2nc(/C=C/c2cccnc2)n1CC1CCCCC1
DOCKED: REMARK SMILES IDX 10 1 9 2 8 3 7 4 6 5 5 6 4 7 3 8 2 9 1 10 19 11 11 12 12 13
DOCKED: REMARK SMILES IDX 13 14 18 15 14 16 17 17 15 18 16 19 20 20 21 21 22 22 26 23
DOCKED: REMARK SMILES IDX 23 24 25 25 24 26
DOCKED: REMARK H PARENT
DOCKED: USER                              x       y       z     vdW  Elec       q    Type
DOCKED: USER                           _______ _______ _______ _____ _____    ______ ____
DOCKED: ROOT
DOCKED: ATOM      1  C   UNL     1     140.308  76.501 221.545 -0.27 -0.04    +0.136 A  
DOCKED: ATOM      2  N   UNL     1     140.050  75.215 221.906 -0.55 +0.04    -0.230 NA 
DOCKED: ATOM      3  C   UNL     1     140.871  74.194 221.577 -0.28 -0.01    +0.078 A  
DOCKED: ATOM      4  C   UNL     1     140.560  72.889 221.974 -0.30 -0.00    +0.029 A  
DOCKED: ATOM      5  C   UNL     1     141.404  71.831 221.628 -0.23 -0.00    +0.002 A  
DOCKED: ATOM      6  C   UNL     1     142.563  72.076 220.884 -0.26 -0.00    +0.001 A  
DOCKED: ATOM      7  C   UNL     1     142.878  73.378 220.484 -0.29 -0.00    +0.016 A  
DOCKED: ATOM      8  C   UNL     1     142.030  74.449 220.828 -0.27 -0.02    +0.066 A  
DOCKED: ATOM      9  C   UNL     1     142.301  75.775 220.453 -0.12 -0.14    +0.261 A  
DOCKED: ATOM     10  O   UNL     1     143.335  76.020 219.772 -0.31 +0.17    -0.269 OA 
DOCKED: ATOM     11  N   UNL     1     141.452  76.797 220.825 -0.15 +0.15    -0.292 N  
DOCKED: ENDROOT
DOCKED: BRANCH   1  12
DOCKED: ATOM     12  C   UNL     1     139.319  77.538 221.941 -0.27 -0.01    +0.048 C  
DOCKED: BRANCH  12  13
DOCKED: ATOM     13  C   UNL     1     139.445  78.232 223.081 -0.24 -0.00    +0.013 C  
DOCKED: BRANCH  13  14
DOCKED: ATOM     14  C   UNL     1     140.429  79.322 223.254 -0.46 +0.00    -0.007 A  
DOCKED: ATOM     15  C   UNL     1     140.074  80.631 222.894 -0.31 -0.02    +0.119 A  
DOCKED: ATOM     16  C   UNL     1     141.736  79.085 223.717 -0.61 -0.00    +0.011 A  
DOCKED: ATOM     17  N   UNL     1     140.972  81.646 223.017 -0.22 +0.03    -0.264 NA 
DOCKED: ATOM     18  C   UNL     1     142.642  80.142 223.823 -0.63 -0.01    +0.021 A  
DOCKED: ATOM     19  C   UNL     1     142.236  81.430 223.470 -0.46 -0.02    +0.111 A  
DOCKED: ENDBRANCH  13  14
DOCKED: ENDBRANCH  12  13
DOCKED: ENDBRANCH   1  12
DOCKED: BRANCH  11  20
DOCKED: ATOM     20  C   UNL     1     141.803  78.199 220.482 -0.25 -0.08    +0.131 C  
DOCKED: BRANCH  20  21
DOCKED: ATOM     21  C   UNL     1     141.368  78.569 219.038 -0.22 -0.00    +0.009 C  
DOCKED: ATOM     22  C   UNL     1     140.117  79.477 219.020 -0.10 -0.00    +0.005 C  
DOCKED: ATOM     23  C   UNL     1     142.548  79.184 218.228 -0.33 -0.00    +0.005 C  
DOCKED: ATOM     24  C   UNL     1     140.403  80.916 219.492 -0.16 -0.00    +0.000 C  
DOCKED: ATOM     25  C   UNL     1     142.368  80.674 217.889 -0.33 -0.00    +0.000 C  
DOCKED: ATOM     26  C   UNL     1     141.794  81.439 219.082 -0.26 -0.00    +0.000 C  
DOCKED: ENDBRANCH  20  21
DOCKED: ENDBRANCH  11  20
DOCKED: TORSDOF 5
DOCKED: TER
DOCKED: ENDMDL
________________________________________________________________________________


    FINAL DOCKED STATE:
    ________________________


Run:   12 / 20
Time taken for this run:   0.033s

DOCKED: MODEL        12
DOCKED: USER    Run = 12
DOCKED: USER
DOCKED: USER    Estimated Free Energy of Binding    =  -7.11 kcal/mol  [=(1)+(2)+(3)-(4)]
DOCKED: USER
DOCKED: USER    (1) Final Intermolecular Energy     =  -8.60 kcal/mol
DOCKED: USER        vdW + Hbond + desolv Energy     =  -8.53 kcal/mol
DOCKED: USER        Electrostatic Energy            =  -0.07 kcal/mol
DOCKED: USER        Moving Ligand-Fixed Receptor    =  -8.60 kcal/mol
DOCKED: USER        Moving Ligand-Moving Receptor   =  +0.00 kcal/mol
DOCKED: USER    (2) Final Total Internal Energy     =  -1.44 kcal/mol
DOCKED: USER    (3) Torsional Free Energy           =  +1.49 kcal/mol
DOCKED: USER    (4) Unbound System's Energy         =  -1.44 kcal/mol
DOCKED: USER
DOCKED: USER
DOCKED: REMARK SMILES O=c1c2ccccc2nc(/C=C/c2cccnc2)n1CC1CCCCC1
DOCKED: REMARK SMILES IDX 10 1 9 2 8 3 7 4 6 5 5 6 4 7 3 8 2 9 1 10 19 11 11 12 12 13
DOCKED: REMARK SMILES IDX 13 14 18 15 14 16 17 17 15 18 16 19 20 20 21 21 22 22 26 23
DOCKED: REMARK SMILES IDX 23 24 25 25 24 26
DOCKED: REMARK H PARENT
DOCKED: USER                              x       y       z     vdW  Elec       q    Type
DOCKED: USER                           _______ _______ _______ _____ _____    ______ ____
DOCKED: ROOT
DOCKED: ATOM      1  C   UNL     1     139.837  70.452 223.381 -0.21 -0.02    +0.136 A  
DOCKED: ATOM      2  N   UNL     1     140.379  71.295 224.302 -0.29 +0.03    -0.230 NA 
DOCKED: ATOM      3  C   UNL     1     140.433  70.989 225.617 -0.51 -0.01    +0.078 A  
DOCKED: ATOM      4  C   UNL     1     141.002  71.892 226.523 -0.69 -0.00    +0.029 A  
DOCKED: ATOM      5  C   UNL     1     141.051  71.580 227.884 -0.82 -0.00    +0.002 A  
DOCKED: ATOM      6  C   UNL     1     140.533  70.365 228.342 -0.57 -0.00    +0.001 A  
DOCKED: ATOM      7  C   UNL     1     139.962  69.461 227.442 -0.59 -0.00    +0.016 A  
DOCKED: ATOM      8  C   UNL     1     139.908  69.769 226.068 -0.44 -0.01    +0.066 A  
DOCKED: ATOM      9  C   UNL     1     139.347  68.895 225.121 -0.26 -0.04    +0.261 A  
DOCKED: ATOM     10  O   UNL     1     138.863  67.798 225.512 -0.78 -0.01    -0.269 OA 
DOCKED: ATOM     11  N   UNL     1     139.328  69.230 223.783 -0.11 +0.05    -0.292 N  
DOCKED: ENDROOT
DOCKED: BRANCH   1  12
DOCKED: ATOM     12  C   UNL     1     139.809  70.907 221.966 -0.19 -0.01    +0.048 C  
DOCKED: BRANCH  12  13
DOCKED: ATOM     13  C   UNL     1     140.838  71.570 221.420 -0.21 -0.00    +0.013 C  
DOCKED: BRANCH  13  14
DOCKED: ATOM     14  C   UNL     1     140.938  73.046 221.426 -0.28 +0.00    -0.007 A  
DOCKED: ATOM     15  C   UNL     1     139.895  73.803 221.980 -0.23 -0.01    +0.119 A  
DOCKED: ATOM     16  C   UNL     1     142.023  73.726 220.842 -0.28 -0.00    +0.011 A  
DOCKED: ATOM     17  N   UNL     1     139.950  75.162 221.971 -0.59 +0.04    -0.264 NA 
DOCKED: ATOM     18  C   UNL     1     142.051  75.121 220.836 -0.29 -0.01    +0.021 A  
DOCKED: ATOM     19  C   UNL     1     140.997  75.830 221.416 -0.30 -0.04    +0.111 A  
DOCKED: ENDBRANCH  13  14
DOCKED: ENDBRANCH  12  13
DOCKED: ENDBRANCH   1  12
DOCKED: BRANCH  11  20
DOCKED: ATOM     20  C   UNL     1     138.800  68.255 222.794 -0.20 -0.02    +0.131 C  
DOCKED: BRANCH  20  21
DOCKED: ATOM     21  C   UNL     1     137.250  68.187 222.818 -0.12 -0.00    +0.009 C  
DOCKED: ATOM     22  C   UNL     1     136.632  69.256 223.748 -0.21 -0.00    +0.005 C  
DOCKED: ATOM     23  C   UNL     1     136.654  68.249 221.379 -0.10 -0.00    +0.005 C  
DOCKED: ATOM     24  C   UNL     1     136.736  70.686 223.183 -0.17 -0.00    +0.000 C  
DOCKED: ATOM     25  C   UNL     1     135.872  69.539 221.079 -0.04 -0.00    +0.000 C  
DOCKED: ATOM     26  C   UNL     1     136.594  70.761 221.650 -0.06 -0.00    +0.000 C  
DOCKED: ENDBRANCH  20  21
DOCKED: ENDBRANCH  11  20
DOCKED: TORSDOF 5
DOCKED: TER
DOCKED: ENDMDL
________________________________________________________________________________


    FINAL DOCKED STATE:
    ________________________


Run:   13 / 20
Time taken for this run:   0.033s

DOCKED: MODEL        13
DOCKED: USER    Run = 13
DOCKED: USER
DOCKED: USER    Estimated Free Energy of Binding    =  -7.17 kcal/mol  [=(1)+(2)+(3)-(4)]
DOCKED: USER
DOCKED: USER    (1) Final Intermolecular Energy     =  -8.66 kcal/mol
DOCKED: USER        vdW + Hbond + desolv Energy     =  -8.61 kcal/mol
DOCKED: USER        Electrostatic Energy            =  -0.05 kcal/mol
DOCKED: USER        Moving Ligand-Fixed Receptor    =  -8.66 kcal/mol
DOCKED: USER        Moving Ligand-Moving Receptor   =  +0.00 kcal/mol
DOCKED: USER    (2) Final Total Internal Energy     =  -1.27 kcal/mol
DOCKED: USER    (3) Torsional Free Energy           =  +1.49 kcal/mol
DOCKED: USER    (4) Unbound System's Energy         =  -1.27 kcal/mol
DOCKED: USER
DOCKED: USER
DOCKED: REMARK SMILES O=c1c2ccccc2nc(/C=C/c2cccnc2)n1CC1CCCCC1
DOCKED: REMARK SMILES IDX 10 1 9 2 8 3 7 4 6 5 5 6 4 7 3 8 2 9 1 10 19 11 11 12 12 13
DOCKED: REMARK SMILES IDX 13 14 18 15 14 16 17 17 15 18 16 19 20 20 21 21 22 22 26 23
DOCKED: REMARK SMILES IDX 23 24 25 25 24 26
DOCKED: REMARK H PARENT
DOCKED: USER                              x       y       z     vdW  Elec       q    Type
DOCKED: USER                           _______ _______ _______ _____ _____    ______ ____
DOCKED: ROOT
DOCKED: ATOM      1  C   UNL     1     141.062  73.120 221.671 -0.23 -0.01    +0.136 A  
DOCKED: ATOM      2  N   UNL     1     140.558  74.254 222.228 -0.65 -0.01    -0.230 NA 
DOCKED: ATOM      3  C   UNL     1     140.837  75.483 221.740 -0.31 -0.02    +0.078 A  
DOCKED: ATOM      4  C   UNL     1     140.292  76.619 222.351 -0.39 -0.01    +0.029 A  
DOCKED: ATOM      5  C   UNL     1     140.586  77.891 221.852 -0.35 -0.00    +0.002 A  
DOCKED: ATOM      6  C   UNL     1     141.425  78.029 220.742 -0.31 -0.00    +0.001 A  
DOCKED: ATOM      7  C   UNL     1     141.973  76.898 220.130 -0.30 -0.01    +0.016 A  
DOCKED: ATOM      8  C   UNL     1     141.682  75.613 220.628 -0.26 -0.03    +0.066 A  
DOCKED: ATOM      9  C   UNL     1     142.205  74.445 220.050 -0.15 -0.08    +0.261 A  
DOCKED: ATOM     10  O   UNL     1     142.974  74.545 219.054 -0.12 +0.09    -0.269 OA 
DOCKED: ATOM     11  N   UNL     1     141.882  73.204 220.560 -0.10 +0.05    -0.292 N  
DOCKED: ENDROOT
DOCKED: BRANCH   1  12
DOCKED: ATOM     12  C   UNL     1     140.707  71.824 222.310 -0.28 -0.00    +0.048 C  
DOCKED: BRANCH  12  13
DOCKED: ATOM     13  C   UNL     1     139.854  71.760 223.342 -0.34 -0.00    +0.013 C  
DOCKED: BRANCH  13  14
DOCKED: ATOM     14  C   UNL     1     140.201  71.128 224.634 -0.48 +0.00    -0.007 A  
DOCKED: ATOM     15  C   UNL     1     139.882  69.778 224.846 -0.32 -0.02    +0.119 A  
DOCKED: ATOM     16  C   UNL     1     140.791  71.851 225.686 -0.50 -0.00    +0.011 A  
DOCKED: ATOM     17  N   UNL     1     140.165  69.183 226.036 -0.25 +0.05    -0.264 NA 
DOCKED: ATOM     18  C   UNL     1     141.060  71.220 226.902 -0.69 -0.00    +0.021 A  
DOCKED: ATOM     19  C   UNL     1     140.742  69.870 227.058 -0.49 -0.02    +0.111 A  
DOCKED: ENDBRANCH  13  14
DOCKED: ENDBRANCH  12  13
DOCKED: ENDBRANCH   1  12
DOCKED: BRANCH  11  20
DOCKED: ATOM     20  C   UNL     1     142.386  71.982 219.882 -0.13 -0.02    +0.131 C  
DOCKED: BRANCH  20  21
DOCKED: ATOM     21  C   UNL     1     143.748  71.517 220.463 -0.29 -0.00    +0.009 C  
DOCKED: ATOM     22  C   UNL     1     144.589  70.737 219.426 -0.25 +0.00    +0.005 C  
DOCKED: ATOM     23  C   UNL     1     144.541  72.707 221.081 -0.30 -0.00    +0.005 C  
DOCKED: ATOM     24  C   UNL     1     145.168  71.634 218.315 -0.22 +0.00    +0.000 C  
DOCKED: ATOM     25  C   UNL     1     145.818  73.080 220.309 -0.59 +0.00    +0.000 C  
DOCKED: ATOM     26  C   UNL     1     145.574  73.040 218.800 -0.30 +0.00    +0.000 C  
DOCKED: ENDBRANCH  20  21
DOCKED: ENDBRANCH  11  20
DOCKED: TORSDOF 5
DOCKED: TER
DOCKED: ENDMDL
________________________________________________________________________________


    FINAL DOCKED STATE:
    ________________________


Run:   14 / 20
Time taken for this run:   0.033s

DOCKED: MODEL        14
DOCKED: USER    Run = 14
DOCKED: USER
DOCKED: USER    Estimated Free Energy of Binding    =  -6.81 kcal/mol  [=(1)+(2)+(3)-(4)]
DOCKED: USER
DOCKED: USER    (1) Final Intermolecular Energy     =  -8.30 kcal/mol
DOCKED: USER        vdW + Hbond + desolv Energy     =  -8.23 kcal/mol
DOCKED: USER        Electrostatic Energy            =  -0.07 kcal/mol
DOCKED: USER        Moving Ligand-Fixed Receptor    =  -8.30 kcal/mol
DOCKED: USER        Moving Ligand-Moving Receptor   =  +0.00 kcal/mol
DOCKED: USER    (2) Final Total Internal Energy     =  -1.50 kcal/mol
DOCKED: USER    (3) Torsional Free Energy           =  +1.49 kcal/mol
DOCKED: USER    (4) Unbound System's Energy         =  -1.50 kcal/mol
DOCKED: USER
DOCKED: USER
DOCKED: REMARK SMILES O=c1c2ccccc2nc(/C=C/c2cccnc2)n1CC1CCCCC1
DOCKED: REMARK SMILES IDX 10 1 9 2 8 3 7 4 6 5 5 6 4 7 3 8 2 9 1 10 19 11 11 12 12 13
DOCKED: REMARK SMILES IDX 13 14 18 15 14 16 17 17 15 18 16 19 20 20 21 21 22 22 26 23
DOCKED: REMARK SMILES IDX 23 24 25 25 24 26
DOCKED: REMARK H PARENT
DOCKED: USER                              x       y       z     vdW  Elec       q    Type
DOCKED: USER                           _______ _______ _______ _____ _____    ______ ____
DOCKED: ROOT
DOCKED: ATOM      1  C   UNL     1     138.775  70.448 223.587 -0.23 -0.03    +0.136 A  
DOCKED: ATOM      2  N   UNL     1     139.486  71.316 224.356 -0.25 +0.05    -0.230 NA 
DOCKED: ATOM      3  C   UNL     1     140.007  70.962 225.551 -0.46 -0.01    +0.078 A  
DOCKED: ATOM      4  C   UNL     1     140.732  71.894 226.303 -0.59 -0.00    +0.029 A  
DOCKED: ATOM      5  C   UNL     1     141.265  71.532 227.543 -0.72 -0.00    +0.002 A  
DOCKED: ATOM      6  C   UNL     1     141.074  70.236 228.033 -0.61 -0.00    +0.001 A  
DOCKED: ATOM      7  C   UNL     1     140.350  69.302 227.287 -0.59 -0.00    +0.016 A  
DOCKED: ATOM      8  C   UNL     1     139.809  69.661 226.037 -0.43 -0.01    +0.066 A  
DOCKED: ATOM      9  C   UNL     1     139.075  68.761 225.247 -0.27 -0.03    +0.261 A  
DOCKED: ATOM     10  O   UNL     1     138.881  67.589 225.674 -0.82 -0.02    -0.269 OA 
DOCKED: ATOM     11  N   UNL     1     138.576  69.149 224.021 -0.15 +0.04    -0.292 N  
DOCKED: ENDROOT
DOCKED: BRANCH   1  12
DOCKED: ATOM     12  C   UNL     1     138.227  70.958 222.302 -0.15 -0.01    +0.048 C  
DOCKED: BRANCH  12  13
DOCKED: ATOM     13  C   UNL     1     139.028  71.392 221.319 -0.13 -0.00    +0.013 C  
DOCKED: BRANCH  13  14
DOCKED: ATOM     14  C   UNL     1     139.834  72.628 221.425 -0.22 +0.00    -0.007 A  
DOCKED: ATOM     15  C   UNL     1     139.258  73.776 221.990 -0.20 -0.03    +0.119 A  
DOCKED: ATOM     16  C   UNL     1     141.146  72.712 220.925 -0.22 -0.00    +0.011 A  
DOCKED: ATOM     17  N   UNL     1     139.970  74.933 222.071 -0.66 +0.03    -0.264 NA 
DOCKED: ATOM     18  C   UNL     1     141.851  73.914 221.011 -0.26 -0.00    +0.021 A  
DOCKED: ATOM     19  C   UNL     1     141.241  75.024 221.598 -0.27 -0.02    +0.111 A  
DOCKED: ENDBRANCH  13  14
DOCKED: ENDBRANCH  12  13
DOCKED: ENDBRANCH   1  12
DOCKED: BRANCH  11  20
DOCKED: ATOM     20  C   UNL     1     137.870  68.155 223.172 -0.11 -0.01    +0.131 C  
DOCKED: BRANCH  20  21
DOCKED: ATOM     21  C   UNL     1     138.861  67.259 222.382 -0.25 -0.00    +0.009 C  
DOCKED: ATOM     22  C   UNL     1     138.181  65.988 221.824 -0.25 -0.00    +0.005 C  
DOCKED: ATOM     23  C   UNL     1     139.595  68.065 221.268 -0.11 -0.00    +0.005 C  
DOCKED: ATOM     24  C   UNL     1     137.227  66.274 220.649 -0.12 -0.00    +0.000 C  
DOCKED: ATOM     25  C   UNL     1     139.210  67.653 219.837 -0.10 -0.00    +0.000 C  
DOCKED: ATOM     26  C   UNL     1     137.704  67.413 219.725 -0.05 -0.00    +0.000 C  
DOCKED: ENDBRANCH  20  21
DOCKED: ENDBRANCH  11  20
DOCKED: TORSDOF 5
DOCKED: TER
DOCKED: ENDMDL
________________________________________________________________________________


    FINAL DOCKED STATE:
    ________________________


Run:   15 / 20
Time taken for this run:   0.033s

DOCKED: MODEL        15
DOCKED: USER    Run = 15
DOCKED: USER
DOCKED: USER    Estimated Free Energy of Binding    =  -7.08 kcal/mol  [=(1)+(2)+(3)-(4)]
DOCKED: USER
DOCKED: USER    (1) Final Intermolecular Energy     =  -8.58 kcal/mol
DOCKED: USER        vdW + Hbond + desolv Energy     =  -8.50 kcal/mol
DOCKED: USER        Electrostatic Energy            =  -0.07 kcal/mol
DOCKED: USER        Moving Ligand-Fixed Receptor    =  -8.58 kcal/mol
DOCKED: USER        Moving Ligand-Moving Receptor   =  +0.00 kcal/mol
DOCKED: USER    (2) Final Total Internal Energy     =  -1.36 kcal/mol
DOCKED: USER    (3) Torsional Free Energy           =  +1.49 kcal/mol
DOCKED: USER    (4) Unbound System's Energy         =  -1.36 kcal/mol
DOCKED: USER
DOCKED: USER
DOCKED: REMARK SMILES O=c1c2ccccc2nc(/C=C/c2cccnc2)n1CC1CCCCC1
DOCKED: REMARK SMILES IDX 10 1 9 2 8 3 7 4 6 5 5 6 4 7 3 8 2 9 1 10 19 11 11 12 12 13
DOCKED: REMARK SMILES IDX 13 14 18 15 14 16 17 17 15 18 16 19 20 20 21 21 22 22 26 23
DOCKED: REMARK SMILES IDX 23 24 25 25 24 26
DOCKED: REMARK H PARENT
DOCKED: USER                              x       y       z     vdW  Elec       q    Type
DOCKED: USER                           _______ _______ _______ _____ _____    ______ ____
DOCKED: ROOT
DOCKED: ATOM      1  C   UNL     1     138.927  70.482 223.801 -0.25 -0.03    +0.136 A  
DOCKED: ATOM      2  N   UNL     1     139.605  71.277 224.673 -0.27 +0.05    -0.230 NA 
DOCKED: ATOM      3  C   UNL     1     140.103  70.810 225.838 -0.48 -0.01    +0.078 A  
DOCKED: ATOM      4  C   UNL     1     140.794  71.671 226.699 -0.69 -0.00    +0.029 A  
DOCKED: ATOM      5  C   UNL     1     141.303  71.191 227.909 -0.63 -0.00    +0.002 A  
DOCKED: ATOM      6  C   UNL     1     141.122  69.850 228.260 -0.56 -0.00    +0.001 A  
DOCKED: ATOM      7  C   UNL     1     140.431  68.987 227.405 -0.62 -0.00    +0.016 A  
DOCKED: ATOM      8  C   UNL     1     139.915  69.464 226.184 -0.45 -0.01    +0.066 A  
DOCKED: ATOM      9  C   UNL     1     139.215  68.639 225.288 -0.28 -0.03    +0.261 A  
DOCKED: ATOM     10  O   UNL     1     139.030  67.427 225.589 -0.87 -0.02    -0.269 OA 
DOCKED: ATOM     11  N   UNL     1     138.739  69.143 224.095 -0.15 +0.04    -0.292 N  
DOCKED: ENDROOT
DOCKED: BRANCH   1  12
DOCKED: ATOM     12  C   UNL     1     138.402  71.113 222.561 -0.18 -0.01    +0.048 C  
DOCKED: BRANCH  12  13
DOCKED: ATOM     13  C   UNL     1     139.206  71.419 221.534 -0.16 -0.00    +0.013 C  
DOCKED: BRANCH  13  14
DOCKED: ATOM     14  C   UNL     1     140.010  72.660 221.484 -0.24 +0.00    -0.007 A  
DOCKED: ATOM     15  C   UNL     1     139.464  73.853 221.981 -0.23 -0.02    +0.119 A  
DOCKED: ATOM     16  C   UNL     1     141.291  72.700 220.904 -0.23 -0.00    +0.011 A  
DOCKED: ATOM     17  N   UNL     1     140.173  75.012 221.920 -0.61 +0.03    -0.264 NA 
DOCKED: ATOM     18  C   UNL     1     141.994  73.904 220.843 -0.28 -0.00    +0.021 A  
DOCKED: ATOM     19  C   UNL     1     141.414  75.062 221.367 -0.26 -0.03    +0.111 A  
DOCKED: ENDBRANCH  13  14
DOCKED: ENDBRANCH  12  13
DOCKED: ENDBRANCH   1  12
DOCKED: BRANCH  11  20
DOCKED: ATOM     20  C   UNL     1     138.071  68.231 223.132 -0.18 -0.01    +0.131 C  
DOCKED: BRANCH  20  21
DOCKED: ATOM     21  C   UNL     1     139.092  67.361 222.351 -0.15 -0.00    +0.009 C  
DOCKED: ATOM     22  C   UNL     1     138.552  65.941 222.067 -0.29 -0.00    +0.005 C  
DOCKED: ATOM     23  C   UNL     1     139.573  68.075 221.052 -0.14 -0.00    +0.005 C  
DOCKED: ATOM     24  C   UNL     1     137.445  65.915 220.996 -0.16 -0.00    +0.000 C  
DOCKED: ATOM     25  C   UNL     1     139.101  67.400 219.753 -0.10 -0.00    +0.000 C  
DOCKED: ATOM     26  C   UNL     1     137.643  66.951 219.871 -0.06 -0.00    +0.000 C  
DOCKED: ENDBRANCH  20  21
DOCKED: ENDBRANCH  11  20
DOCKED: TORSDOF 5
DOCKED: TER
DOCKED: ENDMDL
________________________________________________________________________________


    FINAL DOCKED STATE:
    ________________________


Run:   16 / 20
Time taken for this run:   0.033s

DOCKED: MODEL        16
DOCKED: USER    Run = 16
DOCKED: USER
DOCKED: USER    Estimated Free Energy of Binding    =  -7.17 kcal/mol  [=(1)+(2)+(3)-(4)]
DOCKED: USER
DOCKED: USER    (1) Final Intermolecular Energy     =  -8.67 kcal/mol
DOCKED: USER        vdW + Hbond + desolv Energy     =  -8.60 kcal/mol
DOCKED: USER        Electrostatic Energy            =  -0.06 kcal/mol
DOCKED: USER        Moving Ligand-Fixed Receptor    =  -8.67 kcal/mol
DOCKED: USER        Moving Ligand-Moving Receptor   =  +0.00 kcal/mol
DOCKED: USER    (2) Final Total Internal Energy     =  -1.18 kcal/mol
DOCKED: USER    (3) Torsional Free Energy           =  +1.49 kcal/mol
DOCKED: USER    (4) Unbound System's Energy         =  -1.18 kcal/mol
DOCKED: USER
DOCKED: USER
DOCKED: REMARK SMILES O=c1c2ccccc2nc(/C=C/c2cccnc2)n1CC1CCCCC1
DOCKED: REMARK SMILES IDX 10 1 9 2 8 3 7 4 6 5 5 6 4 7 3 8 2 9 1 10 19 11 11 12 12 13
DOCKED: REMARK SMILES IDX 13 14 18 15 14 16 17 17 15 18 16 19 20 20 21 21 22 22 26 23
DOCKED: REMARK SMILES IDX 23 24 25 25 24 26
DOCKED: REMARK H PARENT
DOCKED: USER                              x       y       z     vdW  Elec       q    Type
DOCKED: USER                           _______ _______ _______ _____ _____    ______ ____
DOCKED: ROOT
DOCKED: ATOM      1  C   UNL     1     140.893  72.980 221.758 -0.24 -0.01    +0.136 A  
DOCKED: ATOM      2  N   UNL     1     140.321  74.069 222.338 -0.75 -0.01    -0.230 NA 
DOCKED: ATOM      3  C   UNL     1     140.573  75.327 221.918 -0.28 -0.01    +0.078 A  
DOCKED: ATOM      4  C   UNL     1     139.958  76.414 222.550 -0.29 -0.01    +0.029 A  
DOCKED: ATOM      5  C   UNL     1     140.224  77.717 222.121 -0.36 -0.00    +0.002 A  
DOCKED: ATOM      6  C   UNL     1     141.106  77.936 221.059 -0.31 -0.00    +0.001 A  
DOCKED: ATOM      7  C   UNL     1     141.725  76.855 220.425 -0.29 -0.01    +0.016 A  
DOCKED: ATOM      8  C   UNL     1     141.462  75.539 220.853 -0.28 -0.02    +0.066 A  
DOCKED: ATOM      9  C   UNL     1     142.055  74.417 220.250 -0.15 -0.07    +0.261 A  
DOCKED: ATOM     10  O   UNL     1     142.864  74.591 219.296 -0.13 +0.09    -0.269 OA 
DOCKED: ATOM     11  N   UNL     1     141.758  73.144 220.690 -0.11 +0.05    -0.292 N  
DOCKED: ENDROOT
DOCKED: BRANCH   1  12
DOCKED: ATOM     12  C   UNL     1     140.560  71.645 222.323 -0.27 -0.01    +0.048 C  
DOCKED: BRANCH  12  13
DOCKED: ATOM     13  C   UNL     1     139.780  71.514 223.404 -0.36 -0.00    +0.013 C  
DOCKED: BRANCH  13  14
DOCKED: ATOM     14  C   UNL     1     139.881  70.369 224.336 -0.39 +0.00    -0.007 A  
DOCKED: ATOM     15  C   UNL     1     139.091  69.231 224.114 -0.26 -0.02    +0.119 A  
DOCKED: ATOM     16  C   UNL     1     140.705  70.401 225.476 -0.52 -0.00    +0.011 A  
DOCKED: ATOM     17  N   UNL     1     139.145  68.178 224.973 -0.54 +0.02    -0.264 NA 
DOCKED: ATOM     18  C   UNL     1     140.734  69.312 226.348 -0.53 -0.00    +0.021 A  
DOCKED: ATOM     19  C   UNL     1     139.943  68.195 226.073 -0.51 -0.02    +0.111 A  
DOCKED: ENDBRANCH  13  14
DOCKED: ENDBRANCH  12  13
DOCKED: ENDBRANCH   1  12
DOCKED: BRANCH  11  20
DOCKED: ATOM     20  C   UNL     1     142.339  71.973 219.985 -0.14 -0.02    +0.131 C  
DOCKED: BRANCH  20  21
DOCKED: ATOM     21  C   UNL     1     143.699  71.543 220.598 -0.28 -0.00    +0.009 C  
DOCKED: ATOM     22  C   UNL     1     144.560  70.736 219.599 -0.22 +0.00    +0.005 C  
DOCKED: ATOM     23  C   UNL     1     144.472  72.763 221.182 -0.22 -0.00    +0.005 C  
DOCKED: ATOM     24  C   UNL     1     145.144  71.598 218.464 -0.23 +0.00    +0.000 C  
DOCKED: ATOM     25  C   UNL     1     145.755  73.121 220.413 -0.61 +0.00    +0.000 C  
DOCKED: ATOM     26  C   UNL     1     145.530  73.025 218.903 -0.32 +0.00    +0.000 C  
DOCKED: ENDBRANCH  20  21
DOCKED: ENDBRANCH  11  20
DOCKED: TORSDOF 5
DOCKED: TER
DOCKED: ENDMDL
________________________________________________________________________________


    FINAL DOCKED STATE:
    ________________________


Run:   17 / 20
Time taken for this run:   0.033s

DOCKED: MODEL        17
DOCKED: USER    Run = 17
DOCKED: USER
DOCKED: USER    Estimated Free Energy of Binding    =  -6.93 kcal/mol  [=(1)+(2)+(3)-(4)]
DOCKED: USER
DOCKED: USER    (1) Final Intermolecular Energy     =  -8.42 kcal/mol
DOCKED: USER        vdW + Hbond + desolv Energy     =  -8.36 kcal/mol
DOCKED: USER        Electrostatic Energy            =  -0.06 kcal/mol
DOCKED: USER        Moving Ligand-Fixed Receptor    =  -8.42 kcal/mol
DOCKED: USER        Moving Ligand-Moving Receptor   =  +0.00 kcal/mol
DOCKED: USER    (2) Final Total Internal Energy     =  -1.48 kcal/mol
DOCKED: USER    (3) Torsional Free Energy           =  +1.49 kcal/mol
DOCKED: USER    (4) Unbound System's Energy         =  -1.48 kcal/mol
DOCKED: USER
DOCKED: USER
DOCKED: REMARK SMILES O=c1c2ccccc2nc(/C=C/c2cccnc2)n1CC1CCCCC1
DOCKED: REMARK SMILES IDX 10 1 9 2 8 3 7 4 6 5 5 6 4 7 3 8 2 9 1 10 19 11 11 12 12 13
DOCKED: REMARK SMILES IDX 13 14 18 15 14 16 17 17 15 18 16 19 20 20 21 21 22 22 26 23
DOCKED: REMARK SMILES IDX 23 24 25 25 24 26
DOCKED: REMARK H PARENT
DOCKED: USER                              x       y       z     vdW  Elec       q    Type
DOCKED: USER                           _______ _______ _______ _____ _____    ______ ____
DOCKED: ROOT
DOCKED: ATOM      1  C   UNL     1     139.787  70.821 223.493 -0.27 -0.02    +0.136 A  
DOCKED: ATOM      2  N   UNL     1     140.311  71.566 224.503 -0.30 +0.04    -0.230 NA 
DOCKED: ATOM      3  C   UNL     1     140.474  71.076 225.751 -0.53 -0.01    +0.078 A  
DOCKED: ATOM      4  C   UNL     1     141.018  71.886 226.756 -0.73 -0.00    +0.029 A  
DOCKED: ATOM      5  C   UNL     1     141.180  71.383 228.049 -0.74 -0.00    +0.002 A  
DOCKED: ATOM      6  C   UNL     1     140.799  70.070 228.342 -0.57 -0.00    +0.001 A  
DOCKED: ATOM      7  C   UNL     1     140.253  69.258 227.343 -0.60 -0.00    +0.016 A  
DOCKED: ATOM      8  C   UNL     1     140.086  69.759 226.037 -0.45 -0.01    +0.066 A  
DOCKED: ATOM      9  C   UNL     1     139.545  68.985 224.997 -0.24 -0.04    +0.261 A  
DOCKED: ATOM     10  O   UNL     1     139.183  67.801 225.239 -0.83 +0.00    -0.269 OA 
DOCKED: ATOM     11  N   UNL     1     139.412  69.510 223.728 -0.11 +0.05    -0.292 N  
DOCKED: ENDROOT
DOCKED: BRANCH   1  12
DOCKED: ATOM     12  C   UNL     1     139.630  71.475 222.166 -0.23 -0.01    +0.048 C  
DOCKED: BRANCH  12  13
DOCKED: ATOM     13  C   UNL     1     139.028  72.665 222.036 -0.22 -0.00    +0.013 C  
DOCKED: BRANCH  13  14
DOCKED: ATOM     14  C   UNL     1     139.776  73.935 221.908 -0.28 +0.00    -0.007 A  
DOCKED: ATOM     15  C   UNL     1     139.174  75.131 222.327 -0.21 -0.03    +0.119 A  
DOCKED: ATOM     16  C   UNL     1     141.055  73.996 221.326 -0.29 -0.00    +0.011 A  
DOCKED: ATOM     17  N   UNL     1     139.831  76.315 222.193 -0.26 +0.06    -0.264 NA 
DOCKED: ATOM     18  C   UNL     1     141.703  75.225 221.188 -0.28 -0.01    +0.021 A  
DOCKED: ATOM     19  C   UNL     1     141.070  76.385 221.638 -0.31 -0.04    +0.111 A  
DOCKED: ENDBRANCH  13  14
DOCKED: ENDBRANCH  12  13
DOCKED: ENDBRANCH   1  12
DOCKED: BRANCH  11  20
DOCKED: ATOM     20  C   UNL     1     138.909  68.646 222.629 -0.16 -0.02    +0.131 C  
DOCKED: BRANCH  20  21
DOCKED: ATOM     21  C   UNL     1     137.399  68.324 222.789 -0.17 -0.00    +0.009 C  
DOCKED: ATOM     22  C   UNL     1     136.705  69.265 223.800 -0.22 -0.00    +0.005 C  
DOCKED: ATOM     23  C   UNL     1     136.671  68.308 221.411 -0.10 -0.00    +0.005 C  
DOCKED: ATOM     24  C   UNL     1     136.524  70.701 223.269 -0.17 -0.00    +0.000 C  
DOCKED: ATOM     25  C   UNL     1     135.666  69.457 221.219 -0.04 -0.00    +0.000 C  
DOCKED: ATOM     26  C   UNL     1     136.230  70.772 221.758 -0.06 -0.00    +0.000 C  
DOCKED: ENDBRANCH  20  21
DOCKED: ENDBRANCH  11  20
DOCKED: TORSDOF 5
DOCKED: TER
DOCKED: ENDMDL
________________________________________________________________________________


    FINAL DOCKED STATE:
    ________________________


Run:   18 / 20
Time taken for this run:   0.033s

DOCKED: MODEL        18
DOCKED: USER    Run = 18
DOCKED: USER
DOCKED: USER    Estimated Free Energy of Binding    =  -6.87 kcal/mol  [=(1)+(2)+(3)-(4)]
DOCKED: USER
DOCKED: USER    (1) Final Intermolecular Energy     =  -8.37 kcal/mol
DOCKED: USER        vdW + Hbond + desolv Energy     =  -8.35 kcal/mol
DOCKED: USER        Electrostatic Energy            =  -0.01 kcal/mol
DOCKED: USER        Moving Ligand-Fixed Receptor    =  -8.37 kcal/mol
DOCKED: USER        Moving Ligand-Moving Receptor   =  +0.00 kcal/mol
DOCKED: USER    (2) Final Total Internal Energy     =  -1.47 kcal/mol
DOCKED: USER    (3) Torsional Free Energy           =  +1.49 kcal/mol
DOCKED: USER    (4) Unbound System's Energy         =  -1.47 kcal/mol
DOCKED: USER
DOCKED: USER
DOCKED: REMARK SMILES O=c1c2ccccc2nc(/C=C/c2cccnc2)n1CC1CCCCC1
DOCKED: REMARK SMILES IDX 10 1 9 2 8 3 7 4 6 5 5 6 4 7 3 8 2 9 1 10 19 11 11 12 12 13
DOCKED: REMARK SMILES IDX 13 14 18 15 14 16 17 17 15 18 16 19 20 20 21 21 22 22 26 23
DOCKED: REMARK SMILES IDX 23 24 25 25 24 26
DOCKED: REMARK H PARENT
DOCKED: USER                              x       y       z     vdW  Elec       q    Type
DOCKED: USER                           _______ _______ _______ _____ _____    ______ ____
DOCKED: ROOT
DOCKED: ATOM      1  C   UNL     1     139.786  70.798 223.527 -0.27 -0.02    +0.136 A  
DOCKED: ATOM      2  N   UNL     1     140.326  71.527 224.541 -0.31 +0.04    -0.230 NA 
DOCKED: ATOM      3  C   UNL     1     140.504  71.019 225.780 -0.53 -0.01    +0.078 A  
DOCKED: ATOM      4  C   UNL     1     141.065  71.812 226.788 -0.74 -0.00    +0.029 A  
DOCKED: ATOM      5  C   UNL     1     141.242  71.290 228.073 -0.69 -0.00    +0.002 A  
DOCKED: ATOM      6  C   UNL     1     140.860  69.975 228.351 -0.56 -0.00    +0.001 A  
DOCKED: ATOM      7  C   UNL     1     140.297  69.179 227.348 -0.60 -0.00    +0.016 A  
DOCKED: ATOM      8  C   UNL     1     140.115  69.699 226.052 -0.45 -0.01    +0.066 A  
DOCKED: ATOM      9  C   UNL     1     139.556  68.943 225.008 -0.24 -0.04    +0.261 A  
DOCKED: ATOM     10  O   UNL     1     139.193  67.756 225.239 -0.86 +0.00    -0.269 OA 
DOCKED: ATOM     11  N   UNL     1     139.409  69.486 223.749 -0.11 +0.05    -0.292 N  
DOCKED: ENDROOT
DOCKED: BRANCH   1  12
DOCKED: ATOM     12  C   UNL     1     139.614  71.472 222.212 -0.24 -0.01    +0.048 C  
DOCKED: BRANCH  12  13
DOCKED: ATOM     13  C   UNL     1     140.447  72.439 221.804 -0.28 -0.00    +0.013 C  
DOCKED: BRANCH  13  14
DOCKED: ATOM     14  C   UNL     1     140.063  73.867 221.763 -0.28 +0.00    -0.007 A  
DOCKED: ATOM     15  C   UNL     1     141.056  74.840 221.573 -0.28 -0.02    +0.119 A  
DOCKED: ATOM     16  C   UNL     1     138.737  74.293 221.965 -0.22 -0.00    +0.011 A  
DOCKED: ATOM     17  N   UNL     1     140.732  76.161 221.561 -0.23 +0.08    -0.264 NA 
DOCKED: ATOM     18  C   UNL     1     138.432  75.655 221.960 -0.27 -0.01    +0.021 A  
DOCKED: ATOM     19  C   UNL     1     139.453  76.584 221.748 -0.25 -0.03    +0.111 A  
DOCKED: ENDBRANCH  13  14
DOCKED: ENDBRANCH  12  13
DOCKED: ENDBRANCH   1  12
DOCKED: BRANCH  11  20
DOCKED: ATOM     20  C   UNL     1     138.888  68.639 222.645 -0.17 -0.02    +0.131 C  
DOCKED: BRANCH  20  21
DOCKED: ATOM     21  C   UNL     1     137.363  68.380 222.783 -0.17 -0.00    +0.009 C  
DOCKED: ATOM     22  C   UNL     1     136.721  69.247 223.890 -0.22 -0.00    +0.005 C  
DOCKED: ATOM     23  C   UNL     1     136.632  68.543 221.416 -0.09 -0.00    +0.005 C  
DOCKED: ATOM     24  C   UNL     1     136.613  70.736 223.510 -0.19 -0.00    +0.000 C  
DOCKED: ATOM     25  C   UNL     1     135.687  69.754 221.350 -0.04 -0.00    +0.000 C  
DOCKED: ATOM     26  C   UNL     1     136.319  70.977 222.016 -0.08 -0.00    +0.000 C  
DOCKED: ENDBRANCH  20  21
DOCKED: ENDBRANCH  11  20
DOCKED: TORSDOF 5
DOCKED: TER
DOCKED: ENDMDL
________________________________________________________________________________


    FINAL DOCKED STATE:
    ________________________


Run:   19 / 20
Time taken for this run:   0.033s

DOCKED: MODEL        19
DOCKED: USER    Run = 19
DOCKED: USER
DOCKED: USER    Estimated Free Energy of Binding    =  -7.12 kcal/mol  [=(1)+(2)+(3)-(4)]
DOCKED: USER
DOCKED: USER    (1) Final Intermolecular Energy     =  -8.61 kcal/mol
DOCKED: USER        vdW + Hbond + desolv Energy     =  -8.56 kcal/mol
DOCKED: USER        Electrostatic Energy            =  -0.05 kcal/mol
DOCKED: USER        Moving Ligand-Fixed Receptor    =  -8.61 kcal/mol
DOCKED: USER        Moving Ligand-Moving Receptor   =  +0.00 kcal/mol
DOCKED: USER    (2) Final Total Internal Energy     =  -1.28 kcal/mol
DOCKED: USER    (3) Torsional Free Energy           =  +1.49 kcal/mol
DOCKED: USER    (4) Unbound System's Energy         =  -1.28 kcal/mol
DOCKED: USER
DOCKED: USER
DOCKED: REMARK SMILES O=c1c2ccccc2nc(/C=C/c2cccnc2)n1CC1CCCCC1
DOCKED: REMARK SMILES IDX 10 1 9 2 8 3 7 4 6 5 5 6 4 7 3 8 2 9 1 10 19 11 11 12 12 13
DOCKED: REMARK SMILES IDX 13 14 18 15 14 16 17 17 15 18 16 19 20 20 21 21 22 22 26 23
DOCKED: REMARK SMILES IDX 23 24 25 25 24 26
DOCKED: REMARK H PARENT
DOCKED: USER                              x       y       z     vdW  Elec       q    Type
DOCKED: USER                           _______ _______ _______ _____ _____    ______ ____
DOCKED: ROOT
DOCKED: ATOM      1  C   UNL     1     140.996  73.059 221.749 -0.23 -0.01    +0.136 A  
DOCKED: ATOM      2  N   UNL     1     140.444  74.154 222.339 -0.69 -0.02    -0.230 NA 
DOCKED: ATOM      3  C   UNL     1     140.686  75.409 221.900 -0.30 -0.01    +0.078 A  
DOCKED: ATOM      4  C   UNL     1     140.092  76.502 222.543 -0.30 -0.01    +0.029 A  
DOCKED: ATOM      5  C   UNL     1     140.347  77.801 222.094 -0.36 -0.00    +0.002 A  
DOCKED: ATOM      6  C   UNL     1     141.196  78.009 221.003 -0.31 -0.00    +0.001 A  
DOCKED: ATOM      7  C   UNL     1     141.792  76.921 220.359 -0.29 -0.01    +0.016 A  
DOCKED: ATOM      8  C   UNL     1     141.540  75.609 220.806 -0.27 -0.03    +0.066 A  
DOCKED: ATOM      9  C   UNL     1     142.112  74.482 220.194 -0.15 -0.08    +0.261 A  
DOCKED: ATOM     10  O   UNL     1     142.890  74.646 219.214 -0.13 +0.09    -0.269 OA 
DOCKED: ATOM     11  N   UNL     1     141.827  73.213 220.654 -0.11 +0.05    -0.292 N  
DOCKED: ENDROOT
DOCKED: BRANCH   1  12
DOCKED: ATOM     12  C   UNL     1     140.679  71.729 222.336 -0.27 -0.00    +0.048 C  
DOCKED: BRANCH  12  13
DOCKED: ATOM     13  C   UNL     1     139.720  71.580 223.260 -0.34 -0.00    +0.013 C  
DOCKED: BRANCH  13  14
DOCKED: ATOM     14  C   UNL     1     139.999  71.135 224.644 -0.47 +0.00    -0.007 A  
DOCKED: ATOM     15  C   UNL     1     139.342  70.002 225.146 -0.34 -0.02    +0.119 A  
DOCKED: ATOM     16  C   UNL     1     140.861  71.845 225.499 -0.45 -0.00    +0.011 A  
DOCKED: ATOM     17  N   UNL     1     139.560  69.591 226.425 -0.24 +0.04    -0.264 NA 
DOCKED: ATOM     18  C   UNL     1     141.059  71.409 226.810 -0.71 -0.00    +0.021 A  
DOCKED: ATOM     19  C   UNL     1     140.397  70.264 227.258 -0.51 -0.02    +0.111 A  
DOCKED: ENDBRANCH  13  14
DOCKED: ENDBRANCH  12  13
DOCKED: ENDBRANCH   1  12
DOCKED: BRANCH  11  20
DOCKED: ATOM     20  C   UNL     1     142.383  72.035 219.941 -0.14 -0.02    +0.131 C  
DOCKED: BRANCH  20  21
DOCKED: ATOM     21  C   UNL     1     143.745  71.586 220.535 -0.28 -0.00    +0.009 C  
DOCKED: ATOM     22  C   UNL     1     144.585  70.773 219.524 -0.23 +0.00    +0.005 C  
DOCKED: ATOM     23  C   UNL     1     144.540  72.794 221.116 -0.29 -0.00    +0.005 C  
DOCKED: ATOM     24  C   UNL     1     145.165  71.633 218.385 -0.23 +0.00    +0.000 C  
DOCKED: ATOM     25  C   UNL     1     145.817  73.141 220.332 -0.60 +0.00    +0.000 C  
DOCKED: ATOM     26  C   UNL     1     145.573  73.054 218.825 -0.30 +0.00    +0.000 C  
DOCKED: ENDBRANCH  20  21
DOCKED: ENDBRANCH  11  20
DOCKED: TORSDOF 5
DOCKED: TER
DOCKED: ENDMDL
________________________________________________________________________________


    FINAL DOCKED STATE:
    ________________________


Run:   20 / 20
Time taken for this run:   0.033s

DOCKED: MODEL        20
DOCKED: USER    Run = 20
DOCKED: USER
DOCKED: USER    Estimated Free Energy of Binding    =  -7.14 kcal/mol  [=(1)+(2)+(3)-(4)]
DOCKED: USER
DOCKED: USER    (1) Final Intermolecular Energy     =  -8.63 kcal/mol
DOCKED: USER        vdW + Hbond + desolv Energy     =  -8.59 kcal/mol
DOCKED: USER        Electrostatic Energy            =  -0.04 kcal/mol
DOCKED: USER        Moving Ligand-Fixed Receptor    =  -8.63 kcal/mol
DOCKED: USER        Moving Ligand-Moving Receptor   =  +0.00 kcal/mol
DOCKED: USER    (2) Final Total Internal Energy     =  -1.21 kcal/mol
DOCKED: USER    (3) Torsional Free Energy           =  +1.49 kcal/mol
DOCKED: USER    (4) Unbound System's Energy         =  -1.21 kcal/mol
DOCKED: USER
DOCKED: USER
DOCKED: REMARK SMILES O=c1c2ccccc2nc(/C=C/c2cccnc2)n1CC1CCCCC1
DOCKED: REMARK SMILES IDX 10 1 9 2 8 3 7 4 6 5 5 6 4 7 3 8 2 9 1 10 19 11 11 12 12 13
DOCKED: REMARK SMILES IDX 13 14 18 15 14 16 17 17 15 18 16 19 20 20 21 21 22 22 26 23
DOCKED: REMARK SMILES IDX 23 24 25 25 24 26
DOCKED: REMARK H PARENT
DOCKED: USER                              x       y       z     vdW  Elec       q    Type
DOCKED: USER                           _______ _______ _______ _____ _____    ______ ____
DOCKED: ROOT
DOCKED: ATOM      1  C   UNL     1     140.951  73.093 221.777 -0.23 -0.01    +0.136 A  
DOCKED: ATOM      2  N   UNL     1     140.356  74.179 222.341 -0.72 -0.02    -0.230 NA 
DOCKED: ATOM      3  C   UNL     1     140.593  75.437 221.911 -0.30 -0.01    +0.078 A  
DOCKED: ATOM      4  C   UNL     1     139.954  76.520 222.526 -0.30 -0.01    +0.029 A  
DOCKED: ATOM      5  C   UNL     1     140.205  77.823 222.087 -0.35 -0.00    +0.002 A  
DOCKED: ATOM      6  C   UNL     1     141.095  78.045 221.032 -0.30 -0.00    +0.001 A  
DOCKED: ATOM      7  C   UNL     1     141.737  76.967 220.415 -0.29 -0.01    +0.016 A  
DOCKED: ATOM      8  C   UNL     1     141.490  75.651 220.853 -0.28 -0.03    +0.066 A  
DOCKED: ATOM      9  C   UNL     1     142.106  74.534 220.267 -0.16 -0.08    +0.261 A  
DOCKED: ATOM     10  O   UNL     1     142.922  74.710 219.321 -0.15 +0.10    -0.269 OA 
DOCKED: ATOM     11  N   UNL     1     141.824  73.260 220.717 -0.12 +0.05    -0.292 N  
DOCKED: ENDROOT
DOCKED: BRANCH   1  12
DOCKED: ATOM     12  C   UNL     1     140.632  71.758 222.352 -0.28 -0.01    +0.048 C  
DOCKED: BRANCH  12  13
DOCKED: ATOM     13  C   UNL     1     139.692  71.605 223.294 -0.34 -0.00    +0.013 C  
DOCKED: BRANCH  13  14
DOCKED: ATOM     14  C   UNL     1     139.994  71.138 224.664 -0.47 +0.00    -0.007 A  
DOCKED: ATOM     15  C   UNL     1     140.881  71.877 225.462 -0.34 -0.02    +0.119 A  
DOCKED: ATOM     16  C   UNL     1     139.466  69.941 225.182 -0.41 -0.00    +0.011 A  
DOCKED: ATOM     17  N   UNL     1     141.197  71.452 226.715 -0.42 +0.04    -0.264 NA 
DOCKED: ATOM     18  C   UNL     1     139.815  69.521 226.466 -0.50 -0.00    +0.021 A  
DOCKED: ATOM     19  C   UNL     1     140.687  70.301 227.228 -0.52 -0.02    +0.111 A  
DOCKED: ENDBRANCH  13  14
DOCKED: ENDBRANCH  12  13
DOCKED: ENDBRANCH   1  12
DOCKED: BRANCH  11  20
DOCKED: ATOM     20  C   UNL     1     142.431  72.092 220.029 -0.15 -0.02    +0.131 C  
DOCKED: BRANCH  20  21
DOCKED: ATOM     21  C   UNL     1     143.812  71.718 220.630 -0.28 -0.00    +0.009 C  
DOCKED: ATOM     22  C   UNL     1     144.646  70.836 219.672 -0.21 +0.00    +0.005 C  
DOCKED: ATOM     23  C   UNL     1     144.596  72.984 221.088 -0.34 -0.00    +0.005 C  
DOCKED: ATOM     24  C   UNL     1     145.186  71.606 218.452 -0.23 +0.00    +0.000 C  
DOCKED: ATOM     25  C   UNL     1     145.851  73.284 220.250 -0.60 +0.00    +0.000 C  
DOCKED: ATOM     26  C   UNL     1     145.577  73.065 218.761 -0.29 +0.00    +0.000 C  
DOCKED: ENDBRANCH  20  21
DOCKED: ENDBRANCH  11  20
DOCKED: TORSDOF 5
DOCKED: TER
DOCKED: ENDMDL
________________________________________________________________________________


    CLUSTERING HISTOGRAM
    ____________________


________________________________________________________________________________
     |           |     |           |     |
Clus | Lowest    | Run | Mean      | Num | Histogram
-ter | Binding   |     | Binding   | in  |
Rank | Energy    |     | Energy    | Clus|    5    10   15   20   25   30   35
_____|___________|_____|___________|_____|____:____|____:____|____:____|____:___
   1 |     -7.23 |   5 |     -7.17 |   5 |#####
   2 |     -7.11 |  12 |     -7.01 |  11 |###########
   3 |     -6.96 |   9 |     -6.96 |   1 |#
   4 |     -6.66 |   4 |     -6.66 |   1 |#
   5 |     -6.37 |   6 |     -6.36 |   2 |##
_____|___________|_____|___________|_____|______________________________________


    RMSD TABLE
    __________


_______________________________________________________________________
     |      |      |           |         |                 |
Rank | Sub- | Run  | Binding   | Cluster | Reference       | Grep
     | Rank |      | Energy    | RMSD    | RMSD            | Pattern
_____|______|______|___________|_________|_________________|___________
   1      1      5       -7.23      0.00    270.20           RANKING
   1      2     16       -7.17      0.70    269.88           RANKING
   1      3     13       -7.17      0.27    270.11           RANKING
   1      4     20       -7.14      0.60    270.17           RANKING
   1      5     19       -7.12      0.32    270.14           RANKING
   2      1     12       -7.11      0.00    269.59           RANKING
   2      2      3       -7.10      0.13    269.60           RANKING
   2      3     10       -7.09      0.18    269.63           RANKING
   2      4     15       -7.08      1.27    269.33           RANKING
   2      5      2       -7.08      0.08    269.60           RANKING
   2      6      8       -7.05      0.36    269.67           RANKING
   2      7      1       -7.03      0.26    269.61           RANKING
   2      8     17       -6.93      0.65    269.68           RANKING
   2      9      7       -6.92      1.18    269.72           RANKING
   2     10     18       -6.87      0.80    269.66           RANKING
   2     11     14       -6.81      1.25    269.21           RANKING
   3      1      9       -6.96      0.00    270.25           RANKING
   4      1      4       -6.66      0.00    269.95           RANKING
   5      1      6       -6.37      0.00    270.36           RANKING
   5      2     11       -6.36      0.03    270.34           RANKING

Run time 0.643 sec
Idle time 0.000 sec
