AutoDock-GPU version: v1.6

**********************************************************
**    AutoDock-GPU AUTODOCKTOOLS-COMPATIBLE DLG FILE    **
**********************************************************


    DOCKING PARAMETERS
    ________________________


Ligand file:                               /home/a/REINVENT4/ReinventStudies/scoringData/graph-dock-h4r84i/graph-DockGPU/node-autodockgpu/inputs/YCOHEPDJLXZVBZ-XMMPIXPANA-N.pdbqt
Grid fld file:                             /home/a/REINVENT4/ReinventStudies/mols/Rad51/maps/rad51_receptor.maps.fld

Random seed:                               42
Number of runs:                            20
Number of energy evaluations:              1132076
Number of generations:                     42000
Size of population:                        150
Rate of crossover:                         80.000000%
Tournament selection probability limit:    60.000000%
Rate of mutation:                          2.000000%
Maximal allowed delta movement:            +/- 6.000000A
Maximal allowed delta angle:               +/- 90.000000

Rate of local search:                      100.000000%
Maximal number of local search iterations: 300
Rho lower bound:                           0.010000
Spread of local search delta movement:     2.000000A
Spread of local search delta angle:        74.999999
Limit of consecutive successes/failures:   4

Handle symmetry during clustering:         YES
RMSD tolerance:                            2.000000A

Program call in command line was:          /home/a/REINVENT4/ReinventStudies/adgpu-v1.6_linux_x64_cuda12_128wi --filelist batch.txt --heuristics 1 --nrun 20 --psize 150 --lsit 300 --seed 42 --heurmax 12000000 


    GRID PARAMETERS
    ________________________


Receptor name:                             rad51_receptor
Number of grid points (x, y, z):           53, 53, 53
Grid center (x, y, z):                     139.950000, 75.640000, 221.970000A
Grid size (x, y, z):                       19.500000, 19.500000, 19.500000A
Grid spacing:                              0.375000A


    LIGAND PARAMETERS
    ________________________


Ligand name:                               /home/a/REINVENT4/ReinventStudies/scoringData/graph-dock-h4r84i/graph-DockGPU/node-autodockgpu/inputs/YCOHEPDJLXZVBZ-XMMPIXPANA-N
Number of atoms:                           30
Number of rotatable bonds:                 4
Number of atom types:                      6


    DUMMY DATA (only for ADT-compatibility)
    ________________________


DPF> outlev 1
DPF> ga_run 20
DPF> fld /home/a/REINVENT4/ReinventStudies/mols/Rad51/maps/rad51_receptor.maps.fld
DPF> move /home/a/REINVENT4/ReinventStudies/scoringData/graph-dock-h4r84i/graph-DockGPU/node-autodockgpu/inputs/YCOHEPDJLXZVBZ-XMMPIXPANA-N.pdbqt


    COUNTER STATES
    ________________________


Number of energy evaluations performed:    1139804
Number of generations used:                48


    INPUT LIGAND PDBQT FILE:
    ________________________


INPUT-LIGAND-PDBQT: REMARK SMILES O=S(=O)(Cc1ccccc1)N1C=Cc2ccccc2[C@@H]1c1c[nH]c2ccccc12
INPUT-LIGAND-PDBQT: REMARK SMILES IDX 11 1 12 2 13 3 14 4 15 5 16 6 17 7 18 8 19 9 20 10 2 11 1 12
INPUT-LIGAND-PDBQT: REMARK SMILES IDX 3 13 4 14 5 15 6 16 10 17 7 18 9 19 8 20 21 21 22 22 29 23
INPUT-LIGAND-PDBQT: REMARK SMILES IDX 23 24 28 25 24 26 27 27 25 28 26 29
INPUT-LIGAND-PDBQT: REMARK H PARENT 23 30
INPUT-LIGAND-PDBQT: ROOT
INPUT-LIGAND-PDBQT: ATOM      1  N   UNL     1      -0.908  -1.061   0.117  1.00  0.00    -0.265 N 
INPUT-LIGAND-PDBQT: ATOM      2  C   UNL     1      -1.790  -0.817   1.226  1.00  0.00     0.099 C 
INPUT-LIGAND-PDBQT: ATOM      3  C   UNL     1      -1.394  -0.074   2.257  1.00  0.00     0.027 C 
INPUT-LIGAND-PDBQT: ATOM      4  C   UNL     1      -0.038   0.497   2.288  1.00  0.00    -0.019 A 
INPUT-LIGAND-PDBQT: ATOM      5  C   UNL     1       0.440   1.117   3.452  1.00  0.00     0.008 A 
INPUT-LIGAND-PDBQT: ATOM      6  C   UNL     1       1.740   1.626   3.494  1.00  0.00     0.001 A 
INPUT-LIGAND-PDBQT: ATOM      7  C   UNL     1       2.569   1.522   2.375  1.00  0.00     0.000 A 
INPUT-LIGAND-PDBQT: ATOM      8  C   UNL     1       2.101   0.911   1.209  1.00  0.00     0.007 A 
INPUT-LIGAND-PDBQT: ATOM      9  C   UNL     1       0.797   0.391   1.157  1.00  0.00    -0.013 A 
INPUT-LIGAND-PDBQT: ATOM     10  C   UNL     1       0.277  -0.224  -0.123  1.00  0.00     0.162 C 
INPUT-LIGAND-PDBQT: ENDROOT
INPUT-LIGAND-PDBQT: BRANCH   1  11
INPUT-LIGAND-PDBQT: ATOM     11  S   UNL     1      -1.198  -2.431  -0.910  1.00  0.00     0.239 S 
INPUT-LIGAND-PDBQT: ATOM     12  O   UNL     1      -0.852  -2.081  -2.330  1.00  0.00    -0.206 OA
INPUT-LIGAND-PDBQT: ATOM     13  O   UNL     1      -2.649  -2.820  -0.850  1.00  0.00    -0.206 OA
INPUT-LIGAND-PDBQT: BRANCH  11  14
INPUT-LIGAND-PDBQT: ATOM     14  C   UNL     1      -0.189  -3.800  -0.364  1.00  0.00     0.195 C 
INPUT-LIGAND-PDBQT: BRANCH  14  15
INPUT-LIGAND-PDBQT: ATOM     15  C   UNL     1      -0.074  -3.788   1.135  1.00  0.00    -0.031 A 
INPUT-LIGAND-PDBQT: ATOM     16  C   UNL     1       1.015  -3.153   1.757  1.00  0.00     0.005 A 
INPUT-LIGAND-PDBQT: ATOM     17  C   UNL     1      -1.106  -4.317   1.928  1.00  0.00     0.005 A 
INPUT-LIGAND-PDBQT: ATOM     18  C   UNL     1       1.071  -3.053   3.150  1.00  0.00     0.000 A 
INPUT-LIGAND-PDBQT: ATOM     19  C   UNL     1      -1.043  -4.220   3.321  1.00  0.00     0.000 A 
INPUT-LIGAND-PDBQT: ATOM     20  C   UNL     1       0.043  -3.587   3.932  1.00  0.00     0.000 A 
INPUT-LIGAND-PDBQT: ENDBRANCH  14  15
INPUT-LIGAND-PDBQT: ENDBRANCH  11  14
INPUT-LIGAND-PDBQT: ENDBRANCH   1  11
INPUT-LIGAND-PDBQT: BRANCH  10  21
INPUT-LIGAND-PDBQT: ATOM     21  C   UNL     1      -0.058   0.861  -1.111  1.00  0.00     0.005 A 
INPUT-LIGAND-PDBQT: ATOM     22  C   UNL     1      -1.146   1.731  -1.057  1.00  0.00     0.089 A 
INPUT-LIGAND-PDBQT: ATOM     23  C   UNL     1       0.678   1.257  -2.213  1.00  0.00     0.005 A 
INPUT-LIGAND-PDBQT: ATOM     24  N   UNL     1      -1.099   2.612  -2.081  1.00  0.00    -0.361 N 
INPUT-LIGAND-PDBQT: ATOM     25  C   UNL     1       1.875   0.776  -2.748  1.00  0.00     0.011 A 
INPUT-LIGAND-PDBQT: ATOM     26  C   UNL     1       0.012   2.316  -2.776  1.00  0.00     0.046 A 
INPUT-LIGAND-PDBQT: ATOM     27  C   UNL     1       2.382   1.409  -3.897  1.00  0.00     0.001 A 
INPUT-LIGAND-PDBQT: ATOM     28  C   UNL     1       0.493   2.963  -3.914  1.00  0.00     0.026 A 
INPUT-LIGAND-PDBQT: ATOM     29  C   UNL     1       1.694   2.497  -4.478  1.00  0.00     0.002 A 
INPUT-LIGAND-PDBQT: ATOM     30  H   UNL     1      -1.784   3.375  -2.281  1.00  0.00     0.166 HD
INPUT-LIGAND-PDBQT: ENDBRANCH  10  21
INPUT-LIGAND-PDBQT: TORSDOF 4


    FINAL DOCKED STATE:
    ________________________


Run:   1 / 20
Time taken for this run:   0.044s

DOCKED: MODEL        1
DOCKED: USER    Run = 1
DOCKED: USER
DOCKED: USER    Estimated Free Energy of Binding    =  -6.76 kcal/mol  [=(1)+(2)+(3)-(4)]
DOCKED: USER
DOCKED: USER    (1) Final Intermolecular Energy     =  -7.95 kcal/mol
DOCKED: USER        vdW + Hbond + desolv Energy     =  -7.93 kcal/mol
DOCKED: USER        Electrostatic Energy            =  -0.02 kcal/mol
DOCKED: USER        Moving Ligand-Fixed Receptor    =  -7.95 kcal/mol
DOCKED: USER        Moving Ligand-Moving Receptor   =  +0.00 kcal/mol
DOCKED: USER    (2) Final Total Internal Energy     =  -2.96 kcal/mol
DOCKED: USER    (3) Torsional Free Energy           =  +1.19 kcal/mol
DOCKED: USER    (4) Unbound System's Energy         =  -2.96 kcal/mol
DOCKED: USER
DOCKED: USER
DOCKED: REMARK SMILES O=S(=O)(Cc1ccccc1)N1C=Cc2ccccc2[C@@H]1c1c[nH]c2ccccc12
DOCKED: REMARK SMILES IDX 11 1 12 2 13 3 14 4 15 5 16 6 17 7 18 8 19 9 20 10 2 11 1 12
DOCKED: REMARK SMILES IDX 3 13 4 14 5 15 6 16 10 17 7 18 9 19 8 20 21 21 22 22 29 23
DOCKED: REMARK SMILES IDX 23 24 28 25 24 26 27 27 25 28 26 29
DOCKED: REMARK H PARENT 23 30
DOCKED: USER                              x       y       z     vdW  Elec       q    Type
DOCKED: USER                           _______ _______ _______ _____ _____    ______ ____
DOCKED: ROOT
DOCKED: ATOM      1  N   UNL     1     141.813  79.353 221.475 -0.22 +0.13    -0.265 N  
DOCKED: ATOM      2  C   UNL     1     141.488  80.346 220.487 -0.28 -0.04    +0.099 C  
DOCKED: ATOM      3  C   UNL     1     141.557  80.060 219.189 -0.26 -0.01    +0.027 C  
DOCKED: ATOM      4  C   UNL     1     141.987  78.725 218.742 -0.27 +0.01    -0.019 A  
DOCKED: ATOM      5  C   UNL     1     142.240  78.484 217.383 -0.26 -0.01    +0.008 A  
DOCKED: ATOM      6  C   UNL     1     142.684  77.228 216.963 -0.24 -0.00    +0.001 A  
DOCKED: ATOM      7  C   UNL     1     142.874  76.205 217.894 -0.24 -0.00    +0.000 A  
DOCKED: ATOM      8  C   UNL     1     142.619  76.433 219.249 -0.33 -0.00    +0.007 A  
DOCKED: ATOM      9  C   UNL     1     142.178  77.694 219.684 -0.30 +0.01    -0.013 A  
DOCKED: ATOM     10  C   UNL     1     141.855  77.921 221.144 -0.14 -0.11    +0.162 C  
DOCKED: ENDROOT
DOCKED: BRANCH   1  11
DOCKED: ATOM     11  S   UNL     1     142.257  79.864 223.075 -0.59 -0.08    +0.239 S  
DOCKED: ATOM     12  O   UNL     1     143.709  80.249 223.099 -0.54 +0.07    -0.206 OA 
DOCKED: ATOM     13  O   UNL     1     142.040  78.742 224.051 -0.47 +0.06    -0.206 OA 
DOCKED: BRANCH  11  14
DOCKED: ATOM     14  C   UNL     1     141.255  81.267 223.544 -0.35 -0.02    +0.195 C  
DOCKED: BRANCH  14  15
DOCKED: ATOM     15  C   UNL     1     139.808  80.988 223.243 -0.35 +0.00    -0.031 A  
DOCKED: ATOM     16  C   UNL     1     139.128  79.962 223.921 -0.42 -0.00    +0.005 A  
DOCKED: ATOM     17  C   UNL     1     139.097  81.819 222.361 -0.22 -0.00    +0.005 A  
DOCKED: ATOM     18  C   UNL     1     137.759  79.768 223.716 -0.26 -0.00    +0.000 A  
DOCKED: ATOM     19  C   UNL     1     137.729  81.618 222.155 -0.15 -0.00    +0.000 A  
DOCKED: ATOM     20  C   UNL     1     137.060  80.596 222.833 -0.18 -0.00    +0.000 A  
DOCKED: ENDBRANCH  14  15
DOCKED: ENDBRANCH  11  14
DOCKED: ENDBRANCH   1  11
DOCKED: BRANCH  10  21
DOCKED: ATOM     21  C   UNL     1     140.534  77.283 221.479 -0.31 -0.00    +0.005 A  
DOCKED: ATOM     22  C   UNL     1     140.320  76.222 222.358 -0.32 -0.02    +0.089 A  
DOCKED: ATOM     23  C   UNL     1     139.277  77.665 221.048 -0.16 -0.00    +0.005 A  
DOCKED: ATOM     24  N   UNL     1     139.000  75.947 222.457 -0.17 +0.08    -0.361 N  
DOCKED: ATOM     25  C   UNL     1     138.864  78.681 220.184 -0.08 -0.00    +0.011 A  
DOCKED: ATOM     26  C   UNL     1     138.376  76.829 221.658 -0.20 -0.01    +0.046 A  
DOCKED: ATOM     27  C   UNL     1     137.485  78.822 219.946 -0.03 -0.00    +0.001 A  
DOCKED: ATOM     28  C   UNL     1     137.003  76.948 221.442 -0.11 -0.00    +0.026 A  
DOCKED: ATOM     29  C   UNL     1     136.559  77.959 220.572 -0.04 -0.00    +0.002 A  
DOCKED: ATOM     30  H   UNL     1     138.558  75.206 223.045 -0.46 -0.07    +0.166 HD 
DOCKED: ENDBRANCH  10  21
DOCKED: TORSDOF 4
DOCKED: TER
DOCKED: ENDMDL
________________________________________________________________________________


    FINAL DOCKED STATE:
    ________________________


Run:   2 / 20
Time taken for this run:   0.044s

DOCKED: MODEL        2
DOCKED: USER    Run = 2
DOCKED: USER
DOCKED: USER    Estimated Free Energy of Binding    =  -8.37 kcal/mol  [=(1)+(2)+(3)-(4)]
DOCKED: USER
DOCKED: USER    (1) Final Intermolecular Energy     =  -9.57 kcal/mol
DOCKED: USER        vdW + Hbond + desolv Energy     =  -9.50 kcal/mol
DOCKED: USER        Electrostatic Energy            =  -0.07 kcal/mol
DOCKED: USER        Moving Ligand-Fixed Receptor    =  -9.57 kcal/mol
DOCKED: USER        Moving Ligand-Moving Receptor   =  +0.00 kcal/mol
DOCKED: USER    (2) Final Total Internal Energy     =  -1.90 kcal/mol
DOCKED: USER    (3) Torsional Free Energy           =  +1.19 kcal/mol
DOCKED: USER    (4) Unbound System's Energy         =  -1.90 kcal/mol
DOCKED: USER
DOCKED: USER
DOCKED: REMARK SMILES O=S(=O)(Cc1ccccc1)N1C=Cc2ccccc2[C@@H]1c1c[nH]c2ccccc12
DOCKED: REMARK SMILES IDX 11 1 12 2 13 3 14 4 15 5 16 6 17 7 18 8 19 9 20 10 2 11 1 12
DOCKED: REMARK SMILES IDX 3 13 4 14 5 15 6 16 10 17 7 18 9 19 8 20 21 21 22 22 29 23
DOCKED: REMARK SMILES IDX 23 24 28 25 24 26 27 27 25 28 26 29
DOCKED: REMARK H PARENT 23 30
DOCKED: USER                              x       y       z     vdW  Elec       q    Type
DOCKED: USER                           _______ _______ _______ _____ _____    ______ ____
DOCKED: ROOT
DOCKED: ATOM      1  N   UNL     1     136.962  69.347 223.838 -0.12 +0.03    -0.265 N  
DOCKED: ATOM      2  C   UNL     1     137.121  68.458 222.720 -0.14 -0.01    +0.099 C  
DOCKED: ATOM      3  C   UNL     1     138.119  68.627 221.855 -0.15 -0.00    +0.027 C  
DOCKED: ATOM      4  C   UNL     1     139.068  69.740 222.019 -0.16 +0.00    -0.019 A  
DOCKED: ATOM      5  C   UNL     1     139.998  70.028 221.009 -0.12 -0.00    +0.008 A  
DOCKED: ATOM      6  C   UNL     1     140.874  71.107 221.148 -0.15 -0.00    +0.001 A  
DOCKED: ATOM      7  C   UNL     1     140.829  71.903 222.295 -0.29 -0.00    +0.000 A  
DOCKED: ATOM      8  C   UNL     1     139.909  71.621 223.308 -0.36 -0.00    +0.007 A  
DOCKED: ATOM      9  C   UNL     1     139.020  70.541 223.177 -0.26 +0.00    -0.013 A  
DOCKED: ATOM     10  C   UNL     1     138.061  70.209 224.299 -0.23 -0.03    +0.162 C  
DOCKED: ENDROOT
DOCKED: BRANCH   1  11
DOCKED: ATOM     11  S   UNL     1     135.410  69.473 224.606 -0.20 -0.01    +0.239 S  
DOCKED: ATOM     12  O   UNL     1     135.587  69.881 226.042 -0.06 +0.01    -0.206 OA 
DOCKED: ATOM     13  O   UNL     1     134.708  68.144 224.567 -0.74 -0.01    -0.206 OA 
DOCKED: BRANCH  11  14
DOCKED: ATOM     14  C   UNL     1     134.427  70.694 223.750 -0.07 -0.02    +0.195 C  
DOCKED: BRANCH  14  15
DOCKED: ATOM     15  C   UNL     1     134.531  72.021 224.450 -0.17 +0.00    -0.031 A  
DOCKED: ATOM     16  C   UNL     1     135.411  73.007 223.972 -0.22 -0.00    +0.005 A  
DOCKED: ATOM     17  C   UNL     1     133.673  72.325 225.520 -0.26 -0.00    +0.005 A  
DOCKED: ATOM     18  C   UNL     1     135.435  74.275 224.559 -0.31 -0.00    +0.000 A  
DOCKED: ATOM     19  C   UNL     1     133.705  73.592 226.109 -0.34 +0.00    +0.000 A  
DOCKED: ATOM     20  C   UNL     1     134.583  74.568 225.628 -0.36 -0.00    +0.000 A  
DOCKED: ENDBRANCH  14  15
DOCKED: ENDBRANCH  11  14
DOCKED: ENDBRANCH   1  11
DOCKED: BRANCH  10  21
DOCKED: ATOM     21  C   UNL     1     138.802  69.533 225.420 -0.39 -0.00    +0.005 A  
DOCKED: ATOM     22  C   UNL     1     138.827  68.167 225.699 -0.40 -0.00    +0.089 A  
DOCKED: ATOM     23  C   UNL     1     139.657  70.114 226.340 -0.46 -0.00    +0.005 A  
DOCKED: ATOM     24  N   UNL     1     139.642  67.913 226.748 -0.30 +0.06    -0.361 N  
DOCKED: ATOM     25  C   UNL     1     140.048  71.441 226.530 -0.41 -0.00    +0.011 A  
DOCKED: ATOM     26  C   UNL     1     140.141  69.101 227.128 -0.56 -0.01    +0.046 A  
DOCKED: ATOM     27  C   UNL     1     140.955  71.716 227.569 -0.82 -0.00    +0.001 A  
DOCKED: ATOM     28  C   UNL     1     141.043  69.345 228.164 -0.58 -0.01    +0.026 A  
DOCKED: ATOM     29  C   UNL     1     141.450  70.673 228.382 -0.42 -0.00    +0.002 A  
DOCKED: ATOM     30  H   UNL     1     139.848  66.978 227.167 -0.44 -0.05    +0.166 HD 
DOCKED: ENDBRANCH  10  21
DOCKED: TORSDOF 4
DOCKED: TER
DOCKED: ENDMDL
________________________________________________________________________________


    FINAL DOCKED STATE:
    ________________________


Run:   3 / 20
Time taken for this run:   0.044s

DOCKED: MODEL        3
DOCKED: USER    Run = 3
DOCKED: USER
DOCKED: USER    Estimated Free Energy of Binding    =  -6.75 kcal/mol  [=(1)+(2)+(3)-(4)]
DOCKED: USER
DOCKED: USER    (1) Final Intermolecular Energy     =  -7.95 kcal/mol
DOCKED: USER        vdW + Hbond + desolv Energy     =  -7.93 kcal/mol
DOCKED: USER        Electrostatic Energy            =  -0.02 kcal/mol
DOCKED: USER        Moving Ligand-Fixed Receptor    =  -7.95 kcal/mol
DOCKED: USER        Moving Ligand-Moving Receptor   =  +0.00 kcal/mol
DOCKED: USER    (2) Final Total Internal Energy     =  -2.97 kcal/mol
DOCKED: USER    (3) Torsional Free Energy           =  +1.19 kcal/mol
DOCKED: USER    (4) Unbound System's Energy         =  -2.97 kcal/mol
DOCKED: USER
DOCKED: USER
DOCKED: REMARK SMILES O=S(=O)(Cc1ccccc1)N1C=Cc2ccccc2[C@@H]1c1c[nH]c2ccccc12
DOCKED: REMARK SMILES IDX 11 1 12 2 13 3 14 4 15 5 16 6 17 7 18 8 19 9 20 10 2 11 1 12
DOCKED: REMARK SMILES IDX 3 13 4 14 5 15 6 16 10 17 7 18 9 19 8 20 21 21 22 22 29 23
DOCKED: REMARK SMILES IDX 23 24 28 25 24 26 27 27 25 28 26 29
DOCKED: REMARK H PARENT 23 30
DOCKED: USER                              x       y       z     vdW  Elec       q    Type
DOCKED: USER                           _______ _______ _______ _____ _____    ______ ____
DOCKED: ROOT
DOCKED: ATOM      1  N   UNL     1     141.803  79.326 221.472 -0.22 +0.13    -0.265 N  
DOCKED: ATOM      2  C   UNL     1     141.498  80.313 220.473 -0.28 -0.04    +0.099 C  
DOCKED: ATOM      3  C   UNL     1     141.568  80.013 219.178 -0.26 -0.01    +0.027 C  
DOCKED: ATOM      4  C   UNL     1     141.977  78.666 218.746 -0.27 +0.01    -0.019 A  
DOCKED: ATOM      5  C   UNL     1     142.231  78.408 217.391 -0.25 -0.01    +0.008 A  
DOCKED: ATOM      6  C   UNL     1     142.655  77.140 216.985 -0.23 -0.00    +0.001 A  
DOCKED: ATOM      7  C   UNL     1     142.825  76.124 217.928 -0.24 -0.00    +0.000 A  
DOCKED: ATOM      8  C   UNL     1     142.569  76.370 219.279 -0.32 -0.00    +0.007 A  
DOCKED: ATOM      9  C   UNL     1     142.147  77.642 219.699 -0.30 +0.01    -0.013 A  
DOCKED: ATOM     10  C   UNL     1     141.822  77.890 221.155 -0.17 -0.10    +0.162 C  
DOCKED: ENDROOT
DOCKED: BRANCH   1  11
DOCKED: ATOM     11  S   UNL     1     142.249  79.846 223.068 -0.59 -0.08    +0.239 S  
DOCKED: ATOM     12  O   UNL     1     143.706  80.214 223.092 -0.54 +0.07    -0.206 OA 
DOCKED: ATOM     13  O   UNL     1     142.017  78.734 224.054 -0.48 +0.06    -0.206 OA 
DOCKED: BRANCH  11  14
DOCKED: ATOM     14  C   UNL     1     141.262  81.263 223.523 -0.35 -0.02    +0.195 C  
DOCKED: BRANCH  14  15
DOCKED: ATOM     15  C   UNL     1     139.810  80.989 223.243 -0.35 +0.00    -0.031 A  
DOCKED: ATOM     16  C   UNL     1     139.128  79.989 223.957 -0.41 -0.00    +0.005 A  
DOCKED: ATOM     17  C   UNL     1     139.097  81.800 222.344 -0.22 -0.00    +0.005 A  
DOCKED: ATOM     18  C   UNL     1     137.755  79.802 223.771 -0.26 -0.00    +0.000 A  
DOCKED: ATOM     19  C   UNL     1     137.726  81.606 222.157 -0.15 -0.00    +0.000 A  
DOCKED: ATOM     20  C   UNL     1     137.054  80.610 222.871 -0.18 -0.00    +0.000 A  
DOCKED: ENDBRANCH  14  15
DOCKED: ENDBRANCH  11  14
DOCKED: ENDBRANCH   1  11
DOCKED: BRANCH  10  21
DOCKED: ATOM     21  C   UNL     1     140.490  77.277 221.492 -0.31 -0.00    +0.005 A  
DOCKED: ATOM     22  C   UNL     1     140.255  76.226 222.378 -0.31 -0.02    +0.089 A  
DOCKED: ATOM     23  C   UNL     1     139.240  77.678 221.056 -0.16 -0.00    +0.005 A  
DOCKED: ATOM     24  N   UNL     1     138.931  75.975 222.475 -0.16 +0.08    -0.361 N  
DOCKED: ATOM     25  C   UNL     1     138.847  78.696 220.184 -0.07 -0.00    +0.011 A  
DOCKED: ATOM     26  C   UNL     1     138.324  76.862 221.669 -0.20 -0.01    +0.046 A  
DOCKED: ATOM     27  C   UNL     1     137.471  78.860 219.943 -0.03 -0.00    +0.001 A  
DOCKED: ATOM     28  C   UNL     1     136.954  77.004 221.450 -0.11 -0.00    +0.026 A  
DOCKED: ATOM     29  C   UNL     1     136.529  78.017 220.572 -0.04 -0.00    +0.002 A  
DOCKED: ATOM     30  H   UNL     1     138.475  75.245 223.067 -0.46 -0.07    +0.166 HD 
DOCKED: ENDBRANCH  10  21
DOCKED: TORSDOF 4
DOCKED: TER
DOCKED: ENDMDL
________________________________________________________________________________


    FINAL DOCKED STATE:
    ________________________


Run:   4 / 20
Time taken for this run:   0.044s

DOCKED: MODEL        4
DOCKED: USER    Run = 4
DOCKED: USER
DOCKED: USER    Estimated Free Energy of Binding    =  -8.41 kcal/mol  [=(1)+(2)+(3)-(4)]
DOCKED: USER
DOCKED: USER    (1) Final Intermolecular Energy     =  -9.60 kcal/mol
DOCKED: USER        vdW + Hbond + desolv Energy     =  -9.54 kcal/mol
DOCKED: USER        Electrostatic Energy            =  -0.07 kcal/mol
DOCKED: USER        Moving Ligand-Fixed Receptor    =  -9.60 kcal/mol
DOCKED: USER        Moving Ligand-Moving Receptor   =  +0.00 kcal/mol
DOCKED: USER    (2) Final Total Internal Energy     =  -1.88 kcal/mol
DOCKED: USER    (3) Torsional Free Energy           =  +1.19 kcal/mol
DOCKED: USER    (4) Unbound System's Energy         =  -1.88 kcal/mol
DOCKED: USER
DOCKED: USER
DOCKED: REMARK SMILES O=S(=O)(Cc1ccccc1)N1C=Cc2ccccc2[C@@H]1c1c[nH]c2ccccc12
DOCKED: REMARK SMILES IDX 11 1 12 2 13 3 14 4 15 5 16 6 17 7 18 8 19 9 20 10 2 11 1 12
DOCKED: REMARK SMILES IDX 3 13 4 14 5 15 6 16 10 17 7 18 9 19 8 20 21 21 22 22 29 23
DOCKED: REMARK SMILES IDX 23 24 28 25 24 26 27 27 25 28 26 29
DOCKED: REMARK H PARENT 23 30
DOCKED: USER                              x       y       z     vdW  Elec       q    Type
DOCKED: USER                           _______ _______ _______ _____ _____    ______ ____
DOCKED: ROOT
DOCKED: ATOM      1  N   UNL     1     137.039  69.354 223.734 -0.11 +0.03    -0.265 N  
DOCKED: ATOM      2  C   UNL     1     137.245  68.469 222.619 -0.15 -0.01    +0.099 C  
DOCKED: ATOM      3  C   UNL     1     138.270  68.649 221.790 -0.15 -0.00    +0.027 C  
DOCKED: ATOM      4  C   UNL     1     139.203  69.770 221.989 -0.16 +0.00    -0.019 A  
DOCKED: ATOM      5  C   UNL     1     140.165  70.069 221.013 -0.11 -0.00    +0.008 A  
DOCKED: ATOM      6  C   UNL     1     141.026  71.156 221.185 -0.14 -0.00    +0.001 A  
DOCKED: ATOM      7  C   UNL     1     140.934  71.947 222.331 -0.28 -0.00    +0.000 A  
DOCKED: ATOM      8  C   UNL     1     139.983  71.655 223.312 -0.37 -0.00    +0.007 A  
DOCKED: ATOM      9  C   UNL     1     139.108  70.568 223.147 -0.26 +0.00    -0.013 A  
DOCKED: ATOM     10  C   UNL     1     138.114  70.224 224.234 -0.23 -0.03    +0.162 C  
DOCKED: ENDROOT
DOCKED: BRANCH   1  11
DOCKED: ATOM     11  S   UNL     1     135.460  69.464 224.448 -0.20 -0.02    +0.239 S  
DOCKED: ATOM     12  O   UNL     1     135.587  69.811 225.905 -0.11 +0.01    -0.206 OA 
DOCKED: ATOM     13  O   UNL     1     134.749  68.145 224.328 -0.73 -0.01    -0.206 OA 
DOCKED: BRANCH  11  14
DOCKED: ATOM     14  C   UNL     1     134.521  70.729 223.607 -0.06 -0.02    +0.195 C  
DOCKED: BRANCH  14  15
DOCKED: ATOM     15  C   UNL     1     134.604  72.023 224.368 -0.17 +0.00    -0.031 A  
DOCKED: ATOM     16  C   UNL     1     135.444  73.056 223.918 -0.22 -0.00    +0.005 A  
DOCKED: ATOM     17  C   UNL     1     133.765  72.249 225.472 -0.25 -0.00    +0.005 A  
DOCKED: ATOM     18  C   UNL     1     135.446  74.295 224.566 -0.31 -0.00    +0.000 A  
DOCKED: ATOM     19  C   UNL     1     133.775  73.487 226.121 -0.34 +0.00    +0.000 A  
DOCKED: ATOM     20  C   UNL     1     134.613  74.510 225.668 -0.36 +0.00    +0.000 A  
DOCKED: ENDBRANCH  14  15
DOCKED: ENDBRANCH  11  14
DOCKED: ENDBRANCH   1  11
DOCKED: BRANCH  10  21
DOCKED: ATOM     21  C   UNL     1     138.822  69.551 225.379 -0.40 -0.00    +0.005 A  
DOCKED: ATOM     22  C   UNL     1     138.813  68.190 225.681 -0.39 -0.00    +0.089 A  
DOCKED: ATOM     23  C   UNL     1     139.674  70.129 226.302 -0.46 -0.00    +0.005 A  
DOCKED: ATOM     24  N   UNL     1     139.604  67.936 226.747 -0.30 +0.06    -0.361 N  
DOCKED: ATOM     25  C   UNL     1     140.091  71.450 226.477 -0.44 -0.00    +0.011 A  
DOCKED: ATOM     26  C   UNL     1     140.123  69.119 227.116 -0.56 -0.01    +0.046 A  
DOCKED: ATOM     27  C   UNL     1     140.988  71.723 227.526 -0.81 -0.00    +0.001 A  
DOCKED: ATOM     28  C   UNL     1     141.013  69.361 228.162 -0.59 -0.01    +0.026 A  
DOCKED: ATOM     29  C   UNL     1     141.446  70.684 228.365 -0.44 -0.00    +0.002 A  
DOCKED: ATOM     30  H   UNL     1     139.783  67.004 227.185 -0.44 -0.05    +0.166 HD 
DOCKED: ENDBRANCH  10  21
DOCKED: TORSDOF 4
DOCKED: TER
DOCKED: ENDMDL
________________________________________________________________________________


    FINAL DOCKED STATE:
    ________________________


Run:   5 / 20
Time taken for this run:   0.044s

DOCKED: MODEL        5
DOCKED: USER    Run = 5
DOCKED: USER
DOCKED: USER    Estimated Free Energy of Binding    =  -8.24 kcal/mol  [=(1)+(2)+(3)-(4)]
DOCKED: USER
DOCKED: USER    (1) Final Intermolecular Energy     =  -9.43 kcal/mol
DOCKED: USER        vdW + Hbond + desolv Energy     =  -9.36 kcal/mol
DOCKED: USER        Electrostatic Energy            =  -0.06 kcal/mol
DOCKED: USER        Moving Ligand-Fixed Receptor    =  -9.43 kcal/mol
DOCKED: USER        Moving Ligand-Moving Receptor   =  +0.00 kcal/mol
DOCKED: USER    (2) Final Total Internal Energy     =  -2.02 kcal/mol
DOCKED: USER    (3) Torsional Free Energy           =  +1.19 kcal/mol
DOCKED: USER    (4) Unbound System's Energy         =  -2.02 kcal/mol
DOCKED: USER
DOCKED: USER
DOCKED: REMARK SMILES O=S(=O)(Cc1ccccc1)N1C=Cc2ccccc2[C@@H]1c1c[nH]c2ccccc12
DOCKED: REMARK SMILES IDX 11 1 12 2 13 3 14 4 15 5 16 6 17 7 18 8 19 9 20 10 2 11 1 12
DOCKED: REMARK SMILES IDX 3 13 4 14 5 15 6 16 10 17 7 18 9 19 8 20 21 21 22 22 29 23
DOCKED: REMARK SMILES IDX 23 24 28 25 24 26 27 27 25 28 26 29
DOCKED: REMARK H PARENT 23 30
DOCKED: USER                              x       y       z     vdW  Elec       q    Type
DOCKED: USER                           _______ _______ _______ _____ _____    ______ ____
DOCKED: ROOT
DOCKED: ATOM      1  N   UNL     1     136.939  69.380 223.845 -0.12 +0.03    -0.265 N  
DOCKED: ATOM      2  C   UNL     1     137.097  68.501 222.718 -0.15 -0.01    +0.099 C  
DOCKED: ATOM      3  C   UNL     1     138.102  68.671 221.861 -0.15 -0.00    +0.027 C  
DOCKED: ATOM      4  C   UNL     1     139.060  69.773 222.043 -0.16 +0.00    -0.019 A  
DOCKED: ATOM      5  C   UNL     1     139.999  70.064 221.043 -0.13 -0.00    +0.008 A  
DOCKED: ATOM      6  C   UNL     1     140.884  71.134 221.199 -0.15 -0.00    +0.001 A  
DOCKED: ATOM      7  C   UNL     1     140.838  71.917 222.354 -0.29 -0.00    +0.000 A  
DOCKED: ATOM      8  C   UNL     1     139.910  71.633 223.359 -0.37 -0.00    +0.007 A  
DOCKED: ATOM      9  C   UNL     1     139.012  70.563 223.210 -0.26 +0.00    -0.013 A  
DOCKED: ATOM     10  C   UNL     1     138.043  70.227 224.322 -0.22 -0.03    +0.162 C  
DOCKED: ENDROOT
DOCKED: BRANCH   1  11
DOCKED: ATOM     11  S   UNL     1     135.383  69.512 224.604 -0.20 -0.02    +0.239 S  
DOCKED: ATOM     12  O   UNL     1     135.553  69.946 226.033 -0.09 +0.01    -0.206 OA 
DOCKED: ATOM     13  O   UNL     1     134.688  68.179 224.586 -0.74 -0.01    -0.206 OA 
DOCKED: BRANCH  11  14
DOCKED: ATOM     14  C   UNL     1     134.398  70.712 223.723 -0.06 -0.02    +0.195 C  
DOCKED: BRANCH  14  15
DOCKED: ATOM     15  C   UNL     1     134.730  72.099 224.198 -0.17 +0.00    -0.031 A  
DOCKED: ATOM     16  C   UNL     1     135.584  72.921 223.442 -0.19 -0.00    +0.005 A  
DOCKED: ATOM     17  C   UNL     1     134.108  72.623 225.343 -0.26 -0.00    +0.005 A  
DOCKED: ATOM     18  C   UNL     1     135.814  74.244 223.830 -0.21 -0.00    +0.000 A  
DOCKED: ATOM     19  C   UNL     1     134.345  73.945 225.731 -0.33 +0.00    +0.000 A  
DOCKED: ATOM     20  C   UNL     1     135.195  74.756 224.974 -0.36 -0.00    +0.000 A  
DOCKED: ENDBRANCH  14  15
DOCKED: ENDBRANCH  11  14
DOCKED: ENDBRANCH   1  11
DOCKED: BRANCH  10  21
DOCKED: ATOM     21  C   UNL     1     138.771  69.532 225.441 -0.39 -0.00    +0.005 A  
DOCKED: ATOM     22  C   UNL     1     138.766  68.165 225.717 -0.36 -0.00    +0.089 A  
DOCKED: ATOM     23  C   UNL     1     139.640  70.092 226.360 -0.46 -0.00    +0.005 A  
DOCKED: ATOM     24  N   UNL     1     139.576  67.891 226.763 -0.30 +0.05    -0.361 N  
DOCKED: ATOM     25  C   UNL     1     140.060  71.409 226.552 -0.43 -0.00    +0.011 A  
DOCKED: ATOM     26  C   UNL     1     140.102  69.066 227.145 -0.56 -0.01    +0.046 A  
DOCKED: ATOM     27  C   UNL     1     140.976  71.662 227.590 -0.81 -0.00    +0.001 A  
DOCKED: ATOM     28  C   UNL     1     141.011  69.288 228.180 -0.59 -0.01    +0.026 A  
DOCKED: ATOM     29  C   UNL     1     141.448  70.606 228.401 -0.39 -0.00    +0.002 A  
DOCKED: ATOM     30  H   UNL     1     139.762  66.951 227.180 -0.45 -0.05    +0.166 HD 
DOCKED: ENDBRANCH  10  21
DOCKED: TORSDOF 4
DOCKED: TER
DOCKED: ENDMDL
________________________________________________________________________________


    FINAL DOCKED STATE:
    ________________________


Run:   6 / 20
Time taken for this run:   0.044s

DOCKED: MODEL        6
DOCKED: USER    Run = 6
DOCKED: USER
DOCKED: USER    Estimated Free Energy of Binding    =  -6.75 kcal/mol  [=(1)+(2)+(3)-(4)]
DOCKED: USER
DOCKED: USER    (1) Final Intermolecular Energy     =  -7.95 kcal/mol
DOCKED: USER        vdW + Hbond + desolv Energy     =  -7.93 kcal/mol
DOCKED: USER        Electrostatic Energy            =  -0.02 kcal/mol
DOCKED: USER        Moving Ligand-Fixed Receptor    =  -7.95 kcal/mol
DOCKED: USER        Moving Ligand-Moving Receptor   =  +0.00 kcal/mol
DOCKED: USER    (2) Final Total Internal Energy     =  -2.97 kcal/mol
DOCKED: USER    (3) Torsional Free Energy           =  +1.19 kcal/mol
DOCKED: USER    (4) Unbound System's Energy         =  -2.97 kcal/mol
DOCKED: USER
DOCKED: USER
DOCKED: REMARK SMILES O=S(=O)(Cc1ccccc1)N1C=Cc2ccccc2[C@@H]1c1c[nH]c2ccccc12
DOCKED: REMARK SMILES IDX 11 1 12 2 13 3 14 4 15 5 16 6 17 7 18 8 19 9 20 10 2 11 1 12
DOCKED: REMARK SMILES IDX 3 13 4 14 5 15 6 16 10 17 7 18 9 19 8 20 21 21 22 22 29 23
DOCKED: REMARK SMILES IDX 23 24 28 25 24 26 27 27 25 28 26 29
DOCKED: REMARK H PARENT 23 30
DOCKED: USER                              x       y       z     vdW  Elec       q    Type
DOCKED: USER                           _______ _______ _______ _____ _____    ______ ____
DOCKED: ROOT
DOCKED: ATOM      1  N   UNL     1     141.809  79.353 221.471 -0.22 +0.13    -0.265 N  
DOCKED: ATOM      2  C   UNL     1     141.492  80.347 220.481 -0.28 -0.04    +0.099 C  
DOCKED: ATOM      3  C   UNL     1     141.565  80.058 219.183 -0.26 -0.01    +0.027 C  
DOCKED: ATOM      4  C   UNL     1     141.988  78.721 218.739 -0.27 +0.01    -0.019 A  
DOCKED: ATOM      5  C   UNL     1     142.245  78.477 217.382 -0.26 -0.01    +0.008 A  
DOCKED: ATOM      6  C   UNL     1     142.682  77.217 216.964 -0.24 -0.00    +0.001 A  
DOCKED: ATOM      7  C   UNL     1     142.862  76.194 217.897 -0.24 -0.00    +0.000 A  
DOCKED: ATOM      8  C   UNL     1     142.604  76.425 219.251 -0.33 -0.00    +0.007 A  
DOCKED: ATOM      9  C   UNL     1     142.169  77.689 219.683 -0.30 +0.01    -0.013 A  
DOCKED: ATOM     10  C   UNL     1     141.842  77.921 221.141 -0.16 -0.10    +0.162 C  
DOCKED: ENDROOT
DOCKED: BRANCH   1  11
DOCKED: ATOM     11  S   UNL     1     142.249  79.863 223.071 -0.59 -0.08    +0.239 S  
DOCKED: ATOM     12  O   UNL     1     143.702  80.247 223.098 -0.54 +0.07    -0.206 OA 
DOCKED: ATOM     13  O   UNL     1     142.031  78.740 224.047 -0.47 +0.06    -0.206 OA 
DOCKED: BRANCH  11  14
DOCKED: ATOM     14  C   UNL     1     141.247  81.265 223.539 -0.35 -0.02    +0.195 C  
DOCKED: BRANCH  14  15
DOCKED: ATOM     15  C   UNL     1     139.801  80.987 223.237 -0.35 +0.00    -0.031 A  
DOCKED: ATOM     16  C   UNL     1     139.119  79.964 223.919 -0.42 -0.00    +0.005 A  
DOCKED: ATOM     17  C   UNL     1     139.091  81.814 222.351 -0.22 -0.00    +0.005 A  
DOCKED: ATOM     18  C   UNL     1     137.750  79.770 223.713 -0.26 -0.00    +0.000 A  
DOCKED: ATOM     19  C   UNL     1     137.723  81.614 222.143 -0.15 -0.00    +0.000 A  
DOCKED: ATOM     20  C   UNL     1     137.052  80.594 222.825 -0.17 -0.00    +0.000 A  
DOCKED: ENDBRANCH  14  15
DOCKED: ENDBRANCH  11  14
DOCKED: ENDBRANCH   1  11
DOCKED: BRANCH  10  21
DOCKED: ATOM     21  C   UNL     1     140.516  77.290 221.473 -0.31 -0.00    +0.005 A  
DOCKED: ATOM     22  C   UNL     1     140.293  76.234 222.355 -0.32 -0.02    +0.089 A  
DOCKED: ATOM     23  C   UNL     1     139.263  77.678 221.034 -0.16 -0.00    +0.005 A  
DOCKED: ATOM     24  N   UNL     1     138.971  75.967 222.448 -0.17 +0.08    -0.361 N  
DOCKED: ATOM     25  C   UNL     1     138.860  78.693 220.164 -0.07 -0.00    +0.011 A  
DOCKED: ATOM     26  C   UNL     1     138.355  76.849 221.643 -0.19 -0.01    +0.046 A  
DOCKED: ATOM     27  C   UNL     1     137.483  78.840 219.919 -0.03 -0.00    +0.001 A  
DOCKED: ATOM     28  C   UNL     1     136.984  76.974 221.420 -0.11 -0.00    +0.026 A  
DOCKED: ATOM     29  C   UNL     1     136.549  77.984 220.544 -0.04 -0.00    +0.002 A  
DOCKED: ATOM     30  H   UNL     1     138.522  75.230 223.037 -0.45 -0.07    +0.166 HD 
DOCKED: ENDBRANCH  10  21
DOCKED: TORSDOF 4
DOCKED: TER
DOCKED: ENDMDL
________________________________________________________________________________


    FINAL DOCKED STATE:
    ________________________


Run:   7 / 20
Time taken for this run:   0.044s

DOCKED: MODEL        7
DOCKED: USER    Run = 7
DOCKED: USER
DOCKED: USER    Estimated Free Energy of Binding    =  -6.71 kcal/mol  [=(1)+(2)+(3)-(4)]
DOCKED: USER
DOCKED: USER    (1) Final Intermolecular Energy     =  -7.90 kcal/mol
DOCKED: USER        vdW + Hbond + desolv Energy     =  -7.88 kcal/mol
DOCKED: USER        Electrostatic Energy            =  -0.02 kcal/mol
DOCKED: USER        Moving Ligand-Fixed Receptor    =  -7.90 kcal/mol
DOCKED: USER        Moving Ligand-Moving Receptor   =  +0.00 kcal/mol
DOCKED: USER    (2) Final Total Internal Energy     =  -3.01 kcal/mol
DOCKED: USER    (3) Torsional Free Energy           =  +1.19 kcal/mol
DOCKED: USER    (4) Unbound System's Energy         =  -3.01 kcal/mol
DOCKED: USER
DOCKED: USER
DOCKED: REMARK SMILES O=S(=O)(Cc1ccccc1)N1C=Cc2ccccc2[C@@H]1c1c[nH]c2ccccc12
DOCKED: REMARK SMILES IDX 11 1 12 2 13 3 14 4 15 5 16 6 17 7 18 8 19 9 20 10 2 11 1 12
DOCKED: REMARK SMILES IDX 3 13 4 14 5 15 6 16 10 17 7 18 9 19 8 20 21 21 22 22 29 23
DOCKED: REMARK SMILES IDX 23 24 28 25 24 26 27 27 25 28 26 29
DOCKED: REMARK H PARENT 23 30
DOCKED: USER                              x       y       z     vdW  Elec       q    Type
DOCKED: USER                           _______ _______ _______ _____ _____    ______ ____
DOCKED: ROOT
DOCKED: ATOM      1  N   UNL     1     141.853  79.476 221.477 -0.23 +0.13    -0.265 N  
DOCKED: ATOM      2  C   UNL     1     141.452  80.503 220.555 -0.28 -0.04    +0.099 C  
DOCKED: ATOM      3  C   UNL     1     141.494  80.289 219.241 -0.26 -0.01    +0.027 C  
DOCKED: ATOM      4  C   UNL     1     141.971  79.002 218.710 -0.28 +0.01    -0.019 A  
DOCKED: ATOM      5  C   UNL     1     142.193  78.846 217.333 -0.26 -0.01    +0.008 A  
DOCKED: ATOM      6  C   UNL     1     142.681  77.637 216.833 -0.24 -0.00    +0.001 A  
DOCKED: ATOM      7  C   UNL     1     142.947  76.576 217.701 -0.27 -0.00    +0.000 A  
DOCKED: ATOM      8  C   UNL     1     142.724  76.719 219.073 -0.34 -0.00    +0.007 A  
DOCKED: ATOM      9  C   UNL     1     142.238  77.933 219.588 -0.26 +0.01    -0.013 A  
DOCKED: ATOM     10  C   UNL     1     141.951  78.067 221.067 -0.09 -0.11    +0.162 C  
DOCKED: ENDROOT
DOCKED: BRANCH   1  11
DOCKED: ATOM     11  S   UNL     1     142.322  79.922 223.089 -0.60 -0.08    +0.239 S  
DOCKED: ATOM     12  O   UNL     1     143.754  80.377 223.092 -0.53 +0.06    -0.206 OA 
DOCKED: ATOM     13  O   UNL     1     142.191  78.739 224.008 -0.45 +0.07    -0.206 OA 
DOCKED: BRANCH  11  14
DOCKED: ATOM     14  C   UNL     1     141.268  81.245 223.664 -0.33 -0.02    +0.195 C  
DOCKED: BRANCH  14  15
DOCKED: ATOM     15  C   UNL     1     139.834  80.940 223.332 -0.36 +0.00    -0.031 A  
DOCKED: ATOM     16  C   UNL     1     139.133  81.743 222.415 -0.22 -0.00    +0.005 A  
DOCKED: ATOM     17  C   UNL     1     139.216  79.790 223.852 -0.44 -0.00    +0.005 A  
DOCKED: ATOM     18  C   UNL     1     137.833  81.402 222.029 -0.15 -0.00    +0.000 A  
DOCKED: ATOM     19  C   UNL     1     137.914  79.457 223.467 -0.26 -0.00    +0.000 A  
DOCKED: ATOM     20  C   UNL     1     137.224  80.260 222.556 -0.16 -0.00    +0.000 A  
DOCKED: ENDBRANCH  14  15
DOCKED: ENDBRANCH  11  14
DOCKED: ENDBRANCH   1  11
DOCKED: BRANCH  10  21
DOCKED: ATOM     21  C   UNL     1     140.672  77.349 221.405 -0.31 -0.00    +0.005 A  
DOCKED: ATOM     22  C   UNL     1     140.507  76.341 222.354 -0.34 -0.02    +0.089 A  
DOCKED: ATOM     23  C   UNL     1     139.406  77.596 220.904 -0.15 -0.00    +0.005 A  
DOCKED: ATOM     24  N   UNL     1     139.210  75.968 222.428 -0.17 +0.07    -0.361 N  
DOCKED: ATOM     25  C   UNL     1     138.950  78.509 219.951 -0.07 -0.00    +0.011 A  
DOCKED: ATOM     26  C   UNL     1     138.551  76.736 221.544 -0.19 -0.01    +0.046 A  
DOCKED: ATOM     27  C   UNL     1     137.575  78.519 219.657 -0.03 -0.00    +0.001 A  
DOCKED: ATOM     28  C   UNL     1     137.183  76.726 221.273 -0.11 -0.01    +0.026 A  
DOCKED: ATOM     29  C   UNL     1     136.695  77.631 220.314 -0.04 -0.00    +0.002 A  
DOCKED: ATOM     30  H   UNL     1     138.804  75.238 223.056 -0.47 -0.06    +0.166 HD 
DOCKED: ENDBRANCH  10  21
DOCKED: TORSDOF 4
DOCKED: TER
DOCKED: ENDMDL
________________________________________________________________________________


    FINAL DOCKED STATE:
    ________________________


Run:   8 / 20
Time taken for this run:   0.044s

DOCKED: MODEL        8
DOCKED: USER    Run = 8
DOCKED: USER
DOCKED: USER    Estimated Free Energy of Binding    =  -6.76 kcal/mol  [=(1)+(2)+(3)-(4)]
DOCKED: USER
DOCKED: USER    (1) Final Intermolecular Energy     =  -7.96 kcal/mol
DOCKED: USER        vdW + Hbond + desolv Energy     =  -7.94 kcal/mol
DOCKED: USER        Electrostatic Energy            =  -0.02 kcal/mol
DOCKED: USER        Moving Ligand-Fixed Receptor    =  -7.96 kcal/mol
DOCKED: USER        Moving Ligand-Moving Receptor   =  +0.00 kcal/mol
DOCKED: USER    (2) Final Total Internal Energy     =  -2.96 kcal/mol
DOCKED: USER    (3) Torsional Free Energy           =  +1.19 kcal/mol
DOCKED: USER    (4) Unbound System's Energy         =  -2.96 kcal/mol
DOCKED: USER
DOCKED: USER
DOCKED: REMARK SMILES O=S(=O)(Cc1ccccc1)N1C=Cc2ccccc2[C@@H]1c1c[nH]c2ccccc12
DOCKED: REMARK SMILES IDX 11 1 12 2 13 3 14 4 15 5 16 6 17 7 18 8 19 9 20 10 2 11 1 12
DOCKED: REMARK SMILES IDX 3 13 4 14 5 15 6 16 10 17 7 18 9 19 8 20 21 21 22 22 29 23
DOCKED: REMARK SMILES IDX 23 24 28 25 24 26 27 27 25 28 26 29
DOCKED: REMARK H PARENT 23 30
DOCKED: USER                              x       y       z     vdW  Elec       q    Type
DOCKED: USER                           _______ _______ _______ _____ _____    ______ ____
DOCKED: ROOT
DOCKED: ATOM      1  N   UNL     1     141.820  79.323 221.470 -0.22 +0.13    -0.265 N  
DOCKED: ATOM      2  C   UNL     1     141.505  80.311 220.474 -0.28 -0.04    +0.099 C  
DOCKED: ATOM      3  C   UNL     1     141.577  80.016 219.178 -0.26 -0.01    +0.027 C  
DOCKED: ATOM      4  C   UNL     1     141.997  78.675 218.741 -0.27 +0.01    -0.019 A  
DOCKED: ATOM      5  C   UNL     1     142.253  78.423 217.385 -0.26 -0.01    +0.008 A  
DOCKED: ATOM      6  C   UNL     1     142.688  77.161 216.974 -0.24 -0.00    +0.001 A  
DOCKED: ATOM      7  C   UNL     1     142.868  76.143 217.913 -0.24 -0.00    +0.000 A  
DOCKED: ATOM      8  C   UNL     1     142.610  76.382 219.265 -0.33 -0.00    +0.007 A  
DOCKED: ATOM      9  C   UNL     1     142.177  77.649 219.690 -0.31 +0.01    -0.013 A  
DOCKED: ATOM     10  C   UNL     1     141.851  77.889 221.147 -0.13 -0.11    +0.162 C  
DOCKED: ENDROOT
DOCKED: BRANCH   1  11
DOCKED: ATOM     11  S   UNL     1     142.262  79.841 223.067 -0.59 -0.08    +0.239 S  
DOCKED: ATOM     12  O   UNL     1     143.719  80.210 223.094 -0.54 +0.07    -0.206 OA 
DOCKED: ATOM     13  O   UNL     1     142.028  78.729 224.051 -0.47 +0.06    -0.206 OA 
DOCKED: BRANCH  11  14
DOCKED: ATOM     14  C   UNL     1     141.273  81.258 223.521 -0.36 -0.03    +0.195 C  
DOCKED: BRANCH  14  15
DOCKED: ATOM     15  C   UNL     1     139.822  80.984 223.238 -0.35 +0.00    -0.031 A  
DOCKED: ATOM     16  C   UNL     1     139.145  79.967 223.932 -0.42 -0.00    +0.005 A  
DOCKED: ATOM     17  C   UNL     1     139.105  81.811 222.357 -0.22 -0.00    +0.005 A  
DOCKED: ATOM     18  C   UNL     1     137.773  79.778 223.744 -0.26 -0.00    +0.000 A  
DOCKED: ATOM     19  C   UNL     1     137.734  81.615 222.168 -0.15 -0.00    +0.000 A  
DOCKED: ATOM     20  C   UNL     1     137.068  80.601 222.862 -0.18 -0.00    +0.000 A  
DOCKED: ENDBRANCH  14  15
DOCKED: ENDBRANCH  11  14
DOCKED: ENDBRANCH   1  11
DOCKED: BRANCH  10  21
DOCKED: ATOM     21  C   UNL     1     140.524  77.262 221.483 -0.31 -0.00    +0.005 A  
DOCKED: ATOM     22  C   UNL     1     140.301  76.202 222.361 -0.31 -0.02    +0.089 A  
DOCKED: ATOM     23  C   UNL     1     139.271  77.658 221.054 -0.16 -0.00    +0.005 A  
DOCKED: ATOM     24  N   UNL     1     138.979  75.940 222.459 -0.16 +0.08    -0.361 N  
DOCKED: ATOM     25  C   UNL     1     138.867  78.679 220.191 -0.08 -0.00    +0.011 A  
DOCKED: ATOM     26  C   UNL     1     138.362  76.830 221.663 -0.20 -0.01    +0.046 A  
DOCKED: ATOM     27  C   UNL     1     137.489  78.834 219.955 -0.03 -0.00    +0.001 A  
DOCKED: ATOM     28  C   UNL     1     136.991  76.962 221.448 -0.11 -0.00    +0.026 A  
DOCKED: ATOM     29  C   UNL     1     136.555  77.979 220.580 -0.04 -0.00    +0.002 A  
DOCKED: ATOM     30  H   UNL     1     138.530  75.202 223.047 -0.46 -0.07    +0.166 HD 
DOCKED: ENDBRANCH  10  21
DOCKED: TORSDOF 4
DOCKED: TER
DOCKED: ENDMDL
________________________________________________________________________________


    FINAL DOCKED STATE:
    ________________________


Run:   9 / 20
Time taken for this run:   0.044s

DOCKED: MODEL        9
DOCKED: USER    Run = 9
DOCKED: USER
DOCKED: USER    Estimated Free Energy of Binding    =  -8.29 kcal/mol  [=(1)+(2)+(3)-(4)]
DOCKED: USER
DOCKED: USER    (1) Final Intermolecular Energy     =  -9.48 kcal/mol
DOCKED: USER        vdW + Hbond + desolv Energy     =  -9.41 kcal/mol
DOCKED: USER        Electrostatic Energy            =  -0.07 kcal/mol
DOCKED: USER        Moving Ligand-Fixed Receptor    =  -9.48 kcal/mol
DOCKED: USER        Moving Ligand-Moving Receptor   =  +0.00 kcal/mol
DOCKED: USER    (2) Final Total Internal Energy     =  -1.92 kcal/mol
DOCKED: USER    (3) Torsional Free Energy           =  +1.19 kcal/mol
DOCKED: USER    (4) Unbound System's Energy         =  -1.92 kcal/mol
DOCKED: USER
DOCKED: USER
DOCKED: REMARK SMILES O=S(=O)(Cc1ccccc1)N1C=Cc2ccccc2[C@@H]1c1c[nH]c2ccccc12
DOCKED: REMARK SMILES IDX 11 1 12 2 13 3 14 4 15 5 16 6 17 7 18 8 19 9 20 10 2 11 1 12
DOCKED: REMARK SMILES IDX 3 13 4 14 5 15 6 16 10 17 7 18 9 19 8 20 21 21 22 22 29 23
DOCKED: REMARK SMILES IDX 23 24 28 25 24 26 27 27 25 28 26 29
DOCKED: REMARK H PARENT 23 30
DOCKED: USER                              x       y       z     vdW  Elec       q    Type
DOCKED: USER                           _______ _______ _______ _____ _____    ______ ____
DOCKED: ROOT
DOCKED: ATOM      1  N   UNL     1     136.948  69.381 223.855 -0.12 +0.03    -0.265 N  
DOCKED: ATOM      2  C   UNL     1     137.101  68.515 222.717 -0.15 -0.01    +0.099 C  
DOCKED: ATOM      3  C   UNL     1     138.100  68.696 221.857 -0.15 -0.00    +0.027 C  
DOCKED: ATOM      4  C   UNL     1     139.057  69.798 222.045 -0.16 +0.00    -0.019 A  
DOCKED: ATOM      5  C   UNL     1     139.991  70.101 221.043 -0.13 -0.00    +0.008 A  
DOCKED: ATOM      6  C   UNL     1     140.874  71.170 221.205 -0.16 -0.00    +0.001 A  
DOCKED: ATOM      7  C   UNL     1     140.834  71.941 222.369 -0.30 -0.00    +0.000 A  
DOCKED: ATOM      8  C   UNL     1     139.912  71.644 223.376 -0.37 -0.00    +0.007 A  
DOCKED: ATOM      9  C   UNL     1     139.015  70.574 223.221 -0.26 +0.00    -0.013 A  
DOCKED: ATOM     10  C   UNL     1     138.053  70.225 224.334 -0.22 -0.03    +0.162 C  
DOCKED: ENDROOT
DOCKED: BRANCH   1  11
DOCKED: ATOM     11  S   UNL     1     135.396  69.502 224.624 -0.20 -0.01    +0.239 S  
DOCKED: ATOM     12  O   UNL     1     135.567  69.998 226.033 -0.09 +0.01    -0.206 OA 
DOCKED: ATOM     13  O   UNL     1     134.737  68.151 224.667 -0.72 -0.01    -0.206 OA 
DOCKED: BRANCH  11  14
DOCKED: ATOM     14  C   UNL     1     134.370  70.639 223.705 -0.06 -0.02    +0.195 C  
DOCKED: BRANCH  14  15
DOCKED: ATOM     15  C   UNL     1     134.404  71.997 224.348 -0.16 +0.00    -0.031 A  
DOCKED: ATOM     16  C   UNL     1     133.586  72.277 225.456 -0.24 -0.00    +0.005 A  
DOCKED: ATOM     17  C   UNL     1     135.329  72.962 223.915 -0.21 -0.00    +0.005 A  
DOCKED: ATOM     18  C   UNL     1     133.690  73.504 226.117 -0.34 +0.00    +0.000 A  
DOCKED: ATOM     19  C   UNL     1     135.426  74.190 224.576 -0.30 -0.00    +0.000 A  
DOCKED: ATOM     20  C   UNL     1     134.609  74.461 225.677 -0.35 +0.00    +0.000 A  
DOCKED: ENDBRANCH  14  15
DOCKED: ENDBRANCH  11  14
DOCKED: ENDBRANCH   1  11
DOCKED: BRANCH  10  21
DOCKED: ATOM     21  C   UNL     1     138.789  69.518 225.442 -0.39 -0.00    +0.005 A  
DOCKED: ATOM     22  C   UNL     1     138.796  68.148 225.696 -0.38 -0.00    +0.089 A  
DOCKED: ATOM     23  C   UNL     1     139.654  70.071 226.368 -0.47 -0.00    +0.005 A  
DOCKED: ATOM     24  N   UNL     1     139.610  67.864 226.737 -0.30 +0.06    -0.361 N  
DOCKED: ATOM     25  C   UNL     1     140.063  71.390 226.581 -0.43 -0.00    +0.011 A  
DOCKED: ATOM     26  C   UNL     1     140.126  69.038 227.137 -0.57 -0.01    +0.046 A  
DOCKED: ATOM     27  C   UNL     1     140.977  71.634 227.621 -0.81 -0.00    +0.001 A  
DOCKED: ATOM     28  C   UNL     1     141.034  69.251 228.174 -0.59 -0.01    +0.026 A  
DOCKED: ATOM     29  C   UNL     1     141.460  70.570 228.415 -0.35 -0.00    +0.002 A  
DOCKED: ATOM     30  H   UNL     1     139.805  66.919 227.138 -0.43 -0.05    +0.166 HD 
DOCKED: ENDBRANCH  10  21
DOCKED: TORSDOF 4
DOCKED: TER
DOCKED: ENDMDL
________________________________________________________________________________


    FINAL DOCKED STATE:
    ________________________


Run:   10 / 20
Time taken for this run:   0.044s

DOCKED: MODEL        10
DOCKED: USER    Run = 10
DOCKED: USER
DOCKED: USER    Estimated Free Energy of Binding    =  -6.76 kcal/mol  [=(1)+(2)+(3)-(4)]
DOCKED: USER
DOCKED: USER    (1) Final Intermolecular Energy     =  -7.95 kcal/mol
DOCKED: USER        vdW + Hbond + desolv Energy     =  -7.93 kcal/mol
DOCKED: USER        Electrostatic Energy            =  -0.02 kcal/mol
DOCKED: USER        Moving Ligand-Fixed Receptor    =  -7.95 kcal/mol
DOCKED: USER        Moving Ligand-Moving Receptor   =  +0.00 kcal/mol
DOCKED: USER    (2) Final Total Internal Energy     =  -2.96 kcal/mol
DOCKED: USER    (3) Torsional Free Energy           =  +1.19 kcal/mol
DOCKED: USER    (4) Unbound System's Energy         =  -2.96 kcal/mol
DOCKED: USER
DOCKED: USER
DOCKED: REMARK SMILES O=S(=O)(Cc1ccccc1)N1C=Cc2ccccc2[C@@H]1c1c[nH]c2ccccc12
DOCKED: REMARK SMILES IDX 11 1 12 2 13 3 14 4 15 5 16 6 17 7 18 8 19 9 20 10 2 11 1 12
DOCKED: REMARK SMILES IDX 3 13 4 14 5 15 6 16 10 17 7 18 9 19 8 20 21 21 22 22 29 23
DOCKED: REMARK SMILES IDX 23 24 28 25 24 26 27 27 25 28 26 29
DOCKED: REMARK H PARENT 23 30
DOCKED: USER                              x       y       z     vdW  Elec       q    Type
DOCKED: USER                           _______ _______ _______ _____ _____    ______ ____
DOCKED: ROOT
DOCKED: ATOM      1  N   UNL     1     141.825  79.350 221.472 -0.23 +0.13    -0.265 N  
DOCKED: ATOM      2  C   UNL     1     141.499  80.344 220.485 -0.28 -0.04    +0.099 C  
DOCKED: ATOM      3  C   UNL     1     141.564  80.057 219.187 -0.26 -0.01    +0.027 C  
DOCKED: ATOM      4  C   UNL     1     141.988  78.721 218.738 -0.27 +0.01    -0.019 A  
DOCKED: ATOM      5  C   UNL     1     142.236  78.480 217.378 -0.26 -0.01    +0.008 A  
DOCKED: ATOM      6  C   UNL     1     142.674  77.222 216.957 -0.24 -0.00    +0.001 A  
DOCKED: ATOM      7  C   UNL     1     142.864  76.199 217.887 -0.24 -0.00    +0.000 A  
DOCKED: ATOM      8  C   UNL     1     142.615  76.427 219.243 -0.33 -0.00    +0.007 A  
DOCKED: ATOM      9  C   UNL     1     142.178  77.689 219.679 -0.30 +0.01    -0.013 A  
DOCKED: ATOM     10  C   UNL     1     141.861  77.918 221.140 -0.13 -0.11    +0.162 C  
DOCKED: ENDROOT
DOCKED: BRANCH   1  11
DOCKED: ATOM     11  S   UNL     1     142.275  79.860 223.070 -0.59 -0.08    +0.239 S  
DOCKED: ATOM     12  O   UNL     1     143.729  80.242 223.088 -0.53 +0.07    -0.206 OA 
DOCKED: ATOM     13  O   UNL     1     142.060  78.737 224.046 -0.47 +0.06    -0.206 OA 
DOCKED: BRANCH  11  14
DOCKED: ATOM     14  C   UNL     1     141.277  81.263 223.543 -0.35 -0.02    +0.195 C  
DOCKED: BRANCH  14  15
DOCKED: ATOM     15  C   UNL     1     139.829  80.986 223.252 -0.35 +0.00    -0.031 A  
DOCKED: ATOM     16  C   UNL     1     139.150  79.965 223.940 -0.41 -0.00    +0.005 A  
DOCKED: ATOM     17  C   UNL     1     139.114  81.812 222.368 -0.22 -0.00    +0.005 A  
DOCKED: ATOM     18  C   UNL     1     137.780  79.773 223.744 -0.26 -0.00    +0.000 A  
DOCKED: ATOM     19  C   UNL     1     137.744  81.612 222.171 -0.15 -0.00    +0.000 A  
DOCKED: ATOM     20  C   UNL     1     137.077  80.595 222.859 -0.18 -0.00    +0.000 A  
DOCKED: ENDBRANCH  14  15
DOCKED: ENDBRANCH  11  14
DOCKED: ENDBRANCH   1  11
DOCKED: BRANCH  10  21
DOCKED: ATOM     21  C   UNL     1     140.539  77.284 221.480 -0.31 -0.00    +0.005 A  
DOCKED: ATOM     22  C   UNL     1     140.325  76.223 222.359 -0.32 -0.02    +0.089 A  
DOCKED: ATOM     23  C   UNL     1     139.282  77.670 221.054 -0.16 -0.00    +0.005 A  
DOCKED: ATOM     24  N   UNL     1     139.005  75.953 222.462 -0.17 +0.08    -0.361 N  
DOCKED: ATOM     25  C   UNL     1     138.869  78.688 220.191 -0.08 -0.00    +0.011 A  
DOCKED: ATOM     26  C   UNL     1     138.380  76.837 221.666 -0.20 -0.01    +0.046 A  
DOCKED: ATOM     27  C   UNL     1     137.490  78.833 219.959 -0.03 -0.00    +0.001 A  
DOCKED: ATOM     28  C   UNL     1     137.007  76.960 221.455 -0.11 -0.00    +0.026 A  
DOCKED: ATOM     29  C   UNL     1     136.563  77.973 220.587 -0.04 -0.00    +0.002 A  
DOCKED: ATOM     30  H   UNL     1     138.562  75.212 223.052 -0.46 -0.07    +0.166 HD 
DOCKED: ENDBRANCH  10  21
DOCKED: TORSDOF 4
DOCKED: TER
DOCKED: ENDMDL
________________________________________________________________________________


    FINAL DOCKED STATE:
    ________________________


Run:   11 / 20
Time taken for this run:   0.044s

DOCKED: MODEL        11
DOCKED: USER    Run = 11
DOCKED: USER
DOCKED: USER    Estimated Free Energy of Binding    =  -8.50 kcal/mol  [=(1)+(2)+(3)-(4)]
DOCKED: USER
DOCKED: USER    (1) Final Intermolecular Energy     =  -9.70 kcal/mol
DOCKED: USER        vdW + Hbond + desolv Energy     =  -9.59 kcal/mol
DOCKED: USER        Electrostatic Energy            =  -0.11 kcal/mol
DOCKED: USER        Moving Ligand-Fixed Receptor    =  -9.70 kcal/mol
DOCKED: USER        Moving Ligand-Moving Receptor   =  +0.00 kcal/mol
DOCKED: USER    (2) Final Total Internal Energy     =  -1.65 kcal/mol
DOCKED: USER    (3) Torsional Free Energy           =  +1.19 kcal/mol
DOCKED: USER    (4) Unbound System's Energy         =  -1.65 kcal/mol
DOCKED: USER
DOCKED: USER
DOCKED: REMARK SMILES O=S(=O)(Cc1ccccc1)N1C=Cc2ccccc2[C@@H]1c1c[nH]c2ccccc12
DOCKED: REMARK SMILES IDX 11 1 12 2 13 3 14 4 15 5 16 6 17 7 18 8 19 9 20 10 2 11 1 12
DOCKED: REMARK SMILES IDX 3 13 4 14 5 15 6 16 10 17 7 18 9 19 8 20 21 21 22 22 29 23
DOCKED: REMARK SMILES IDX 23 24 28 25 24 26 27 27 25 28 26 29
DOCKED: REMARK H PARENT 23 30
DOCKED: USER                              x       y       z     vdW  Elec       q    Type
DOCKED: USER                           _______ _______ _______ _____ _____    ______ ____
DOCKED: ROOT
DOCKED: ATOM      1  N   UNL     1     140.488  77.520 221.259 -0.13 +0.09    -0.265 N  
DOCKED: ATOM      2  C   UNL     1     139.321  78.241 221.693 -0.19 -0.02    +0.099 C  
DOCKED: ATOM      3  C   UNL     1     139.440  79.335 222.443 -0.29 -0.01    +0.027 C  
DOCKED: ATOM      4  C   UNL     1     140.768  79.816 222.855 -0.43 +0.00    -0.019 A  
DOCKED: ATOM      5  C   UNL     1     140.882  80.852 223.795 -0.45 -0.00    +0.008 A  
DOCKED: ATOM      6  C   UNL     1     142.142  81.284 224.215 -0.57 -0.00    +0.001 A  
DOCKED: ATOM      7  C   UNL     1     143.295  80.688 223.698 -0.61 -0.00    +0.000 A  
DOCKED: ATOM      8  C   UNL     1     143.192  79.659 222.758 -0.49 -0.00    +0.007 A  
DOCKED: ATOM      9  C   UNL     1     141.930  79.213 222.333 -0.51 +0.01    -0.013 A  
DOCKED: ATOM     10  C   UNL     1     141.823  78.135 221.278 -0.20 -0.10    +0.162 C  
DOCKED: ENDROOT
DOCKED: BRANCH   1  11
DOCKED: ATOM     11  S   UNL     1     140.328  75.856 220.789 -0.22 -0.07    +0.239 S  
DOCKED: ATOM     12  O   UNL     1     138.930  75.600 220.301 -0.05 +0.05    -0.206 OA 
DOCKED: ATOM     13  O   UNL     1     140.599  74.961 221.966 -0.71 +0.02    -0.206 OA 
DOCKED: BRANCH  11  14
DOCKED: ATOM     14  C   UNL     1     141.496  75.499 219.485 -0.12 -0.07    +0.195 C  
DOCKED: BRANCH  14  15
DOCKED: ATOM     15  C   UNL     1     142.641  74.689 220.028 -0.29 +0.01    -0.031 A  
DOCKED: ATOM     16  C   UNL     1     142.454  73.339 220.371 -0.26 -0.00    +0.005 A  
DOCKED: ATOM     17  C   UNL     1     143.929  75.244 220.097 -0.42 -0.00    +0.005 A  
DOCKED: ATOM     18  C   UNL     1     143.539  72.559 220.780 -0.32 -0.00    +0.000 A  
DOCKED: ATOM     19  C   UNL     1     145.011  74.462 220.512 -0.49 -0.00    +0.000 A  
DOCKED: ATOM     20  C   UNL     1     144.817  73.120 220.851 -0.52 -0.00    +0.000 A  
DOCKED: ENDBRANCH  14  15
DOCKED: ENDBRANCH  11  14
DOCKED: ENDBRANCH   1  11
DOCKED: BRANCH  10  21
DOCKED: ATOM     21  C   UNL     1     142.136  78.713 219.924 -0.14 -0.00    +0.005 A  
DOCKED: ATOM     22  C   UNL     1     142.739  78.052 218.854 -0.14 -0.07    +0.089 A  
DOCKED: ATOM     23  C   UNL     1     141.823  79.974 219.451 -0.30 -0.00    +0.005 A  
DOCKED: ATOM     24  N   UNL     1     142.812  78.865 217.776 -0.16 +0.37    -0.361 N  
DOCKED: ATOM     25  C   UNL     1     141.189  81.060 220.059 -0.27 -0.00    +0.011 A  
DOCKED: ATOM     26  C   UNL     1     142.253  80.028 218.149 -0.30 -0.04    +0.046 A  
DOCKED: ATOM     27  C   UNL     1     141.008  82.227 219.295 -0.21 -0.00    +0.001 A  
DOCKED: ATOM     28  C   UNL     1     142.085  81.172 217.369 -0.25 -0.02    +0.026 A  
DOCKED: ATOM     29  C   UNL     1     141.454  82.283 217.956 -0.19 -0.00    +0.002 A  
DOCKED: ATOM     30  H   UNL     1     143.213  78.628 216.841 -0.35 -0.25    +0.166 HD 
DOCKED: ENDBRANCH  10  21
DOCKED: TORSDOF 4
DOCKED: TER
DOCKED: ENDMDL
________________________________________________________________________________


    FINAL DOCKED STATE:
    ________________________


Run:   12 / 20
Time taken for this run:   0.044s

DOCKED: MODEL        12
DOCKED: USER    Run = 12
DOCKED: USER
DOCKED: USER    Estimated Free Energy of Binding    =  -6.89 kcal/mol  [=(1)+(2)+(3)-(4)]
DOCKED: USER
DOCKED: USER    (1) Final Intermolecular Energy     =  -8.08 kcal/mol
DOCKED: USER        vdW + Hbond + desolv Energy     =  -8.01 kcal/mol
DOCKED: USER        Electrostatic Energy            =  -0.08 kcal/mol
DOCKED: USER        Moving Ligand-Fixed Receptor    =  -8.08 kcal/mol
DOCKED: USER        Moving Ligand-Moving Receptor   =  +0.00 kcal/mol
DOCKED: USER    (2) Final Total Internal Energy     =  -2.76 kcal/mol
DOCKED: USER    (3) Torsional Free Energy           =  +1.19 kcal/mol
DOCKED: USER    (4) Unbound System's Energy         =  -2.76 kcal/mol
DOCKED: USER
DOCKED: USER
DOCKED: REMARK SMILES O=S(=O)(Cc1ccccc1)N1C=Cc2ccccc2[C@@H]1c1c[nH]c2ccccc12
DOCKED: REMARK SMILES IDX 11 1 12 2 13 3 14 4 15 5 16 6 17 7 18 8 19 9 20 10 2 11 1 12
DOCKED: REMARK SMILES IDX 3 13 4 14 5 15 6 16 10 17 7 18 9 19 8 20 21 21 22 22 29 23
DOCKED: REMARK SMILES IDX 23 24 28 25 24 26 27 27 25 28 26 29
DOCKED: REMARK H PARENT 23 30
DOCKED: USER                              x       y       z     vdW  Elec       q    Type
DOCKED: USER                           _______ _______ _______ _____ _____    ______ ____
DOCKED: ROOT
DOCKED: ATOM      1  N   UNL     1     140.030  80.894 219.918 -0.05 +0.08    -0.265 N  
DOCKED: ATOM      2  C   UNL     1     140.640  82.155 220.243 -0.22 -0.03    +0.099 C  
DOCKED: ATOM      3  C   UNL     1     141.441  82.269 221.300 -0.34 -0.01    +0.027 C  
DOCKED: ATOM      4  C   UNL     1     141.702  81.109 222.166 -0.47 +0.00    -0.019 A  
DOCKED: ATOM      5  C   UNL     1     142.389  81.274 223.378 -0.55 -0.00    +0.008 A  
DOCKED: ATOM      6  C   UNL     1     142.605  80.180 224.218 -0.51 -0.00    +0.001 A  
DOCKED: ATOM      7  C   UNL     1     142.140  78.914 223.854 -0.53 -0.00    +0.000 A  
DOCKED: ATOM      8  C   UNL     1     141.459  78.738 222.646 -0.50 -0.00    +0.007 A  
DOCKED: ATOM      9  C   UNL     1     141.232  79.833 221.796 -0.38 +0.00    -0.013 A  
DOCKED: ATOM     10  C   UNL     1     140.539  79.629 220.467 -0.15 -0.06    +0.162 C  
DOCKED: ENDROOT
DOCKED: BRANCH   1  11
DOCKED: ATOM     11  S   UNL     1     138.603  80.874 218.928 -0.03 -0.06    +0.239 S  
DOCKED: ATOM     12  O   UNL     1     138.605  79.643 218.065 -0.01 +0.05    -0.206 OA 
DOCKED: ATOM     13  O   UNL     1     138.578  82.085 218.038 -0.01 +0.05    -0.206 OA 
DOCKED: BRANCH  11  14
DOCKED: ATOM     14  C   UNL     1     137.158  80.872 219.977 -0.02 -0.04    +0.195 C  
DOCKED: BRANCH  14  15
DOCKED: ATOM     15  C   UNL     1     137.551  80.547 221.392 -0.09 +0.01    -0.031 A  
DOCKED: ATOM     16  C   UNL     1     137.635  79.209 221.815 -0.13 -0.00    +0.005 A  
DOCKED: ATOM     17  C   UNL     1     137.939  81.572 222.271 -0.17 -0.00    +0.005 A  
DOCKED: ATOM     18  C   UNL     1     138.097  78.903 223.098 -0.26 -0.00    +0.000 A  
DOCKED: ATOM     19  C   UNL     1     138.395  81.262 223.555 -0.31 -0.00    +0.000 A  
DOCKED: ATOM     20  C   UNL     1     138.476  79.929 223.968 -0.35 -0.00    +0.000 A  
DOCKED: ENDBRANCH  14  15
DOCKED: ENDBRANCH  11  14
DOCKED: ENDBRANCH   1  11
DOCKED: BRANCH  10  21
DOCKED: ATOM     21  C   UNL     1     141.491  78.996 219.487 -0.25 -0.00    +0.005 A  
DOCKED: ATOM     22  C   UNL     1     142.141  79.629 218.429 -0.28 -0.06    +0.089 A  
DOCKED: ATOM     23  C   UNL     1     141.964  77.696 219.488 -0.29 -0.00    +0.005 A  
DOCKED: ATOM     24  N   UNL     1     142.963  78.764 217.794 -0.16 +0.38    -0.361 N  
DOCKED: ATOM     25  C   UNL     1     141.692  76.613 220.327 -0.28 -0.01    +0.011 A  
DOCKED: ATOM     26  C   UNL     1     142.849  77.595 218.445 -0.31 -0.03    +0.046 A  
DOCKED: ATOM     27  C   UNL     1     142.352  75.399 220.066 -0.31 -0.00    +0.001 A  
DOCKED: ATOM     28  C   UNL     1     143.518  76.404 218.165 -0.24 -0.02    +0.026 A  
DOCKED: ATOM     29  C   UNL     1     143.260  75.294 218.989 -0.31 -0.00    +0.002 A  
DOCKED: ATOM     30  H   UNL     1     143.572  78.971 216.970 -0.50 -0.34    +0.166 HD 
DOCKED: ENDBRANCH  10  21
DOCKED: TORSDOF 4
DOCKED: TER
DOCKED: ENDMDL
________________________________________________________________________________


    FINAL DOCKED STATE:
    ________________________


Run:   13 / 20
Time taken for this run:   0.044s

DOCKED: MODEL        13
DOCKED: USER    Run = 13
DOCKED: USER
DOCKED: USER    Estimated Free Energy of Binding    =  -8.39 kcal/mol  [=(1)+(2)+(3)-(4)]
DOCKED: USER
DOCKED: USER    (1) Final Intermolecular Energy     =  -9.58 kcal/mol
DOCKED: USER        vdW + Hbond + desolv Energy     =  -9.48 kcal/mol
DOCKED: USER        Electrostatic Energy            =  -0.11 kcal/mol
DOCKED: USER        Moving Ligand-Fixed Receptor    =  -9.58 kcal/mol
DOCKED: USER        Moving Ligand-Moving Receptor   =  +0.00 kcal/mol
DOCKED: USER    (2) Final Total Internal Energy     =  -1.62 kcal/mol
DOCKED: USER    (3) Torsional Free Energy           =  +1.19 kcal/mol
DOCKED: USER    (4) Unbound System's Energy         =  -1.62 kcal/mol
DOCKED: USER
DOCKED: USER
DOCKED: REMARK SMILES O=S(=O)(Cc1ccccc1)N1C=Cc2ccccc2[C@@H]1c1c[nH]c2ccccc12
DOCKED: REMARK SMILES IDX 11 1 12 2 13 3 14 4 15 5 16 6 17 7 18 8 19 9 20 10 2 11 1 12
DOCKED: REMARK SMILES IDX 3 13 4 14 5 15 6 16 10 17 7 18 9 19 8 20 21 21 22 22 29 23
DOCKED: REMARK SMILES IDX 23 24 28 25 24 26 27 27 25 28 26 29
DOCKED: REMARK H PARENT 23 30
DOCKED: USER                              x       y       z     vdW  Elec       q    Type
DOCKED: USER                           _______ _______ _______ _____ _____    ______ ____
DOCKED: ROOT
DOCKED: ATOM      1  N   UNL     1     140.541  77.562 221.263 -0.13 +0.10    -0.265 N  
DOCKED: ATOM      2  C   UNL     1     139.369  78.255 221.726 -0.20 -0.02    +0.099 C  
DOCKED: ATOM      3  C   UNL     1     139.480  79.346 222.480 -0.30 -0.01    +0.027 C  
DOCKED: ATOM      4  C   UNL     1     140.805  79.853 222.869 -0.43 +0.00    -0.019 A  
DOCKED: ATOM      5  C   UNL     1     140.917  80.885 223.813 -0.45 -0.00    +0.008 A  
DOCKED: ATOM      6  C   UNL     1     142.176  81.341 224.209 -0.58 -0.00    +0.001 A  
DOCKED: ATOM      7  C   UNL     1     143.330  80.773 223.665 -0.57 -0.00    +0.000 A  
DOCKED: ATOM      8  C   UNL     1     143.230  79.749 222.720 -0.52 -0.00    +0.007 A  
DOCKED: ATOM      9  C   UNL     1     141.969  79.278 222.318 -0.51 +0.01    -0.013 A  
DOCKED: ATOM     10  C   UNL     1     141.863  78.205 221.258 -0.19 -0.10    +0.162 C  
DOCKED: ENDROOT
DOCKED: BRANCH   1  11
DOCKED: ATOM     11  S   UNL     1     140.407  75.898 220.784 -0.22 -0.07    +0.239 S  
DOCKED: ATOM     12  O   UNL     1     138.993  75.604 220.369 -0.06 +0.05    -0.206 OA 
DOCKED: ATOM     13  O   UNL     1     140.767  75.002 221.936 -0.67 +0.02    -0.206 OA 
DOCKED: BRANCH  11  14
DOCKED: ATOM     14  C   UNL     1     141.514  75.588 219.417 -0.12 -0.07    +0.195 C  
DOCKED: BRANCH  14  15
DOCKED: ATOM     15  C   UNL     1     142.663  74.732 219.871 -0.28 +0.01    -0.031 A  
DOCKED: ATOM     16  C   UNL     1     143.945  75.289 220.021 -0.41 -0.00    +0.005 A  
DOCKED: ATOM     17  C   UNL     1     142.445  73.397 220.250 -0.24 -0.00    +0.005 A  
DOCKED: ATOM     18  C   UNL     1     144.992  74.520 220.538 -0.47 -0.00    +0.000 A  
DOCKED: ATOM     19  C   UNL     1     143.496  72.630 220.762 -0.32 -0.00    +0.000 A  
DOCKED: ATOM     20  C   UNL     1     144.767  73.191 220.908 -0.51 -0.00    +0.000 A  
DOCKED: ENDBRANCH  14  15
DOCKED: ENDBRANCH  11  14
DOCKED: ENDBRANCH   1  11
DOCKED: BRANCH  10  21
DOCKED: ATOM     21  C   UNL     1     142.135  78.798 219.902 -0.13 -0.00    +0.005 A  
DOCKED: ATOM     22  C   UNL     1     142.712  78.152 218.809 -0.15 -0.07    +0.089 A  
DOCKED: ATOM     23  C   UNL     1     141.802  80.062 219.450 -0.30 -0.00    +0.005 A  
DOCKED: ATOM     24  N   UNL     1     142.751  78.976 217.738 -0.16 +0.37    -0.361 N  
DOCKED: ATOM     25  C   UNL     1     141.180  81.138 220.087 -0.27 -0.00    +0.011 A  
DOCKED: ATOM     26  C   UNL     1     142.196  80.132 218.138 -0.30 -0.04    +0.046 A  
DOCKED: ATOM     27  C   UNL     1     140.972  82.312 219.340 -0.21 -0.00    +0.001 A  
DOCKED: ATOM     28  C   UNL     1     142.000  81.282 217.374 -0.23 -0.02    +0.026 A  
DOCKED: ATOM     29  C   UNL     1     141.380  82.384 217.990 -0.18 -0.00    +0.002 A  
DOCKED: ATOM     30  H   UNL     1     143.127  78.751 216.790 -0.35 -0.25    +0.166 HD 
DOCKED: ENDBRANCH  10  21
DOCKED: TORSDOF 4
DOCKED: TER
DOCKED: ENDMDL
________________________________________________________________________________


    FINAL DOCKED STATE:
    ________________________


Run:   14 / 20
Time taken for this run:   0.044s

DOCKED: MODEL        14
DOCKED: USER    Run = 14
DOCKED: USER
DOCKED: USER    Estimated Free Energy of Binding    =  -6.88 kcal/mol  [=(1)+(2)+(3)-(4)]
DOCKED: USER
DOCKED: USER    (1) Final Intermolecular Energy     =  -8.08 kcal/mol
DOCKED: USER        vdW + Hbond + desolv Energy     =  -8.00 kcal/mol
DOCKED: USER        Electrostatic Energy            =  -0.08 kcal/mol
DOCKED: USER        Moving Ligand-Fixed Receptor    =  -8.08 kcal/mol
DOCKED: USER        Moving Ligand-Moving Receptor   =  +0.00 kcal/mol
DOCKED: USER    (2) Final Total Internal Energy     =  -2.77 kcal/mol
DOCKED: USER    (3) Torsional Free Energy           =  +1.19 kcal/mol
DOCKED: USER    (4) Unbound System's Energy         =  -2.77 kcal/mol
DOCKED: USER
DOCKED: USER
DOCKED: REMARK SMILES O=S(=O)(Cc1ccccc1)N1C=Cc2ccccc2[C@@H]1c1c[nH]c2ccccc12
DOCKED: REMARK SMILES IDX 11 1 12 2 13 3 14 4 15 5 16 6 17 7 18 8 19 9 20 10 2 11 1 12
DOCKED: REMARK SMILES IDX 3 13 4 14 5 15 6 16 10 17 7 18 9 19 8 20 21 21 22 22 29 23
DOCKED: REMARK SMILES IDX 23 24 28 25 24 26 27 27 25 28 26 29
DOCKED: REMARK H PARENT 23 30
DOCKED: USER                              x       y       z     vdW  Elec       q    Type
DOCKED: USER                           _______ _______ _______ _____ _____    ______ ____
DOCKED: ROOT
DOCKED: ATOM      1  N   UNL     1     140.016  80.860 219.909 -0.05 +0.08    -0.265 N  
DOCKED: ATOM      2  C   UNL     1     140.617  82.125 220.232 -0.21 -0.03    +0.099 C  
DOCKED: ATOM      3  C   UNL     1     141.416  82.246 221.290 -0.34 -0.01    +0.027 C  
DOCKED: ATOM      4  C   UNL     1     141.683  81.089 222.160 -0.47 +0.00    -0.019 A  
DOCKED: ATOM      5  C   UNL     1     142.366  81.261 223.372 -0.57 -0.00    +0.008 A  
DOCKED: ATOM      6  C   UNL     1     142.587  80.170 224.215 -0.52 -0.00    +0.001 A  
DOCKED: ATOM      7  C   UNL     1     142.130  78.901 223.852 -0.53 -0.00    +0.000 A  
DOCKED: ATOM      8  C   UNL     1     141.452  78.718 222.644 -0.50 -0.00    +0.007 A  
DOCKED: ATOM      9  C   UNL     1     141.220  79.810 221.791 -0.38 +0.00    -0.013 A  
DOCKED: ATOM     10  C   UNL     1     140.531  79.599 220.461 -0.15 -0.06    +0.162 C  
DOCKED: ENDROOT
DOCKED: BRANCH   1  11
DOCKED: ATOM     11  S   UNL     1     138.591  80.829 218.916 -0.03 -0.06    +0.239 S  
DOCKED: ATOM     12  O   UNL     1     138.593  79.589 218.067 -0.01 +0.05    -0.206 OA 
DOCKED: ATOM     13  O   UNL     1     138.568  82.030 218.013 -0.01 +0.05    -0.206 OA 
DOCKED: BRANCH  11  14
DOCKED: ATOM     14  C   UNL     1     137.144  80.840 219.963 -0.02 -0.04    +0.195 C  
DOCKED: BRANCH  14  15
DOCKED: ATOM     15  C   UNL     1     137.532  80.522 221.380 -0.08 +0.01    -0.031 A  
DOCKED: ATOM     16  C   UNL     1     137.621  79.185 221.807 -0.13 -0.00    +0.005 A  
DOCKED: ATOM     17  C   UNL     1     137.911  81.551 222.258 -0.17 -0.00    +0.005 A  
DOCKED: ATOM     18  C   UNL     1     138.079  78.885 223.093 -0.26 -0.00    +0.000 A  
DOCKED: ATOM     19  C   UNL     1     138.363  81.246 223.545 -0.31 -0.00    +0.000 A  
DOCKED: ATOM     20  C   UNL     1     138.449  79.915 223.962 -0.35 -0.00    +0.000 A  
DOCKED: ENDBRANCH  14  15
DOCKED: ENDBRANCH  11  14
DOCKED: ENDBRANCH   1  11
DOCKED: BRANCH  10  21
DOCKED: ATOM     21  C   UNL     1     141.489  78.969 219.485 -0.25 -0.00    +0.005 A  
DOCKED: ATOM     22  C   UNL     1     142.138  79.604 218.428 -0.28 -0.06    +0.089 A  
DOCKED: ATOM     23  C   UNL     1     141.968  77.672 219.488 -0.29 -0.00    +0.005 A  
DOCKED: ATOM     24  N   UNL     1     142.966  78.743 217.795 -0.16 +0.38    -0.361 N  
DOCKED: ATOM     25  C   UNL     1     141.699  76.588 220.327 -0.28 -0.01    +0.011 A  
DOCKED: ATOM     26  C   UNL     1     142.856  77.573 218.447 -0.31 -0.03    +0.046 A  
DOCKED: ATOM     27  C   UNL     1     142.365  75.377 220.069 -0.31 -0.00    +0.001 A  
DOCKED: ATOM     28  C   UNL     1     143.531  76.385 218.170 -0.23 -0.02    +0.026 A  
DOCKED: ATOM     29  C   UNL     1     143.276  75.275 218.995 -0.31 -0.00    +0.002 A  
DOCKED: ATOM     30  H   UNL     1     143.576  78.952 216.973 -0.50 -0.34    +0.166 HD 
DOCKED: ENDBRANCH  10  21
DOCKED: TORSDOF 4
DOCKED: TER
DOCKED: ENDMDL
________________________________________________________________________________


    FINAL DOCKED STATE:
    ________________________


Run:   15 / 20
Time taken for this run:   0.044s

DOCKED: MODEL        15
DOCKED: USER    Run = 15
DOCKED: USER
DOCKED: USER    Estimated Free Energy of Binding    =  -8.55 kcal/mol  [=(1)+(2)+(3)-(4)]
DOCKED: USER
DOCKED: USER    (1) Final Intermolecular Energy     =  -9.74 kcal/mol
DOCKED: USER        vdW + Hbond + desolv Energy     =  -9.63 kcal/mol
DOCKED: USER        Electrostatic Energy            =  -0.11 kcal/mol
DOCKED: USER        Moving Ligand-Fixed Receptor    =  -9.74 kcal/mol
DOCKED: USER        Moving Ligand-Moving Receptor   =  +0.00 kcal/mol
DOCKED: USER    (2) Final Total Internal Energy     =  -1.61 kcal/mol
DOCKED: USER    (3) Torsional Free Energy           =  +1.19 kcal/mol
DOCKED: USER    (4) Unbound System's Energy         =  -1.61 kcal/mol
DOCKED: USER
DOCKED: USER
DOCKED: REMARK SMILES O=S(=O)(Cc1ccccc1)N1C=Cc2ccccc2[C@@H]1c1c[nH]c2ccccc12
DOCKED: REMARK SMILES IDX 11 1 12 2 13 3 14 4 15 5 16 6 17 7 18 8 19 9 20 10 2 11 1 12
DOCKED: REMARK SMILES IDX 3 13 4 14 5 15 6 16 10 17 7 18 9 19 8 20 21 21 22 22 29 23
DOCKED: REMARK SMILES IDX 23 24 28 25 24 26 27 27 25 28 26 29
DOCKED: REMARK H PARENT 23 30
DOCKED: USER                              x       y       z     vdW  Elec       q    Type
DOCKED: USER                           _______ _______ _______ _____ _____    ______ ____
DOCKED: ROOT
DOCKED: ATOM      1  N   UNL     1     140.502  77.554 221.279 -0.13 +0.09    -0.265 N  
DOCKED: ATOM      2  C   UNL     1     139.336  78.267 221.728 -0.20 -0.02    +0.099 C  
DOCKED: ATOM      3  C   UNL     1     139.457  79.362 222.475 -0.30 -0.01    +0.027 C  
DOCKED: ATOM      4  C   UNL     1     140.787  79.854 222.868 -0.43 +0.00    -0.019 A  
DOCKED: ATOM      5  C   UNL     1     140.907  80.892 223.805 -0.45 -0.00    +0.008 A  
DOCKED: ATOM      6  C   UNL     1     142.170  81.333 224.207 -0.58 -0.00    +0.001 A  
DOCKED: ATOM      7  C   UNL     1     143.319  80.745 223.675 -0.58 -0.00    +0.000 A  
DOCKED: ATOM      8  C   UNL     1     143.211  79.714 222.738 -0.51 -0.00    +0.007 A  
DOCKED: ATOM      9  C   UNL     1     141.946  79.259 222.330 -0.51 +0.01    -0.013 A  
DOCKED: ATOM     10  C   UNL     1     141.833  78.178 221.278 -0.21 -0.10    +0.162 C  
DOCKED: ENDROOT
DOCKED: BRANCH   1  11
DOCKED: ATOM     11  S   UNL     1     140.348  75.888 220.813 -0.22 -0.07    +0.239 S  
DOCKED: ATOM     12  O   UNL     1     138.946  75.623 220.340 -0.06 +0.05    -0.206 OA 
DOCKED: ATOM     13  O   UNL     1     140.635  74.997 221.989 -0.70 +0.02    -0.206 OA 
DOCKED: BRANCH  11  14
DOCKED: ATOM     14  C   UNL     1     141.505  75.536 219.499 -0.12 -0.07    +0.195 C  
DOCKED: BRANCH  14  15
DOCKED: ATOM     15  C   UNL     1     142.657  74.730 220.031 -0.29 +0.01    -0.031 A  
DOCKED: ATOM     16  C   UNL     1     142.472  73.386 220.398 -0.26 -0.00    +0.005 A  
DOCKED: ATOM     17  C   UNL     1     143.949  75.280 220.064 -0.41 -0.00    +0.005 A  
DOCKED: ATOM     18  C   UNL     1     143.562  72.607 220.797 -0.32 -0.00    +0.000 A  
DOCKED: ATOM     19  C   UNL     1     145.036  74.499 220.469 -0.50 -0.00    +0.000 A  
DOCKED: ATOM     20  C   UNL     1     144.844  73.164 220.833 -0.53 -0.00    +0.000 A  
DOCKED: ENDBRANCH  14  15
DOCKED: ENDBRANCH  11  14
DOCKED: ENDBRANCH   1  11
DOCKED: BRANCH  10  21
DOCKED: ATOM     21  C   UNL     1     142.123  78.756 219.919 -0.14 -0.00    +0.005 A  
DOCKED: ATOM     22  C   UNL     1     142.689  78.091 218.833 -0.17 -0.07    +0.089 A  
DOCKED: ATOM     23  C   UNL     1     141.819  80.025 219.459 -0.30 -0.00    +0.005 A  
DOCKED: ATOM     24  N   UNL     1     142.750  78.907 217.757 -0.16 +0.37    -0.361 N  
DOCKED: ATOM     25  C   UNL     1     141.218  81.118 220.086 -0.28 -0.00    +0.011 A  
DOCKED: ATOM     26  C   UNL     1     142.219  80.077 218.147 -0.30 -0.04    +0.046 A  
DOCKED: ATOM     27  C   UNL     1     141.038  82.291 219.331 -0.22 -0.00    +0.001 A  
DOCKED: ATOM     28  C   UNL     1     142.051  81.227 217.375 -0.24 -0.02    +0.026 A  
DOCKED: ATOM     29  C   UNL     1     141.453  82.345 217.982 -0.19 -0.00    +0.002 A  
DOCKED: ATOM     30  H   UNL     1     143.124  78.667 216.812 -0.32 -0.24    +0.166 HD 
DOCKED: ENDBRANCH  10  21
DOCKED: TORSDOF 4
DOCKED: TER
DOCKED: ENDMDL
________________________________________________________________________________


    FINAL DOCKED STATE:
    ________________________


Run:   16 / 20
Time taken for this run:   0.044s

DOCKED: MODEL        16
DOCKED: USER    Run = 16
DOCKED: USER
DOCKED: USER    Estimated Free Energy of Binding    =  -8.28 kcal/mol  [=(1)+(2)+(3)-(4)]
DOCKED: USER
DOCKED: USER    (1) Final Intermolecular Energy     =  -9.47 kcal/mol
DOCKED: USER        vdW + Hbond + desolv Energy     =  -9.37 kcal/mol
DOCKED: USER        Electrostatic Energy            =  -0.10 kcal/mol
DOCKED: USER        Moving Ligand-Fixed Receptor    =  -9.47 kcal/mol
DOCKED: USER        Moving Ligand-Moving Receptor   =  +0.00 kcal/mol
DOCKED: USER    (2) Final Total Internal Energy     =  -1.69 kcal/mol
DOCKED: USER    (3) Torsional Free Energy           =  +1.19 kcal/mol
DOCKED: USER    (4) Unbound System's Energy         =  -1.69 kcal/mol
DOCKED: USER
DOCKED: USER
DOCKED: REMARK SMILES O=S(=O)(Cc1ccccc1)N1C=Cc2ccccc2[C@@H]1c1c[nH]c2ccccc12
DOCKED: REMARK SMILES IDX 11 1 12 2 13 3 14 4 15 5 16 6 17 7 18 8 19 9 20 10 2 11 1 12
DOCKED: REMARK SMILES IDX 3 13 4 14 5 15 6 16 10 17 7 18 9 19 8 20 21 21 22 22 29 23
DOCKED: REMARK SMILES IDX 23 24 28 25 24 26 27 27 25 28 26 29
DOCKED: REMARK H PARENT 23 30
DOCKED: USER                              x       y       z     vdW  Elec       q    Type
DOCKED: USER                           _______ _______ _______ _____ _____    ______ ____
DOCKED: ROOT
DOCKED: ATOM      1  N   UNL     1     140.470  77.416 221.211 -0.13 +0.09    -0.265 N  
DOCKED: ATOM      2  C   UNL     1     139.314  78.158 221.635 -0.19 -0.02    +0.099 C  
DOCKED: ATOM      3  C   UNL     1     139.446  79.253 222.379 -0.28 -0.01    +0.027 C  
DOCKED: ATOM      4  C   UNL     1     140.780  79.715 222.797 -0.42 +0.00    -0.019 A  
DOCKED: ATOM      5  C   UNL     1     140.906  80.754 223.731 -0.46 -0.00    +0.008 A  
DOCKED: ATOM      6  C   UNL     1     142.171  81.167 224.155 -0.57 -0.00    +0.001 A  
DOCKED: ATOM      7  C   UNL     1     143.316  80.550 223.648 -0.64 -0.00    +0.000 A  
DOCKED: ATOM      8  C   UNL     1     143.201  79.518 222.713 -0.41 -0.00    +0.007 A  
DOCKED: ATOM      9  C   UNL     1     141.934  79.090 222.283 -0.50 +0.01    -0.013 A  
DOCKED: ATOM     10  C   UNL     1     141.816  78.008 221.233 -0.18 -0.10    +0.162 C  
DOCKED: ENDROOT
DOCKED: BRANCH   1  11
DOCKED: ATOM     11  S   UNL     1     140.286  75.752 220.749 -0.21 -0.07    +0.239 S  
DOCKED: ATOM     12  O   UNL     1     138.864  75.497 220.334 -0.05 +0.05    -0.206 OA 
DOCKED: ATOM     13  O   UNL     1     140.617  74.856 221.910 -0.70 +0.02    -0.206 OA 
DOCKED: BRANCH  11  14
DOCKED: ATOM     14  C   UNL     1     141.384  75.395 219.386 -0.10 -0.07    +0.195 C  
DOCKED: BRANCH  14  15
DOCKED: ATOM     15  C   UNL     1     142.550  74.577 219.867 -0.26 +0.01    -0.031 A  
DOCKED: ATOM     16  C   UNL     1     142.441  73.180 219.971 -0.20 -0.00    +0.005 A  
DOCKED: ATOM     17  C   UNL     1     143.790  75.191 220.113 -0.40 -0.00    +0.005 A  
DOCKED: ATOM     18  C   UNL     1     143.555  72.410 220.320 -0.31 -0.00    +0.000 A  
DOCKED: ATOM     19  C   UNL     1     144.899  74.418 220.468 -0.52 -0.00    +0.000 A  
DOCKED: ATOM     20  C   UNL     1     144.783  73.029 220.570 -0.49 -0.00    +0.000 A  
DOCKED: ENDBRANCH  14  15
DOCKED: ENDBRANCH  11  14
DOCKED: ENDBRANCH   1  11
DOCKED: BRANCH  10  21
DOCKED: ATOM     21  C   UNL     1     142.145  78.574 219.878 -0.16 -0.00    +0.005 A  
DOCKED: ATOM     22  C   UNL     1     142.771  77.907 218.826 -0.20 -0.07    +0.089 A  
DOCKED: ATOM     23  C   UNL     1     141.828  79.826 219.385 -0.30 -0.00    +0.005 A  
DOCKED: ATOM     24  N   UNL     1     142.854  78.708 217.740 -0.16 +0.37    -0.361 N  
DOCKED: ATOM     25  C   UNL     1     141.175  80.913 219.971 -0.26 -0.00    +0.011 A  
DOCKED: ATOM     26  C   UNL     1     142.278  79.870 218.090 -0.30 -0.04    +0.046 A  
DOCKED: ATOM     27  C   UNL     1     140.995  82.069 219.191 -0.21 -0.00    +0.001 A  
DOCKED: ATOM     28  C   UNL     1     142.112  81.003 217.294 -0.25 -0.02    +0.026 A  
DOCKED: ATOM     29  C   UNL     1     141.462  82.115 217.859 -0.19 -0.00    +0.002 A  
DOCKED: ATOM     30  H   UNL     1     143.272  78.464 216.814 -0.30 -0.24    +0.166 HD 
DOCKED: ENDBRANCH  10  21
DOCKED: TORSDOF 4
DOCKED: TER
DOCKED: ENDMDL
________________________________________________________________________________


    FINAL DOCKED STATE:
    ________________________


Run:   17 / 20
Time taken for this run:   0.044s

DOCKED: MODEL        17
DOCKED: USER    Run = 17
DOCKED: USER
DOCKED: USER    Estimated Free Energy of Binding    =  -8.45 kcal/mol  [=(1)+(2)+(3)-(4)]
DOCKED: USER
DOCKED: USER    (1) Final Intermolecular Energy     =  -9.65 kcal/mol
DOCKED: USER        vdW + Hbond + desolv Energy     =  -9.54 kcal/mol
DOCKED: USER        Electrostatic Energy            =  -0.11 kcal/mol
DOCKED: USER        Moving Ligand-Fixed Receptor    =  -9.65 kcal/mol
DOCKED: USER        Moving Ligand-Moving Receptor   =  +0.00 kcal/mol
DOCKED: USER    (2) Final Total Internal Energy     =  -1.62 kcal/mol
DOCKED: USER    (3) Torsional Free Energy           =  +1.19 kcal/mol
DOCKED: USER    (4) Unbound System's Energy         =  -1.62 kcal/mol
DOCKED: USER
DOCKED: USER
DOCKED: REMARK SMILES O=S(=O)(Cc1ccccc1)N1C=Cc2ccccc2[C@@H]1c1c[nH]c2ccccc12
DOCKED: REMARK SMILES IDX 11 1 12 2 13 3 14 4 15 5 16 6 17 7 18 8 19 9 20 10 2 11 1 12
DOCKED: REMARK SMILES IDX 3 13 4 14 5 15 6 16 10 17 7 18 9 19 8 20 21 21 22 22 29 23
DOCKED: REMARK SMILES IDX 23 24 28 25 24 26 27 27 25 28 26 29
DOCKED: REMARK H PARENT 23 30
DOCKED: USER                              x       y       z     vdW  Elec       q    Type
DOCKED: USER                           _______ _______ _______ _____ _____    ______ ____
DOCKED: ROOT
DOCKED: ATOM      1  N   UNL     1     140.513  77.271 221.185 -0.13 +0.09    -0.265 N  
DOCKED: ATOM      2  C   UNL     1     139.285  77.938 221.525 -0.18 -0.02    +0.099 C  
DOCKED: ATOM      3  C   UNL     1     139.299  79.064 222.235 -0.26 -0.01    +0.027 C  
DOCKED: ATOM      4  C   UNL     1     140.571  79.637 222.701 -0.39 +0.00    -0.019 A  
DOCKED: ATOM      5  C   UNL     1     140.573  80.711 223.603 -0.44 -0.00    +0.008 A  
DOCKED: ATOM      6  C   UNL     1     141.781  81.231 224.075 -0.50 -0.00    +0.001 A  
DOCKED: ATOM      7  C   UNL     1     142.993  80.685 223.647 -0.66 -0.00    +0.000 A  
DOCKED: ATOM      8  C   UNL     1     143.002  79.618 222.744 -0.56 -0.00    +0.007 A  
DOCKED: ATOM      9  C   UNL     1     141.794  79.084 222.268 -0.49 +0.01    -0.013 A  
DOCKED: ATOM     10  C   UNL     1     141.809  77.963 221.252 -0.16 -0.10    +0.162 C  
DOCKED: ENDROOT
DOCKED: BRANCH   1  11
DOCKED: ATOM     11  S   UNL     1     140.475  75.585 220.773 -0.23 -0.07    +0.239 S  
DOCKED: ATOM     12  O   UNL     1     139.096  75.209 220.308 -0.06 +0.05    -0.206 OA 
DOCKED: ATOM     13  O   UNL     1     140.821  74.754 221.977 -0.71 +0.01    -0.206 OA 
DOCKED: BRANCH  11  14
DOCKED: ATOM     14  C   UNL     1     141.656  75.270 219.470 -0.12 -0.07    +0.195 C  
DOCKED: BRANCH  14  15
DOCKED: ATOM     15  C   UNL     1     142.825  74.496 220.012 -0.29 +0.01    -0.031 A  
DOCKED: ATOM     16  C   UNL     1     142.696  73.125 220.297 -0.26 -0.00    +0.005 A  
DOCKED: ATOM     17  C   UNL     1     144.083  75.109 220.138 -0.41 -0.00    +0.005 A  
DOCKED: ATOM     18  C   UNL     1     143.808  72.382 220.704 -0.34 -0.00    +0.000 A  
DOCKED: ATOM     19  C   UNL     1     145.191  74.363 220.552 -0.51 -0.00    +0.000 A  
DOCKED: ATOM     20  C   UNL     1     145.055  73.001 220.833 -0.55 -0.00    +0.000 A  
DOCKED: ENDBRANCH  14  15
DOCKED: ENDBRANCH  11  14
DOCKED: ENDBRANCH   1  11
DOCKED: BRANCH  10  21
DOCKED: ATOM     21  C   UNL     1     142.166  78.509 219.896 -0.17 -0.00    +0.005 A  
DOCKED: ATOM     22  C   UNL     1     142.851  77.841 218.882 -0.17 -0.07    +0.089 A  
DOCKED: ATOM     23  C   UNL     1     141.822  79.738 219.362 -0.30 -0.00    +0.005 A  
DOCKED: ATOM     24  N   UNL     1     142.945  78.619 217.781 -0.16 +0.37    -0.361 N  
DOCKED: ATOM     25  C   UNL     1     141.111  80.813 219.898 -0.25 -0.00    +0.011 A  
DOCKED: ATOM     26  C   UNL     1     142.317  79.768 218.083 -0.30 -0.04    +0.046 A  
DOCKED: ATOM     27  C   UNL     1     140.919  81.944 219.085 -0.19 -0.00    +0.001 A  
DOCKED: ATOM     28  C   UNL     1     142.139  80.875 217.254 -0.25 -0.02    +0.026 A  
DOCKED: ATOM     29  C   UNL     1     141.431  81.976 217.769 -0.18 -0.00    +0.002 A  
DOCKED: ATOM     30  H   UNL     1     143.403  78.369 216.876 -0.29 -0.24    +0.166 HD 
DOCKED: ENDBRANCH  10  21
DOCKED: TORSDOF 4
DOCKED: TER
DOCKED: ENDMDL
________________________________________________________________________________


    FINAL DOCKED STATE:
    ________________________


Run:   18 / 20
Time taken for this run:   0.044s

DOCKED: MODEL        18
DOCKED: USER    Run = 18
DOCKED: USER
DOCKED: USER    Estimated Free Energy of Binding    =  -7.31 kcal/mol  [=(1)+(2)+(3)-(4)]
DOCKED: USER
DOCKED: USER    (1) Final Intermolecular Energy     =  -8.50 kcal/mol
DOCKED: USER        vdW + Hbond + desolv Energy     =  -8.44 kcal/mol
DOCKED: USER        Electrostatic Energy            =  -0.06 kcal/mol
DOCKED: USER        Moving Ligand-Fixed Receptor    =  -8.50 kcal/mol
DOCKED: USER        Moving Ligand-Moving Receptor   =  +0.00 kcal/mol
DOCKED: USER    (2) Final Total Internal Energy     =  -2.75 kcal/mol
DOCKED: USER    (3) Torsional Free Energy           =  +1.19 kcal/mol
DOCKED: USER    (4) Unbound System's Energy         =  -2.75 kcal/mol
DOCKED: USER
DOCKED: USER
DOCKED: REMARK SMILES O=S(=O)(Cc1ccccc1)N1C=Cc2ccccc2[C@@H]1c1c[nH]c2ccccc12
DOCKED: REMARK SMILES IDX 11 1 12 2 13 3 14 4 15 5 16 6 17 7 18 8 19 9 20 10 2 11 1 12
DOCKED: REMARK SMILES IDX 3 13 4 14 5 15 6 16 10 17 7 18 9 19 8 20 21 21 22 22 29 23
DOCKED: REMARK SMILES IDX 23 24 28 25 24 26 27 27 25 28 26 29
DOCKED: REMARK H PARENT 23 30
DOCKED: USER                              x       y       z     vdW  Elec       q    Type
DOCKED: USER                           _______ _______ _______ _____ _____    ______ ____
DOCKED: ROOT
DOCKED: ATOM      1  N   UNL     1     137.055  69.323 223.695 -0.11 +0.03    -0.265 N  
DOCKED: ATOM      2  C   UNL     1     137.273  68.441 222.581 -0.15 -0.01    +0.099 C  
DOCKED: ATOM      3  C   UNL     1     138.305  68.626 221.761 -0.15 -0.00    +0.027 C  
DOCKED: ATOM      4  C   UNL     1     139.232  69.750 221.970 -0.16 +0.00    -0.019 A  
DOCKED: ATOM      5  C   UNL     1     140.201  70.054 221.003 -0.11 -0.00    +0.008 A  
DOCKED: ATOM      6  C   UNL     1     141.057  71.143 221.184 -0.14 -0.00    +0.001 A  
DOCKED: ATOM      7  C   UNL     1     140.952  71.933 222.331 -0.28 -0.00    +0.000 A  
DOCKED: ATOM      8  C   UNL     1     139.993  71.636 223.303 -0.37 -0.00    +0.007 A  
DOCKED: ATOM      9  C   UNL     1     139.124  70.546 223.129 -0.26 +0.00    -0.013 A  
DOCKED: ATOM     10  C   UNL     1     138.122  70.197 224.206 -0.24 -0.03    +0.162 C  
DOCKED: ENDROOT
DOCKED: BRANCH   1  11
DOCKED: ATOM     11  S   UNL     1     135.469  69.426 224.396 -0.19 -0.02    +0.239 S  
DOCKED: ATOM     12  O   UNL     1     135.584  69.637 225.879 -0.12 +0.01    -0.206 OA 
DOCKED: ATOM     13  O   UNL     1     134.714  68.151 224.147 -0.73 -0.01    -0.206 OA 
DOCKED: BRANCH  11  14
DOCKED: ATOM     14  C   UNL     1     134.588  70.795 223.660 -0.07 -0.02    +0.195 C  
DOCKED: BRANCH  14  15
DOCKED: ATOM     15  C   UNL     1     135.488  71.533 222.708 -0.09 +0.01    -0.031 A  
DOCKED: ATOM     16  C   UNL     1     136.209  72.659 223.143 -0.18 -0.00    +0.005 A  
DOCKED: ATOM     17  C   UNL     1     135.698  71.042 221.408 -0.03 -0.00    +0.005 A  
DOCKED: ATOM     18  C   UNL     1     137.122  73.284 222.289 -0.14 -0.00    +0.000 A  
DOCKED: ATOM     19  C   UNL     1     136.608  71.674 220.556 -0.03 -0.00    +0.000 A  
DOCKED: ATOM     20  C   UNL     1     137.321  72.793 220.996 -0.08 -0.00    +0.000 A  
DOCKED: ENDBRANCH  14  15
DOCKED: ENDBRANCH  11  14
DOCKED: ENDBRANCH   1  11
DOCKED: BRANCH  10  21
DOCKED: ATOM     21  C   UNL     1     138.822  69.524 225.357 -0.40 -0.00    +0.005 A  
DOCKED: ATOM     22  C   UNL     1     138.808  68.164 225.662 -0.38 -0.00    +0.089 A  
DOCKED: ATOM     23  C   UNL     1     139.671  70.102 226.283 -0.46 -0.00    +0.005 A  
DOCKED: ATOM     24  N   UNL     1     139.593  67.911 226.732 -0.30 +0.05    -0.361 N  
DOCKED: ATOM     25  C   UNL     1     140.089  71.423 226.457 -0.44 -0.00    +0.011 A  
DOCKED: ATOM     26  C   UNL     1     140.113  69.094 227.101 -0.56 -0.01    +0.046 A  
DOCKED: ATOM     27  C   UNL     1     140.981  71.696 227.510 -0.81 -0.00    +0.001 A  
DOCKED: ATOM     28  C   UNL     1     140.998  69.336 228.151 -0.59 -0.01    +0.026 A  
DOCKED: ATOM     29  C   UNL     1     141.433  70.658 228.354 -0.45 -0.00    +0.002 A  
DOCKED: ATOM     30  H   UNL     1     139.768  66.980 227.173 -0.44 -0.05    +0.166 HD 
DOCKED: ENDBRANCH  10  21
DOCKED: TORSDOF 4
DOCKED: TER
DOCKED: ENDMDL
________________________________________________________________________________


    FINAL DOCKED STATE:
    ________________________


Run:   19 / 20
Time taken for this run:   0.044s

DOCKED: MODEL        19
DOCKED: USER    Run = 19
DOCKED: USER
DOCKED: USER    Estimated Free Energy of Binding    =  -6.89 kcal/mol  [=(1)+(2)+(3)-(4)]
DOCKED: USER
DOCKED: USER    (1) Final Intermolecular Energy     =  -8.08 kcal/mol
DOCKED: USER        vdW + Hbond + desolv Energy     =  -8.01 kcal/mol
DOCKED: USER        Electrostatic Energy            =  -0.07 kcal/mol
DOCKED: USER        Moving Ligand-Fixed Receptor    =  -8.08 kcal/mol
DOCKED: USER        Moving Ligand-Moving Receptor   =  +0.00 kcal/mol
DOCKED: USER    (2) Final Total Internal Energy     =  -2.76 kcal/mol
DOCKED: USER    (3) Torsional Free Energy           =  +1.19 kcal/mol
DOCKED: USER    (4) Unbound System's Energy         =  -2.76 kcal/mol
DOCKED: USER
DOCKED: USER
DOCKED: REMARK SMILES O=S(=O)(Cc1ccccc1)N1C=Cc2ccccc2[C@@H]1c1c[nH]c2ccccc12
DOCKED: REMARK SMILES IDX 11 1 12 2 13 3 14 4 15 5 16 6 17 7 18 8 19 9 20 10 2 11 1 12
DOCKED: REMARK SMILES IDX 3 13 4 14 5 15 6 16 10 17 7 18 9 19 8 20 21 21 22 22 29 23
DOCKED: REMARK SMILES IDX 23 24 28 25 24 26 27 27 25 28 26 29
DOCKED: REMARK H PARENT 23 30
DOCKED: USER                              x       y       z     vdW  Elec       q    Type
DOCKED: USER                           _______ _______ _______ _____ _____    ______ ____
DOCKED: ROOT
DOCKED: ATOM      1  N   UNL     1     140.009  80.879 219.914 -0.05 +0.08    -0.265 N  
DOCKED: ATOM      2  C   UNL     1     140.618  82.139 220.243 -0.21 -0.03    +0.099 C  
DOCKED: ATOM      3  C   UNL     1     141.417  82.251 221.302 -0.34 -0.01    +0.027 C  
DOCKED: ATOM      4  C   UNL     1     141.676  81.089 222.166 -0.47 +0.00    -0.019 A  
DOCKED: ATOM      5  C   UNL     1     142.360  81.251 223.380 -0.57 -0.00    +0.008 A  
DOCKED: ATOM      6  C   UNL     1     142.574  80.155 224.219 -0.52 -0.00    +0.001 A  
DOCKED: ATOM      7  C   UNL     1     142.109  78.891 223.850 -0.54 -0.00    +0.000 A  
DOCKED: ATOM      8  C   UNL     1     141.431  78.717 222.641 -0.50 -0.00    +0.007 A  
DOCKED: ATOM      9  C   UNL     1     141.206  79.814 221.792 -0.37 +0.00    -0.013 A  
DOCKED: ATOM     10  C   UNL     1     140.517  79.612 220.461 -0.15 -0.06    +0.162 C  
DOCKED: ENDROOT
DOCKED: BRANCH   1  11
DOCKED: ATOM     11  S   UNL     1     138.585  80.861 218.920 -0.03 -0.06    +0.239 S  
DOCKED: ATOM     12  O   UNL     1     138.587  79.631 218.057 -0.01 +0.05    -0.206 OA 
DOCKED: ATOM     13  O   UNL     1     138.563  82.073 218.031 -0.01 +0.05    -0.206 OA 
DOCKED: BRANCH  11  14
DOCKED: ATOM     14  C   UNL     1     137.137  80.861 219.966 -0.02 -0.04    +0.195 C  
DOCKED: BRANCH  14  15
DOCKED: ATOM     15  C   UNL     1     137.527  80.543 221.383 -0.08 +0.01    -0.031 A  
DOCKED: ATOM     16  C   UNL     1     137.611  79.207 221.812 -0.13 -0.00    +0.005 A  
DOCKED: ATOM     17  C   UNL     1     137.914  81.572 222.258 -0.17 -0.00    +0.005 A  
DOCKED: ATOM     18  C   UNL     1     138.070  78.907 223.098 -0.25 -0.00    +0.000 A  
DOCKED: ATOM     19  C   UNL     1     138.367  81.268 223.545 -0.31 -0.00    +0.000 A  
DOCKED: ATOM     20  C   UNL     1     138.447  79.937 223.964 -0.35 -0.00    +0.000 A  
DOCKED: ENDBRANCH  14  15
DOCKED: ENDBRANCH  11  14
DOCKED: ENDBRANCH   1  11
DOCKED: BRANCH  10  21
DOCKED: ATOM     21  C   UNL     1     141.471  78.981 219.483 -0.25 -0.00    +0.005 A  
DOCKED: ATOM     22  C   UNL     1     142.126  79.617 218.429 -0.28 -0.06    +0.089 A  
DOCKED: ATOM     23  C   UNL     1     141.941  77.680 219.480 -0.29 -0.00    +0.005 A  
DOCKED: ATOM     24  N   UNL     1     142.949  78.753 217.794 -0.16 +0.38    -0.361 N  
DOCKED: ATOM     25  C   UNL     1     141.663  76.594 220.313 -0.28 -0.01    +0.011 A  
DOCKED: ATOM     26  C   UNL     1     142.829  77.581 218.439 -0.31 -0.03    +0.046 A  
DOCKED: ATOM     27  C   UNL     1     142.321  75.379 220.049 -0.30 -0.00    +0.001 A  
DOCKED: ATOM     28  C   UNL     1     143.496  76.390 218.156 -0.25 -0.02    +0.026 A  
DOCKED: ATOM     29  C   UNL     1     143.232  75.277 218.975 -0.30 -0.00    +0.002 A  
DOCKED: ATOM     30  H   UNL     1     143.561  78.962 216.973 -0.50 -0.34    +0.166 HD 
DOCKED: ENDBRANCH  10  21
DOCKED: TORSDOF 4
DOCKED: TER
DOCKED: ENDMDL
________________________________________________________________________________


    FINAL DOCKED STATE:
    ________________________


Run:   20 / 20
Time taken for this run:   0.044s

DOCKED: MODEL        20
DOCKED: USER    Run = 20
DOCKED: USER
DOCKED: USER    Estimated Free Energy of Binding    =  -8.01 kcal/mol  [=(1)+(2)+(3)-(4)]
DOCKED: USER
DOCKED: USER    (1) Final Intermolecular Energy     =  -9.20 kcal/mol
DOCKED: USER        vdW + Hbond + desolv Energy     =  -9.14 kcal/mol
DOCKED: USER        Electrostatic Energy            =  -0.07 kcal/mol
DOCKED: USER        Moving Ligand-Fixed Receptor    =  -9.20 kcal/mol
DOCKED: USER        Moving Ligand-Moving Receptor   =  +0.00 kcal/mol
DOCKED: USER    (2) Final Total Internal Energy     =  -2.19 kcal/mol
DOCKED: USER    (3) Torsional Free Energy           =  +1.19 kcal/mol
DOCKED: USER    (4) Unbound System's Energy         =  -2.19 kcal/mol
DOCKED: USER
DOCKED: USER
DOCKED: REMARK SMILES O=S(=O)(Cc1ccccc1)N1C=Cc2ccccc2[C@@H]1c1c[nH]c2ccccc12
DOCKED: REMARK SMILES IDX 11 1 12 2 13 3 14 4 15 5 16 6 17 7 18 8 19 9 20 10 2 11 1 12
DOCKED: REMARK SMILES IDX 3 13 4 14 5 15 6 16 10 17 7 18 9 19 8 20 21 21 22 22 29 23
DOCKED: REMARK SMILES IDX 23 24 28 25 24 26 27 27 25 28 26 29
DOCKED: REMARK H PARENT 23 30
DOCKED: USER                              x       y       z     vdW  Elec       q    Type
DOCKED: USER                           _______ _______ _______ _____ _____    ______ ____
DOCKED: ROOT
DOCKED: ATOM      1  N   UNL     1     136.921  69.366 223.854 -0.12 +0.03    -0.265 N  
DOCKED: ATOM      2  C   UNL     1     137.082  68.500 222.718 -0.15 -0.01    +0.099 C  
DOCKED: ATOM      3  C   UNL     1     138.083  68.684 221.860 -0.15 -0.00    +0.027 C  
DOCKED: ATOM      4  C   UNL     1     139.034  69.791 222.051 -0.16 +0.00    -0.019 A  
DOCKED: ATOM      5  C   UNL     1     139.969  70.098 221.051 -0.13 -0.00    +0.008 A  
DOCKED: ATOM      6  C   UNL     1     140.847  71.171 221.215 -0.16 -0.00    +0.001 A  
DOCKED: ATOM      7  C   UNL     1     140.799  71.943 222.377 -0.30 -0.00    +0.000 A  
DOCKED: ATOM      8  C   UNL     1     139.876  71.643 223.382 -0.37 -0.00    +0.007 A  
DOCKED: ATOM      9  C   UNL     1     138.984  70.569 223.225 -0.26 +0.00    -0.013 A  
DOCKED: ATOM     10  C   UNL     1     138.021  70.216 224.336 -0.22 -0.03    +0.162 C  
DOCKED: ENDROOT
DOCKED: BRANCH   1  11
DOCKED: ATOM     11  S   UNL     1     135.366  69.480 224.619 -0.20 -0.01    +0.239 S  
DOCKED: ATOM     12  O   UNL     1     135.534  69.945 226.038 -0.10 +0.01    -0.206 OA 
DOCKED: ATOM     13  O   UNL     1     134.699  68.133 224.630 -0.73 -0.01    -0.206 OA 
DOCKED: BRANCH  11  14
DOCKED: ATOM     14  C   UNL     1     134.352  70.643 223.720 -0.06 -0.02    +0.195 C  
DOCKED: BRANCH  14  15
DOCKED: ATOM     15  C   UNL     1     134.880  72.038 223.906 -0.15 +0.00    -0.031 A  
DOCKED: ATOM     16  C   UNL     1     135.767  72.591 222.967 -0.15 -0.00    +0.005 A  
DOCKED: ATOM     17  C   UNL     1     134.410  72.837 224.962 -0.25 -0.00    +0.005 A  
DOCKED: ATOM     18  C   UNL     1     136.180  73.922 223.085 -0.16 -0.00    +0.000 A  
DOCKED: ATOM     19  C   UNL     1     134.829  74.166 225.079 -0.32 -0.00    +0.000 A  
DOCKED: ATOM     20  C   UNL     1     135.711  74.708 224.141 -0.27 -0.00    +0.000 A  
DOCKED: ENDBRANCH  14  15
DOCKED: ENDBRANCH  11  14
DOCKED: ENDBRANCH   1  11
DOCKED: BRANCH  10  21
DOCKED: ATOM     21  C   UNL     1     138.756  69.515 225.446 -0.39 -0.00    +0.005 A  
DOCKED: ATOM     22  C   UNL     1     138.756  68.146 225.713 -0.35 -0.00    +0.089 A  
DOCKED: ATOM     23  C   UNL     1     139.629  70.070 226.365 -0.46 -0.00    +0.005 A  
DOCKED: ATOM     24  N   UNL     1     139.573  67.866 226.753 -0.30 +0.05    -0.361 N  
DOCKED: ATOM     25  C   UNL     1     140.047  71.388 226.564 -0.42 -0.00    +0.011 A  
DOCKED: ATOM     26  C   UNL     1     140.098  69.041 227.141 -0.57 -0.01    +0.046 A  
DOCKED: ATOM     27  C   UNL     1     140.967  71.635 227.599 -0.81 -0.00    +0.001 A  
DOCKED: ATOM     28  C   UNL     1     141.012  69.257 228.172 -0.59 -0.01    +0.026 A  
DOCKED: ATOM     29  C   UNL     1     141.447  70.575 228.399 -0.39 -0.00    +0.002 A  
DOCKED: ATOM     30  H   UNL     1     139.763  66.924 227.162 -0.44 -0.05    +0.166 HD 
DOCKED: ENDBRANCH  10  21
DOCKED: TORSDOF 4
DOCKED: TER
DOCKED: ENDMDL
________________________________________________________________________________


    CLUSTERING HISTOGRAM
    ____________________


________________________________________________________________________________
     |           |     |           |     |
Clus | Lowest    | Run | Mean      | Num | Histogram
-ter | Binding   |     | Binding   | in  |
Rank | Energy    |     | Energy    | Clus|    5    10   15   20   25   30   35
_____|___________|_____|___________|_____|____:____|____:____|____:____|____:___
   1 |     -8.55 |  15 |     -8.43 |   5 |#####
   2 |     -8.41 |   4 |     -8.10 |   6 |######
   3 |     -6.89 |  12 |     -6.89 |   3 |###
   4 |     -6.76 |   8 |     -6.75 |   6 |######
_____|___________|_____|___________|_____|______________________________________


    RMSD TABLE
    __________


_______________________________________________________________________
     |      |      |           |         |                 |
Rank | Sub- | Run  | Binding   | Cluster | Reference       | Grep
     | Rank |      | Energy    | RMSD    | RMSD            | Pattern
_____|______|______|___________|_________|_________________|___________
   1      1     15       -8.55      0.00    271.13           RANKING
   1      2     11       -8.50      0.06    271.11           RANKING
   1      3     17       -8.45      0.34    271.01           RANKING
   1      4     13       -8.39      0.07    271.12           RANKING
   1      5     16       -8.28      0.23    271.00           RANKING
   2      1      4       -8.41      0.00    270.44           RANKING
   2      2      2       -8.37      0.12    270.45           RANKING
   2      3      9       -8.29      0.15    270.45           RANKING
   2      4      5       -8.24      0.29    270.43           RANKING
   2      5     20       -8.01      0.45    270.36           RANKING
   2      6     18       -7.31      1.23    270.03           RANKING
   3      1     12       -6.89      0.00    270.96           RANKING
   3      2     19       -6.89      0.03    270.94           RANKING
   3      3     14       -6.88      0.03    270.94           RANKING
   4      1      8       -6.76      0.00    271.00           RANKING
   4      2      1       -6.76      0.04    271.00           RANKING
   4      3     10       -6.76      0.03    271.00           RANKING
   4      4      6       -6.75      0.04    270.99           RANKING
   4      5      3       -6.75      0.04    270.99           RANKING
   4      6      7       -6.71      0.31    270.98           RANKING

Run time 0.846 sec
Idle time 0.000 sec
